

 Parallel Execution: Process Information
 ==============================================================================
 Rank   Node Name                              NodeID   MyNodeRank  NodeMaster
    0   node120                                   0          0          0
    1   node120                                   0          1         -1
    2   node120                                   0          2         -1
    3   node120                                   0          3         -1
 ==============================================================================


May use up to 122928MB of RAM as shared memory on node 0

 *******************************************************************************
 *                                                                             *
 *  --------------------------------                                           *
 *   Amsterdam Modeling Suite (AMS)              2021.102                      *
 *  --------------------------------                                           *
 *                                               r95042 2021-06-07             *
 *                                                                             *
 *                                                                             *
 *                              =================                              *
 *                              |               |                              *
 *                              |     A M S     |                              *
 *                              |               |                              *
 *                              =================                              *
 *                                                                             *
 *                                                                             *
 *   Online information and documentation:  https://www.scm.com/support/       *
 *   E-mail:  support@scm.com   info@scm.com                                   *
 *                                                                             *
 *   Scientific publications using AMS results must be properly referenced     *
 *   See the User Manuals (or the web site) for recommended citations          *
 *   The terms and conditions of the End User License Agreement apply to       *
 *   the use of AMS, https://www.scm.com/license-terms/                        *
 *                                                                             *
 **********************  x86_64_linux_intel / intelmpi  ************************
 
 Licensed to: VU/FEW (+ SARA) / ALGEMEEN / Amsterdam / THE NETHERLANDS
 SCM User ID: u7668
  
 AMS 2021.102  RunTime: Jan28-2022 22:44:33  ShM Nodes: 1  Procs: 4

 AMS jobname: 34.achiral_catalyst.H_tBu_AlF3.TS
 AMS jobid  : 1764569760

 Start   directory: /scistor/tc/yhk800/MasterProject/calculations/achiral_catalyst_H_tBu_AlF3/34.achiral_catalyst.H_tBu_AlF3.TS/
 Results directory: /scistor/tc/yhk800/MasterProject/calculations/achiral_catalyst_H_tBu_AlF3/34.achiral_catalyst.H_tBu_AlF3.TS/
 Scratch directory: /scratch/5502/amstmp_34.achiral_catalyst.H_tBu_AlF3.TS_kid0.1764569760/


 Communication costs MPI_COMM_WORLD:      1.818 usec per message,   0.0061 usec per 8-byte item
 Communication costs for intra-node:      0.200 usec per message,   0.0079 usec per 8-byte item

 RNG seed: 1690470065 1622339046 -1139753581 867431385 1708448247 -551209766 -417684118 -757748852



                      ************************************************************************
                      *  ADF 2021.102  RunTime: Jan28-2022 22:44:34  ShM Nodes: 1  Procs: 4  *
                      ************************************************************************
  
       *****************************
       *  TRANSITION STATE SEARCH  *
       *****************************

Optimization Method                    Quasi Newton
Optimization Coordinates               Delocalized Coordinates
Optimize lattice                       F
 
 ------------------------------------------------------
 Convergence criteria (Hartree,Angstrom)
 ------------------------------------------------------
 Maximum gradient               0.001000000000
 Maximum rms gradient           0.000666666667
 Maximum step allowed           0.010000000000
 Maximum rms step allowed       0.006666666667
 Maximum energy change allowe   0.000280000000
 Maximum stress energy allowe   0.000500000000
 
Initial model Hessian                  Automatic Hessian
 
------------------------------------
Quasi-Newton Optimizer Parameters
------------------------------------
Hessian Update Method                  Bofill
Maximum number of steps                  250
First GDIIS cycle                          0
Maximum GDIIS vectors                      0
Trust radius (bohr)                        0.200000
Trust radius varies                        F
Constraints converged at all steps         T
Use projector                              T
 
 Rigid motions settings for: old optimizer
 Atomic rotations (x,y,z):     T T T
 Atomic translations (x,y,z):  T T T
 Tolerance:                   1.000000000000000E-006
 
           1  TSRC entries:
    i   type      a1    a2    a3    a4    coef
    1 Distance     2    10               -1.000
 
--------
Geometry
--------
Formula: C8H15AlF3O
Atoms
  Index Symbol   x (angstrom)   y (angstrom)   z (angstrom)
      1      H     0.19369716    -1.85361092    -0.24516176
      2      C    -0.92057816    -0.12292898     0.28183759
      3      C     0.21368396    -0.77846351    -0.06958517
      4      C     1.52168394    -0.13059856    -0.22805405
      5      O     2.57084417    -0.68022178    -0.54313771
      6      H    -0.93117356     0.95749943     0.37346659
      7      H    -1.16677948    -1.14795174     3.01281369
      8      H    -2.10496465     0.45730942     2.86041604
      9      H    -0.24714630     0.47546451     3.02589233
     10      C    -1.16197426    -0.07675120     2.85297480
     11      C    -2.70617814    -1.13198073    -1.13307527
     12      C    -2.27774025    -0.85018701     0.31024211
     13      C    -3.29814455     0.05623311     1.00544670
     14      C    -2.10857613    -2.16055035     1.08513774
     15      H    -1.77993511    -1.95738108     2.10497923
     16      H    -3.66728922    -1.64847593    -1.15378817
     17      H    -1.96534043    -1.75736397    -1.63248955
     18      H    -2.80193402    -0.19835583    -1.68853426
     19      H    -4.27589769    -0.42685762     1.04485445
     20      H    -3.39798001     0.99804667     0.46472548
     21      H    -2.97770152     0.27467949     2.02473899
     22      H    -3.05288672    -2.70596191     1.12678586
     23      H    -1.36362000    -2.79302204     0.60101043
     24      H     1.51741535     0.92352060    -0.04443873
     25     Al     3.93691787     0.31396217    -0.73139533
     26      F     3.68284030     0.94126791     0.73770115
     27      F     3.25975160     0.99830780    -2.03117580
     28      F     4.86816171    -0.99768922    -0.90071134
 
Total System Charge             0.00000
 
 
----------------
ADF Engine Input
----------------
 
 NumericalQuality VeryGood
 SCF
 Converge 1.0e-6
 Iterations 99
 End
 SYMMETRY NOSYM
 SpinPolarization 1.0
 Unrestricted Yes
 XC
 GGA OLYP
 End
 basis
 core None
 type TZ2P
 End
 

 Title: *** (NO TITLE) ***

 Using automatic Hessian for delocalized coordinates.
 *** GOStep1 ***

 Energy gradients wrt nuclear displacements
 ==========================================

     Atom      Cartesian (a.u./angstrom)
                 X         Y         Z
 ----------------------------------------
     1 H    -0.003756 -0.004105 -0.000763
     2 C     0.015940  0.019146  0.003106
     3 C    -0.056448  0.003202  0.010436
     4 C     0.109595  0.018517 -0.016809
     5 O     0.126788  0.128378 -0.010247
     6 H    -0.003617 -0.006269  0.000686
     7 H    -0.013657 -0.026870 -0.022917
     8 H    -0.042484 -0.001324 -0.038869
     9 H    -0.004190 -0.000804 -0.000760
    10 C    -0.041909 -0.022903 -0.043188
    11 C    -0.001146 -0.000473  0.006058
    12 C    -0.018906 -0.016909 -0.017405
    13 C     0.024348  0.003383  0.016239
    14 C     0.011787  0.018904  0.009623
    15 H     0.017241  0.028630  0.028997
    16 H     0.003791  0.001008  0.000063
    17 H     0.000788  0.001584  0.004809
    18 H     0.001694 -0.001839  0.006079
    19 H     0.005545 -0.000455  0.002013
    20 H     0.004477 -0.005644  0.001744
    21 H     0.047255  0.004914  0.043459
    22 H     0.003202  0.004023  0.002060
    23 H     0.004000  0.007846 -0.002982
    24 H     0.000676 -0.038275 -0.006405
    25 Al   -0.060446 -0.001881  0.013646
    26 F    -0.034995 -0.072340 -0.077999
    27 F    -0.006219 -0.072114  0.075776
    28 F    -0.089352  0.032671  0.013551
 ----------------------------------------
 Mulliken charges used for AMS results%charges...
           Primitive Internal Coordinates (atoms in internal order)
-------------------------------------------------------------------------------
    index    type      i       j       k       l   value(A,deg)     TSRC Vect
-------------------------------------------------------------------------------
       1     bnd       1       3       0       0     1.08957265     0.00000000
       2     bnd       2       6       0       0     1.08435865    -0.00000000
       3     bnd       2      12       0       0     1.54000000    -0.00841300
       4     bnd       2       3       0       0     1.35638270     0.00000000
       5     bnd       3       4       0       0     1.46823204     0.00000000
       6     bnd       4      24       0       0     1.07000000    -0.00000000
       7     bnd       4       5       0       0     1.22560213     0.00000000
       8     bnd       5      25       0       0     1.70000000     0.00000000
       9     bnd       8      10       0       0     1.08374674    -0.00712836
      10     bnd       7      10       0       0     1.08307071    -0.00530995
      11     bnd       9      10       0       0     1.08247534    -0.00000000
      12     bnd      11      17       0       0     1.09057752     0.00000000
      13     bnd      11      12       0       0     1.53170878    -0.00000000
      14     bnd      12      14       0       0     1.53170879    -0.01050536
      15     bnd      12      13       0       0     1.53170878    -0.01362022
      16     bnd      13      19       0       0     1.09129777    -0.00000000
      17     bnd      13      21       0       0     1.09057752    -0.04308487
      18     bnd      14      22       0       0     1.09129777     0.00000000
      19     bnd      14      15       0       0     1.09057752    -0.03932883
      20     bnd      11      16       0       0     1.09129777     0.00000000
      21     bnd      11      18       0       0     1.09057752     0.00000000
      22     bnd      13      20       0       0     1.09057753    -0.00000000
      23     bnd      14      23       0       0     1.09057752    -0.00000000
      24     bnd       4      25       0       0     2.50685892     0.00000000
      25     bnd      25      27       0       0     1.61750189     0.00000000
      26     bnd      25      26       0       0     1.61750189    -0.00000000
      27     bnd      25      28       0       0     1.61750189    -0.00000000
      28     bnd       7      15       0       0     1.36209364    -0.03085990
      29     bnd       8      21       0       0     1.22203906    -0.03287133
      30     ang       6       2      12       0   117.41061246    -0.00000000
      31     ang       6       2       3       0   120.77103538    -0.00000000
      32     ang      12       2       3       0   120.89733876     0.00000000
      33     ang       1       3       2       0   120.21909900    -0.00000000
      34     ang       1       3       4       0   115.74474309    -0.00000000
      35     ang       2       3       4       0   124.03410402     0.00000000
      36     ang       3       4      24       0   114.37019779     0.00000000
      37     ang       3       4       5       0   126.33327002     0.00000000
      38     ang       3       4      25       0   163.38119183    -0.00000000
      39     ang      24       4       5       0   119.29637471    -0.00000000
      40     ang      24       4      25       0    82.16002634    -0.00000000
      41     ang       5       4      25       0    37.17058570    -0.00000000
      42     ang       4       5      25       0   117.00680806     0.00000000
      43     ang      10       7      15       0   119.43110153     0.01106394
      44     ang      10       8      21       0   122.89272049     0.01286683
      45     ang       8      10       7       0   118.84988012    -0.00411492
      46     ang       8      10       9       0   118.87311123    -0.00658368
      47     ang       7      10       9       0   118.99448321    -0.00549185
      48     ang      17      11      12       0   110.30372147     0.00000000
      49     ang      17      11      16       0   108.55265565     0.00000000
      50     ang      17      11      18       0   108.50099190     0.00000000
      51     ang      12      11      16       0   110.56689159    -0.00000000
      52     ang      12      11      18       0   110.30372122    -0.00000000
      53     ang      16      11      18       0   108.55265584     0.00000000
      54     ang       2      12      11       0   108.42142155     0.04847580
      55     ang       2      12      14       0   108.42142138    -0.02580540
      56     ang       2      12      13       0   108.42142163    -0.02690602
      57     ang      11      12      14       0   110.50030803    -0.02126142
      58     ang      11      12      13       0   110.50030844    -0.02194200
      59     ang      14      12      13       0   110.50030810     0.04727065
      60     ang      12      13      19       0   110.56689169     0.00016065
      61     ang      12      13      21       0   110.30372120    -0.02078036
      62     ang      12      13      20       0   110.30372081     0.00943778
      63     ang      19      13      21       0   108.55265628     0.03169333
      64     ang      19      13      20       0   108.55265560    -0.00196474
      65     ang      21      13      20       0   108.50099212    -0.01826548
      66     ang      12      14      22       0   110.56689120    -0.00205677
      67     ang      12      14      15       0   110.30372073    -0.01984715
      68     ang      12      14      23       0   110.30372111     0.01122531
      69     ang      22      14      15       0   108.55265617     0.03417305
      70     ang      22      14      23       0   108.55265628    -0.00188086
      71     ang      15      14      23       0   108.50099221    -0.02135436
      72     ang      14      15       7       0   150.41554278    -0.08611095
      73     ang      13      21       8       0   151.51189577    -0.09075394
      74     ang       5      25      27       0    89.99999974     0.00000000
      75     ang       5      25      26       0    90.00000011     0.00000000
      76     ang       5      25      28       0    89.99999973     0.00000000
      77     ang       4      25      27       0    80.38815531     0.00000000
      78     ang       4      25      26       0    74.63739682     0.00000000
      79     ang       4      25      28       0   115.58815964    -0.00000000
      80     ang      27      25      26       0   120.00000066     0.00000000
      81     ang      27      25      28       0   119.99999967    -0.00000000
      82     ang      26      25      28       0   119.99999967    -0.00000000
      83     dih       6       2      12      11    97.82854891    -0.00048423
      84     dih       6       2      12      14   217.82854865    -0.01295263
      85     dih       6       2      12      13   -22.17145147     0.01343686
      86     dih       3       2      12      11   -71.27064345    -0.00048423
      87     dih       3       2      12      14    48.72935630    -0.01295263
      88     dih       3       2      12      13   168.72935617     0.01343686
      89     dih       6       2       3       1   185.43025046     0.00000000
      90     dih       6       2       3       4     5.97435318     0.00000000
      91     dih      12       2       3       1    -5.83693582     0.00000000
      92     dih      12       2       3       4   174.70716690     0.00000000
      93     dih       1       3       4      24   180.37552847     0.00000000
      94     dih       1       3       4       5     0.52197473     0.00000000
      95     dih       1       3       4      25     6.59180955     0.00000000
      96     dih       2       3       4      24    -0.14644617     0.00000000
      97     dih       2       3       4       5   180.00000148     0.00000000
      98     dih       2       3       4      25   186.06983491     0.00000000
      99     dih       3       4       5      25   177.13092032     0.00000000
     100     dih      24       4       5      25    -2.71611828     0.00000000
     101     dih       4       5      25      27   -67.45999877     0.00000000
     102     dih       4       5      25      26    52.54000189     0.00000000
     103     dih       4       5      25      28   172.54000156     0.00000000
     104     dih      21       8      10       7   -64.89060948    -0.04846506
     105     dih      21       8      10       9   135.76133749     0.00165511
     106     dih      15       7      10       8    64.25404055     0.05398918
     107     dih      15       7      10       9   223.57678807     0.00358044
     108     dih      17      11      12       2    59.92224995     0.00057907
     109     dih      17      11      12      14   -58.77116296     0.01491073
     110     dih      17      11      12      13   178.61566341    -0.01548980
     111     dih      16      11      12       2   180.00000000     0.00057907
     112     dih      16      11      12      14    61.30658712     0.01491073
     113     dih      16      11      12      13   -61.30658651    -0.01548980
     114     dih      18      11      12       2   -59.92224980     0.00057907
     115     dih      18      11      12      14   181.38433729     0.01491073
     116     dih      18      11      12      13    58.77116366    -0.01548980
     117     dih       2      12      14      22   179.99999915    -0.03039783
     118     dih       2      12      14      15    59.92224993    -0.05884902
     119     dih       2      12      14      23   -59.92224967    -0.02679816
     120     dih      11      12      14      22   -61.30658704     0.00047305
     121     dih      11      12      14      15   178.61566296    -0.02797813
     122     dih      11      12      14      23    58.77116335     0.00407272
     123     dih      13      12      14      22    61.30658678    -0.00957018
     124     dih      13      12      14      15   -58.77116322    -0.03802136
     125     dih      13      12      14      23   181.38433718    -0.00597050
     126     dih       2      12      13      19   179.99999915     0.02851118
     127     dih       2      12      13      21   -59.92224944     0.05469386
     128     dih       2      12      13      20    59.92225015     0.02474432
     129     dih      11      12      13      19    61.30658640    -0.00129226
     130     dih      11      12      13      21   181.38433715     0.02489043
     131     dih      11      12      13      20   -58.77116326    -0.00505911
     132     dih      14      12      13      19   -61.30658719     0.00835329
     133     dih      14      12      13      21    58.77116356     0.03453597
     134     dih      14      12      13      20   178.61566315     0.00458643
     135     dih      12      13      21       8    31.37418389     0.00928867
     136     dih      19      13      21       8   152.65821231     0.01683841
     137     dih      20      13      21       8   -89.55318409     0.02193927
     138     dih      12      14      15       7   -23.92743686    -0.01378839
     139     dih      22      14      15       7   214.78853567    -0.02076142
     140     dih      23      14      15       7    96.99993126    -0.02562224
     141     dih       3       4      25       5    -8.10496260     0.00000000
     142     dih       3       4      25      27   102.38020076     0.00000000
     143     dih       3       4      25      26   227.30065372     0.00000000
     144     dih       3       4      25      28   -16.38159301     0.00000000
     145     dih      24       4      25       5   177.60912466     0.00000000
     146     dih      24       4      25      27   -71.90571197     0.00000000
     147     dih      24       4      25      26    53.01474099     0.00000000
     148     dih      24       4      25      28   169.33249425     0.00000000
     149     dih       5       4      25      27   110.48516337     0.00000000
     150     dih       5       4      25      26   235.40561632     0.00000000
     151     dih       5       4      25      28    -8.27663041     0.00000000
     152     dih      10       7      15      14    27.97958941     0.00097742
     153     dih      10       8      21      13   -35.32547570     0.00079617
     154     bnd       2      10       0       0     2.58285714    -0.61594090
Hessian eigenvector     1(    -0.036) has overlap with TSRC:    0.64765E+00
Hessian eigenvector     1 has the largest overlap with TSRC:  0.64765
           Primitive Internal Coordinates (atoms in internal order)
-------------------------------------------------------------------------------
    index    type      i       j       k       l   value(A,deg)     Max Ovl Vect
-------------------------------------------------------------------------------
       1     bnd       1       3       0       0     1.08957265     0.00000000
       2     bnd       2       6       0       0     1.08435865     0.00000000
       3     bnd       2      12       0       0     1.54000000    -0.00218219
       4     bnd       2       3       0       0     1.35638270    -0.00000000
       5     bnd       3       4       0       0     1.46823204     0.00000000
       6     bnd       4      24       0       0     1.07000000     0.00000000
       7     bnd       4       5       0       0     1.22560213    -0.00000000
       8     bnd       5      25       0       0     1.70000000    -0.00000000
       9     bnd       8      10       0       0     1.08374674    -0.00147958
      10     bnd       7      10       0       0     1.08307071    -0.00108111
      11     bnd       9      10       0       0     1.08247534     0.00000000
      12     bnd      11      17       0       0     1.09057752    -0.00000000
      13     bnd      11      12       0       0     1.53170878    -0.00000000
      14     bnd      12      14       0       0     1.53170879    -0.00289544
      15     bnd      12      13       0       0     1.53170878    -0.00396885
      16     bnd      13      19       0       0     1.09129777     0.00000000
      17     bnd      13      21       0       0     1.09057752    -0.01140658
      18     bnd      14      22       0       0     1.09129777     0.00000000
      19     bnd      14      15       0       0     1.09057752    -0.00998691
      20     bnd      11      16       0       0     1.09129777     0.00000000
      21     bnd      11      18       0       0     1.09057752    -0.00000000
      22     bnd      13      20       0       0     1.09057753     0.00000000
      23     bnd      14      23       0       0     1.09057752     0.00000000
      24     bnd       4      25       0       0     2.50685892    -0.00000000
      25     bnd      25      27       0       0     1.61750189     0.00000000
      26     bnd      25      26       0       0     1.61750189     0.00000000
      27     bnd      25      28       0       0     1.61750189     0.00000000
      28     bnd       7      15       0       0     1.36209364    -0.02098893
      29     bnd       8      21       0       0     1.22203906    -0.01936461
      30     ang       6       2      12       0   117.41061246     0.00000000
      31     ang       6       2       3       0   120.77103538     0.00000000
      32     ang      12       2       3       0   120.89733876    -0.00000000
      33     ang       1       3       2       0   120.21909900    -0.00000000
      34     ang       1       3       4       0   115.74474309    -0.00000000
      35     ang       2       3       4       0   124.03410402     0.00000000
      36     ang       3       4      24       0   114.37019779    -0.00000000
      37     ang       3       4       5       0   126.33327002     0.00000000
      38     ang       3       4      25       0   163.38119183     0.00000000
      39     ang      24       4       5       0   119.29637471     0.00000000
      40     ang      24       4      25       0    82.16002634     0.00000000
      41     ang       5       4      25       0    37.17058570     0.00000000
      42     ang       4       5      25       0   117.00680806    -0.00000000
      43     ang      10       7      15       0   119.43110153    -0.01426577
      44     ang      10       8      21       0   122.89272049    -0.01900162
      45     ang       8      10       7       0   118.84988012    -0.01947415
      46     ang       8      10       9       0   118.87311123    -0.01049296
      47     ang       7      10       9       0   118.99448321    -0.01026597
      48     ang      17      11      12       0   110.30372147    -0.00000000
      49     ang      17      11      16       0   108.55265565    -0.00000000
      50     ang      17      11      18       0   108.50099190     0.00000000
      51     ang      12      11      16       0   110.56689159    -0.00000000
      52     ang      12      11      18       0   110.30372122     0.00000000
      53     ang      16      11      18       0   108.55265584     0.00000000
      54     ang       2      12      11       0   108.42142155     0.04508239
      55     ang       2      12      14       0   108.42142138    -0.02813116
      56     ang       2      12      13       0   108.42142163    -0.03104610
      57     ang      11      12      14       0   110.50030803    -0.01088552
      58     ang      11      12      13       0   110.50030844    -0.01082174
      59     ang      14      12      13       0   110.50030810     0.03524179
      60     ang      12      13      19       0   110.56689169     0.01201846
      61     ang      12      13      21       0   110.30372120    -0.02852668
      62     ang      12      13      20       0   110.30372081    -0.00013409
      63     ang      19      13      21       0   108.55265628     0.03278900
      64     ang      19      13      20       0   108.55265560     0.00260057
      65     ang      21      13      20       0   108.50099212    -0.01832409
      66     ang      12      14      22       0   110.56689120     0.00948296
      67     ang      12      14      15       0   110.30372073    -0.02270325
      68     ang      12      14      23       0   110.30372111    -0.00003664
      69     ang      22      14      15       0   108.55265617     0.03187712
      70     ang      22      14      23       0   108.55265628     0.00207001
      71     ang      15      14      23       0   108.50099221    -0.02037455
      72     ang      14      15       7       0   150.41554278    -0.13283604
      73     ang      13      21       8       0   151.51189577    -0.13336886
      74     ang       5      25      27       0    89.99999974    -0.00000000
      75     ang       5      25      26       0    90.00000011     0.00000000
      76     ang       5      25      28       0    89.99999973     0.00000000
      77     ang       4      25      27       0    80.38815531    -0.00000000
      78     ang       4      25      26       0    74.63739682     0.00000000
      79     ang       4      25      28       0   115.58815964     0.00000000
      80     ang      27      25      26       0   120.00000066    -0.00000000
      81     ang      27      25      28       0   119.99999967     0.00000000
      82     ang      26      25      28       0   119.99999967    -0.00000000
      83     dih       6       2      12      11    97.82854891    -0.00053499
      84     dih       6       2      12      14   217.82854865    -0.00383550
      85     dih       6       2      12      13   -22.17145147     0.00437049
      86     dih       3       2      12      11   -71.27064345    -0.00053499
      87     dih       3       2      12      14    48.72935630    -0.00383550
      88     dih       3       2      12      13   168.72935617     0.00437049
      89     dih       6       2       3       1   185.43025046    -0.00000000
      90     dih       6       2       3       4     5.97435318    -0.00000000
      91     dih      12       2       3       1    -5.83693582     0.00000000
      92     dih      12       2       3       4   174.70716690     0.00000000
      93     dih       1       3       4      24   180.37552847    -0.00000000
      94     dih       1       3       4       5     0.52197473     0.00000000
      95     dih       1       3       4      25     6.59180955     0.00000000
      96     dih       2       3       4      24    -0.14644617     0.00000000
      97     dih       2       3       4       5   180.00000148     0.00000000
      98     dih       2       3       4      25   186.06983491     0.00000000
      99     dih       3       4       5      25   177.13092032     0.00000000
     100     dih      24       4       5      25    -2.71611828     0.00000000
     101     dih       4       5      25      27   -67.45999877     0.00000000
     102     dih       4       5      25      26    52.54000189     0.00000000
     103     dih       4       5      25      28   172.54000156     0.00000000
     104     dih      21       8      10       7   -64.89060948    -0.13053161
     105     dih      21       8      10       9   135.76133749    -0.00668728
     106     dih      15       7      10       8    64.25404055     0.13729067
     107     dih      15       7      10       9   223.57678807     0.01324405
     108     dih      17      11      12       2    59.92224995     0.00117059
     109     dih      17      11      12      14   -58.77116296     0.01433480
     110     dih      17      11      12      13   178.61566341    -0.01550402
     111     dih      16      11      12       2   180.00000000     0.00117059
     112     dih      16      11      12      14    61.30658712     0.01433480
     113     dih      16      11      12      13   -61.30658651    -0.01550402
     114     dih      18      11      12       2   -59.92224980     0.00117059
     115     dih      18      11      12      14   181.38433729     0.01433480
     116     dih      18      11      12      13    58.77116366    -0.01550402
     117     dih       2      12      14      22   179.99999915    -0.07022718
     118     dih       2      12      14      15    59.92224993    -0.10140501
     119     dih       2      12      14      23   -59.92224967    -0.06155300
     120     dih      11      12      14      22   -61.30658704    -0.03883854
     121     dih      11      12      14      15   178.61566296    -0.07001637
     122     dih      11      12      14      23    58.77116335    -0.03016437
     123     dih      13      12      14      22    61.30658678    -0.03591653
     124     dih      13      12      14      15   -58.77116322    -0.06709436
     125     dih      13      12      14      23   181.38433718    -0.02724235
     126     dih       2      12      13      19   179.99999915     0.06784376
     127     dih       2      12      13      21   -59.92224944     0.09802146
     128     dih       2      12      13      20    59.92225015     0.05693570
     129     dih      11      12      13      19    61.30658640     0.03819168
     130     dih      11      12      13      21   181.38433715     0.06836939
     131     dih      11      12      13      20   -58.77116326     0.02728362
     132     dih      14      12      13      19   -61.30658719     0.03530694
     133     dih      14      12      13      21    58.77116356     0.06548464
     134     dih      14      12      13      20   178.61566315     0.02439888
     135     dih      12      13      21       8    31.37418389     0.02230646
     136     dih      19      13      21       8   152.65821231     0.04038119
     137     dih      20      13      21       8   -89.55318409     0.05149937
     138     dih      12      14      15       7   -23.92743686    -0.03517736
     139     dih      22      14      15       7   214.78853567    -0.05314333
     140     dih      23      14      15       7    96.99993126    -0.06198346
     141     dih       3       4      25       5    -8.10496260    -0.00000000
     142     dih       3       4      25      27   102.38020076    -0.00000000
     143     dih       3       4      25      26   227.30065372    -0.00000000
     144     dih       3       4      25      28   -16.38159301    -0.00000000
     145     dih      24       4      25       5   177.60912466     0.00000000
     146     dih      24       4      25      27   -71.90571197     0.00000000
     147     dih      24       4      25      26    53.01474099     0.00000000
     148     dih      24       4      25      28   169.33249425     0.00000000
     149     dih       5       4      25      27   110.48516337    -0.00000000
     150     dih       5       4      25      26   235.40561632    -0.00000000
     151     dih       5       4      25      28    -8.27663041    -0.00000000
     152     dih      10       7      15      14    27.97958941     0.01374500
     153     dih      10       8      21      13   -35.32547570    -0.00535002
     154     bnd       2      10       0       0     2.58285714    -0.91592106
 
----------------------------------------------------------------------
Geometry Convergence after Step   1       (Hartree/Angstrom,Angstrom)
----------------------------------------------------------------------
current energy                               -5.34671832 Hartree
energy change                      -5.34671832     0.00028000    F
constrained gradient max            0.12840869     0.00100000    F
constrained gradient rms            0.03538535     0.00066667    F
gradient max                        0.12840869
gradient rms                        0.03538535
cart. step max                      0.09405203     0.01000000    F
cart. step rms                      0.03388020     0.00666667    F
 
 
--------
Geometry
--------
Formula: C8H15AlF3O
Atoms
  Index Symbol   x (angstrom)   y (angstrom)   z (angstrom)
      1      H     0.20409295    -1.88340035    -0.23822917
      2      C    -0.93278944    -0.15972006     0.28173306
      3      C     0.20886239    -0.80876057    -0.06166690
      4      C     1.50328907    -0.14160628    -0.20833489
      5      O     2.55828280    -0.68585182    -0.51716505
      6      H    -0.93774266     0.92155469     0.37266935
      7      H    -1.12433232    -1.14902763     2.98159436
      8      H    -2.02029243     0.47505762     2.82442831
      9      H    -0.15309427     0.45114286     2.97082840
     10      C    -1.08550905    -0.07784817     2.81722969
     11      C    -2.74452272    -1.14724375    -1.13506022
     12      C    -2.30001100    -0.86708786     0.30596030
     13      C    -3.29583886     0.07174996     0.99578438
     14      C    -2.15754971    -2.17931400     1.08649740
     15      H    -1.79859736    -1.97099704     2.09645696
     16      H    -3.71781706    -1.64175675    -1.14510333
     17      H    -2.02350228    -1.79272544    -1.63856994
     18      H    -2.82468890    -0.21583088    -1.69780660
     19      H    -4.28525784    -0.38596294     1.05680257
     20      H    -3.38148825     1.00890178     0.44314786
     21      H    -2.94359622     0.29888728     2.00469561
     22      H    -3.11639943    -2.69787973     1.14877530
     23      H    -1.44018385    -2.84046378     0.59889900
     24      H     1.48580733     0.91688665    -0.02360740
     25     Al     3.92720675     0.33527067    -0.69693092
     26      F     3.71778995     1.00941944     0.76931660
     27      F     3.30317134     1.06419918    -2.01066056
     28      F     4.93386694    -0.92965436    -0.87020812
 
Total System Charge             0.00000
 
 *** GOStep2 ***

 Energy gradients wrt nuclear displacements
 ==========================================

     Atom      Cartesian (a.u./angstrom)
                 X         Y         Z
 ----------------------------------------
     1 H    -0.002993 -0.002982 -0.000806
     2 C     0.018107  0.014804 -0.001012
     3 C    -0.053609  0.003266  0.010668
     4 C     0.108806  0.014706 -0.017007
     5 O     0.092451  0.109882 -0.005468
     6 H    -0.003252 -0.005623  0.002292
     7 H    -0.015674 -0.026274 -0.020530
     8 H    -0.042755 -0.000908 -0.034367
     9 H    -0.002595 -0.000157 -0.001491
    10 C    -0.035397 -0.019021 -0.033928
    11 C    -0.002813 -0.001114  0.006076
    12 C    -0.017828 -0.015586 -0.013773
    13 C     0.020802  0.003547  0.011005
    14 C     0.010240  0.014272  0.006821
    15 H     0.019439  0.028290  0.026013
    16 H     0.003116  0.000754 -0.000302
    17 H     0.000552  0.001608  0.004238
    18 H     0.001470 -0.001510  0.005170
    19 H     0.004037 -0.000600  0.000774
    20 H     0.003755 -0.004416  0.001658
    21 H     0.047763  0.004124  0.038719
    22 H     0.002476  0.002774  0.001025
    23 H     0.002961  0.006498 -0.001549
    24 H    -0.000152 -0.032572 -0.005434
    25 Al   -0.055319 -0.001221  0.012146
    26 F    -0.025854 -0.058004 -0.060629
    27 F    -0.005080 -0.058491  0.059151
    28 F    -0.072654  0.023955  0.010539
 ----------------------------------------
 Mulliken charges used for AMS results%charges...
Hessian eigenvector     1(    -0.031) has overlap with TSRC:    0.63911E+00
Hessian eigenvector     1 has the largest overlap with TSRC:  0.63911
           Primitive Internal Coordinates (atoms in internal order)
-------------------------------------------------------------------------------
    index    type      i       j       k       l   value(A,deg)     Max Ovl Vect
-------------------------------------------------------------------------------
       1     bnd       1       3       0       0     1.08905814     0.00048433
       2     bnd       2       6       0       0     1.08510324     0.00107027
       3     bnd       2      12       0       0     1.53956194    -0.00633645
       4     bnd       2       3       0       0     1.35740414     0.00851962
       5     bnd       3       4       0       0     1.46360746    -0.01106986
       6     bnd       4      24       0       0     1.07463350     0.00474659
       7     bnd       4       5       0       0     1.22661772     0.01875822
       8     bnd       5      25       0       0     1.71725353     0.00720555
       9     bnd       8      10       0       0     1.08608314    -0.00326923
      10     bnd       7      10       0       0     1.08441156    -0.00153839
      11     bnd       9      10       0       0     1.08296879    -0.00130431
      12     bnd      11      17       0       0     1.09088915     0.00100072
      13     bnd      11      12       0       0     1.53382468     0.00214397
      14     bnd      12      14       0       0     1.53345063    -0.00162461
      15     bnd      12      13       0       0     1.53262743     0.00100698
      16     bnd      13      19       0       0     1.09186732    -0.00063385
      17     bnd      13      21       0       0     1.09250543    -0.01254463
      18     bnd      14      22       0       0     1.09187075    -0.00051401
      19     bnd      14      15       0       0     1.09190708    -0.01024751
      20     bnd      11      16       0       0     1.09176272     0.00022311
      21     bnd      11      18       0       0     1.09116453     0.00052425
      22     bnd      13      20       0       0     1.09132785     0.00017288
      23     bnd      14      23       0       0     1.09063514     0.00175986
      24     bnd       4      25       0       0     2.51823641     0.01581129
      25     bnd      25      27       0       0     1.62685050     0.00389136
      26     bnd      25      26       0       0     1.62733333     0.00336674
      27     bnd      25      28       0       0     1.62586132     0.00410997
      28     bnd       7      15       0       0     1.38337821     0.01306810
      29     bnd       8      21       0       0     1.24719188     0.01720004
      30     ang       6       2      12       0   116.90206242     0.00573624
      31     ang       6       2       3       0   120.09939211     0.00084631
      32     ang      12       2       3       0   122.08638818    -0.01152767
      33     ang       1       3       2       0   120.60717429     0.00097605
      34     ang       1       3       4       0   115.93942263     0.00106219
      35     ang       2       3       4       0   123.45170670    -0.00204097
      36     ang       3       4      24       0   114.66860588     0.00367839
      37     ang       3       4       5       0   125.70738593    -0.00109427
      38     ang       3       4      25       0   163.14597580    -0.00036912
      39     ang      24       4       5       0   119.62379688    -0.00257998
      40     ang      24       4      25       0    82.09594708    -0.00325124
      41     ang       5       4      25       0    37.56171232     0.00072261
      42     ang       4       5      25       0   116.62482950    -0.00401766
      43     ang      10       7      15       0   120.49043720    -0.02338532
      44     ang      10       8      21       0   124.11873186    -0.03280120
      45     ang       8      10       7       0   118.10260841    -0.03113132
      46     ang       8      10       9       0   119.43466232    -0.01164099
      47     ang       7      10       9       0   119.46094964    -0.01196184
      48     ang      17      11      12       0   110.49717983     0.00168253
      49     ang      17      11      16       0   108.47980512    -0.00013722
      50     ang      17      11      18       0   108.39663223    -0.00065523
      51     ang      12      11      16       0   110.47100296    -0.00299845
      52     ang      12      11      18       0   110.48160697     0.00193515
      53     ang      16      11      18       0   108.44503365     0.00015865
      54     ang       2      12      11       0   109.05658752     0.02955022
      55     ang       2      12      14       0   108.58330589    -0.03384473
      56     ang       2      12      13       0   107.61686029    -0.00870581
      57     ang      11      12      14       0   110.41587735    -0.01295150
      58     ang      11      12      13       0   110.26997309    -0.00758194
      59     ang      14      12      13       0   110.82153664     0.03301694
      60     ang      12      13      19       0   110.92529208     0.01130078
      61     ang      12      13      21       0   109.48242670    -0.02028368
      62     ang      12      13      20       0   110.43225299    -0.00124914
      63     ang      19      13      21       0   109.12991896     0.02750756
      64     ang      19      13      20       0   108.49131460     0.00157841
      65     ang      21      13      20       0   108.32535883    -0.01863084
      66     ang      12      14      22       0   110.72389912     0.00869640
      67     ang      12      14      15       0   109.76039381    -0.01738442
      68     ang      12      14      23       0   110.62759504    -0.00353001
      69     ang      22      14      15       0   109.05896595     0.02964459
      70     ang      22      14      23       0   108.37352706     0.00299158
      71     ang      15      14      23       0   108.23708876    -0.02013220
      72     ang      14      15       7       0   149.92899981    -0.14711412
      73     ang      13      21       8       0   151.04809724    -0.14924683
      74     ang       5      25      27       0    92.58975108    -0.01623205
      75     ang       5      25      26       0    92.83322791    -0.02544531
      76     ang       5      25      28       0    92.41293335    -0.00998479
      77     ang       4      25      27       0    82.66389422    -0.01491224
      78     ang       4      25      26       0    77.27715592    -0.02674553
      79     ang       4      25      28       0   117.98972185    -0.00680258
      80     ang      27      25      26       0   119.51261077    -0.00052933
      81     ang      27      25      28       0   120.00188800    -0.00103264
      82     ang      26      25      28       0   119.86799275     0.00156197
      83     dih       6       2      12      11    97.61418942    -0.01614463
      84     dih       6       2      12      14   217.97853355    -0.03418410
      85     dih       6       2      12      13   -22.00653959    -0.01905953
      86     dih       3       2      12      11   -71.45456892     0.01264131
      87     dih       3       2      12      14    48.90977521    -0.00539817
      88     dih       3       2      12      13   168.92470208     0.00972641
      89     dih       6       2       3       1   185.24252228     0.01140985
      90     dih       6       2       3       4     5.73590590     0.01176557
      91     dih      12       2       3       1    -6.02945914    -0.01787632
      92     dih      12       2       3       4   174.46392449    -0.01752060
      93     dih       1       3       4      24   180.36452814     0.00001989
      94     dih       1       3       4       5     0.53342562    -0.00189876
      95     dih       1       3       4      25     6.57625656    -0.00201930
      96     dih       2       3       4      24    -0.10768850    -0.00032085
      97     dih       2       3       4       5   180.06120898    -0.00223950
      98     dih       2       3       4      25   186.10403992    -0.00236003
      99     dih       3       4       5      25   177.13014340     0.00004259
     100     dih      24       4       5      25    -2.69329474    -0.00196973
     101     dih       4       5      25      27   -67.22902308    -0.00259824
     102     dih       4       5      25      26    52.50409632    -0.00312757
     103     dih       4       5      25      28   172.57959795    -0.00156560
     104     dih      21       8      10       7   -63.07991296    -0.17156589
     105     dih      21       8      10       9   136.61033569    -0.00350195
     106     dih      15       7      10       8    62.43165063     0.17703481
     107     dih      15       7      10       9   222.73609018     0.00882518
     108     dih      17      11      12       2    60.44659615    -0.01119812
     109     dih      17      11      12      14   -58.78448265     0.01957895
     110     dih      17      11      12      13   178.41021462    -0.00824182
     111     dih      16      11      12       2   180.49674620    -0.01221285
     112     dih      16      11      12      14    61.26566739     0.01856422
     113     dih      16      11      12      13   -61.53963533    -0.00925655
     114     dih      18      11      12       2   -59.50658798    -0.01269476
     115     dih      18      11      12      14   181.26233321     0.01808230
     116     dih      18      11      12      13    58.45703049    -0.00973846
     117     dih       2      12      14      22   178.45170938    -0.04628576
     118     dih       2      12      14      15    57.99458697    -0.07761692
     119     dih       2      12      14      23   -61.38132268    -0.03923231
     120     dih      11      12      14      22   -62.03064593    -0.03848492
     121     dih      11      12      14      15   177.51223166    -0.06981608
     122     dih      11      12      14      23    58.13632201    -0.03143147
     123     dih      13      12      14      22    60.45195653    -0.03438773
     124     dih      13      12      14      15   -60.00516588    -0.06571889
     125     dih      13      12      14      23   180.61892447    -0.02733428
     126     dih       2      12      13      19   180.91558808     0.06015278
     127     dih       2      12      13      21   -58.59152897     0.08861876
     128     dih       2      12      13      20    60.59753953     0.05170525
     129     dih      11      12      13      19    62.06961305     0.03391643
     130     dih      11      12      13      21   182.56249600     0.06238241
     131     dih      11      12      13      20   -58.24843550     0.02546891
     132     dih      14      12      13      19   -60.49782127     0.03295689
     133     dih      14      12      13      21    59.99506168     0.06142287
     134     dih      14      12      13      20   179.18413018     0.02450937
     135     dih      12      13      21       8    31.16538493     0.02681158
     136     dih      19      13      21       8   152.74591989     0.04572876
     137     dih      20      13      21       8   -89.31592974     0.05252636
     138     dih      12      14      15       7   -24.21473188    -0.03545378
     139     dih      22      14      15       7   214.32389525    -0.05431330
     140     dih      23      14      15       7    96.61596750    -0.06314731
     141     dih       3       4      25       5    -8.06070435     0.00018254
     142     dih       3       4      25      27   103.70314744    -0.00946371
     143     dih       3       4      25      26   226.26776713     0.00736204
     144     dih       3       4      25      28   -16.46321228    -0.00108287
     145     dih      24       4      25       5   177.63649090    -0.00181270
     146     dih      24       4      25      27   -70.59965731    -0.01145895
     147     dih      24       4      25      26    51.96496238     0.00536680
     148     dih      24       4      25      28   169.23398297    -0.00307810
     149     dih       5       4      25      27   111.76385179    -0.00964625
     150     dih       5       4      25      26   234.32847148     0.00717950
     151     dih       5       4      25      28    -8.40250793    -0.00126540
     152     dih      10       7      15      14    28.60659323     0.00348360
     153     dih      10       8      21      13   -35.74309183     0.00883031
     154     bnd       2      10       0       0     2.54141091    -0.90221622
 
----------------------------------------------------------------------
Geometry Convergence after Step   2       (Hartree/Angstrom,Angstrom)
----------------------------------------------------------------------
current energy                               -5.36988466 Hartree
energy change                      -0.02316634     0.00028000    F
constrained gradient max            0.10990603     0.00100000    F
constrained gradient rms            0.03012324     0.00066667    F
gradient max                        0.10990603
gradient rms                        0.03012324
cart. step max                      0.06176774     0.01000000    F
cart. step rms                      0.02131068     0.00666667    F
 
 
--------
Geometry
--------
Formula: C8H15AlF3O
Atoms
  Index Symbol   x (angstrom)   y (angstrom)   z (angstrom)
      1      H     0.21075039    -1.90861134    -0.21223933
      2      C    -0.94048303    -0.18379748     0.29926350
      3      C     0.20574707    -0.83327081    -0.04158007
      4      C     1.48547500    -0.15383189    -0.19117898
      5      O     2.54762904    -0.69971383    -0.49885197
      6      H    -0.93944054     0.89944856     0.37670250
      7      H    -1.08682639    -1.14178071     2.95664124
      8      H    -1.96395084     0.48565479     2.80517031
      9      H    -0.09132653     0.44809083     2.94718917
     10      C    -1.02924649    -0.07038495     2.79142489
     11      C    -2.75085118    -1.14583124    -1.13958561
     12      C    -2.31452786    -0.87454325     0.30807067
     13      C    -3.30710612     0.07505355     0.99211838
     14      C    -2.19349869    -2.19267132     1.08507114
     15      H    -1.81495457    -1.98673033     2.08922026
     16      H    -3.73068253    -1.62807409    -1.15556487
     17      H    -2.03638369    -1.80022819    -1.64212217
     18      H    -2.81738927    -0.21349721    -1.70377760
     19      H    -4.30040706    -0.37342858     1.06230048
     20      H    -3.38891692     1.00986255     0.43370918
     21      H    -2.93994985     0.30869751     1.99545470
     22      H    -3.16172049    -2.69289436     1.15666964
     23      H    -1.49409500    -2.87004421     0.59235194
     24      H     1.46152544     0.91065270    -0.01223482
     25     Al     3.91804638     0.34409409    -0.68690192
     26      F     3.73299489     1.05801863     0.77333104
     27      F     3.31960041     1.09375600    -2.01122100
     28      F     4.97914430    -0.88605671    -0.85795464
 
Total System Charge             0.00000
 
 *** GOStep3 ***

 Energy gradients wrt nuclear displacements
 ==========================================

     Atom      Cartesian (a.u./angstrom)
                 X         Y         Z
 ----------------------------------------
     1 H    -0.002395 -0.002735 -0.000781
     2 C     0.018683  0.010707 -0.004412
     3 C    -0.048711  0.002330  0.009667
     4 C     0.093522  0.015548 -0.014688
     5 O     0.080307  0.090447 -0.006097
     6 H    -0.002971 -0.004736  0.003329
     7 H    -0.016991 -0.025051 -0.017951
     8 H    -0.041630 -0.001363 -0.029471
     9 H    -0.001933 -0.000057 -0.001662
    10 C    -0.027867 -0.014347 -0.025050
    11 C    -0.002715 -0.001216  0.005675
    12 C    -0.015808 -0.012711 -0.011369
    13 C     0.015293  0.003074  0.008305
    14 C     0.008305  0.011101  0.005345
    15 H     0.020305  0.027267  0.022438
    16 H     0.002702  0.000578 -0.000193
    17 H     0.000561  0.001257  0.003301
    18 H     0.001181 -0.001259  0.004159
    19 H     0.002779 -0.000299  0.000188
    20 H     0.003216 -0.003556  0.001494
    21 H     0.046324  0.003704  0.033507
    22 H     0.001890  0.001941  0.000241
    23 H     0.002925  0.005366 -0.001147
    24 H    -0.001002 -0.025729 -0.003841
    25 Al   -0.049529  0.000224  0.011371
    26 F    -0.021357 -0.049041 -0.048716
    27 F    -0.004760 -0.048476  0.047850
    28 F    -0.060325  0.017032  0.008508
 ----------------------------------------
 Mulliken charges used for AMS results%charges...
Hessian eigenvector     1(    -0.027) has overlap with TSRC:    0.63052E+00
Hessian eigenvector     1 has the largest overlap with TSRC:  0.63052
           Primitive Internal Coordinates (atoms in internal order)
-------------------------------------------------------------------------------
    index    type      i       j       k       l   value(A,deg)     Max Ovl Vect
-------------------------------------------------------------------------------
       1     bnd       1       3       0       0     1.08880984    -0.00022332
       2     bnd       2       6       0       0     1.08601099     0.00116608
       3     bnd       2      12       0       0     1.53792278    -0.00593359
       4     bnd       2       3       0       0     1.36082086     0.01177414
       5     bnd       3       4       0       0     1.45661273    -0.01465710
       6     bnd       4      24       0       0     1.07968608     0.00290706
       7     bnd       4       5       0       0     1.23321570     0.01184583
       8     bnd       5      25       0       0     1.73289973     0.01584134
       9     bnd       8      10       0       0     1.08767704    -0.00532948
      10     bnd       7      10       0       0     1.08558775    -0.00381433
      11     bnd       9      10       0       0     1.08294668    -0.00124681
      12     bnd      11      17       0       0     1.09144041     0.00057626
      13     bnd      11      12       0       0     1.53612627     0.00291085
      14     bnd      12      14       0       0     1.53487439     0.00112866
      15     bnd      12      13       0       0     1.53455758     0.00068911
      16     bnd      13      19       0       0     1.09211194    -0.00110385
      17     bnd      13      21       0       0     1.09365305    -0.01417980
      18     bnd      14      22       0       0     1.09215516    -0.00082142
      19     bnd      14      15       0       0     1.09271350    -0.01118479
      20     bnd      11      16       0       0     1.09219182     0.00050189
      21     bnd      11      18       0       0     1.09178141     0.00048486
      22     bnd      13      20       0       0     1.09196232     0.00030657
      23     bnd      14      23       0       0     1.09122490     0.00125842
      24     bnd       4      25       0       0     2.53201008     0.02278177
      25     bnd      25      27       0       0     1.63522218     0.00560208
      26     bnd      25      26       0       0     1.63591338     0.00613063
      27     bnd      25      28       0       0     1.63354181     0.00497980
      28     bnd       7      15       0       0     1.41298608     0.02071754
      29     bnd       8      21       0       0     1.28044029     0.02787031
      30     ang       6       2      12       0   116.64414221     0.00665280
      31     ang       6       2       3       0   119.54467988    -0.00044283
      32     ang      12       2       3       0   122.65827977    -0.00736728
      33     ang       1       3       2       0   120.96341786    -0.00020970
      34     ang       1       3       4       0   116.13873391     0.00018059
      35     ang       2       3       4       0   122.89657906     0.00001520
      36     ang       3       4      24       0   115.04777709     0.00576732
      37     ang       3       4       5       0   125.15889689    -0.00073566
      38     ang       3       4      25       0   162.92028203    -0.00042274
      39     ang      24       4       5       0   119.79323304    -0.00503294
      40     ang      24       4      25       0    81.94495350    -0.00538194
      41     ang       5       4      25       0    37.88354695     0.00034580
      42     ang       4       5      25       0   116.20421342    -0.00065531
      43     ang      10       7      15       0   121.60597314    -0.04655377
      44     ang      10       8      21       0   125.19722553    -0.04972839
      45     ang       8      10       7       0   117.19566117    -0.03037331
      46     ang       8      10       9       0   119.84821430    -0.01258329
      47     ang       7      10       9       0   119.77214562    -0.01240368
      48     ang      17      11      12       0   110.72407369     0.00050956
      49     ang      17      11      16       0   108.40891139     0.00031782
      50     ang      17      11      18       0   108.29852302    -0.00051013
      51     ang      12      11      16       0   110.27862847    -0.00158127
      52     ang      12      11      18       0   110.70144391     0.00084042
      53     ang      16      11      18       0   108.34982818     0.00043275
      54     ang       2      12      11       0   109.12913933     0.02907039
      55     ang       2      12      14       0   108.55200752    -0.02306833
      56     ang       2      12      13       0   107.60864054    -0.01440076
      57     ang      11      12      14       0   110.35322512    -0.01626151
      58     ang      11      12      13       0   110.22156461    -0.01067772
      59     ang      14      12      13       0   110.90186866     0.03500405
      60     ang      12      13      19       0   111.27371948     0.00724322
      61     ang      12      13      21       0   108.90519968    -0.01275228
      62     ang      12      13      20       0   110.50297702    -0.00147691
      63     ang      19      13      21       0   109.51880266     0.02439647
      64     ang      19      13      20       0   108.43782799     0.00146325
      65     ang      21      13      20       0   108.14435496    -0.01874286
      66     ang      12      14      22       0   110.89266926     0.00540146
      67     ang      12      14      15       0   109.30909184    -0.00666451
      68     ang      12      14      23       0   110.79645787    -0.00334179
      69     ang      22      14      15       0   109.46262997     0.02514867
      70     ang      22      14      23       0   108.26993636     0.00155658
      71     ang      15      14      23       0   108.05237817    -0.02205202
      72     ang      14      15       7       0   148.79895637    -0.15234643
      73     ang      13      21       8       0   149.94776279    -0.15869513
      74     ang       5      25      27       0    94.27881175    -0.01683571
      75     ang       5      25      26       0    94.39020557    -0.02356352
      76     ang       5      25      28       0    94.09756263    -0.00601690
      77     ang       4      25      27       0    84.09458938    -0.01414538
      78     ang       4      25      26       0    78.60262211    -0.02276756
      79     ang       4      25      28       0   119.76666010    -0.00576933
      80     ang      27      25      26       0   118.77894589     0.00160764
      81     ang      27      25      28       0   119.87813600    -0.00214228
      82     ang      26      25      28       0   119.70836574     0.00053463
      83     dih       6       2      12      11    96.57353932    -0.00782579
      84     dih       6       2      12      14   216.88615061    -0.02390240
      85     dih       6       2      12      13   -23.02519883    -0.00345872
      86     dih       3       2      12      11   -71.07965133    -0.00105578
      87     dih       3       2      12      14    49.23295996    -0.01713240
      88     dih       3       2      12      13   169.32161052     0.00331129
      89     dih       6       2       3       1   185.47763419     0.00980225
      90     dih       6       2       3       4     5.90347066     0.01164263
      91     dih      12       2       3       1    -7.21304651     0.00353869
      92     dih      12       2       3       4   173.21278996     0.00537907
      93     dih       1       3       4      24   180.35165221     0.00001352
      94     dih       1       3       4       5     0.46338342     0.00061714
      95     dih       1       3       4      25     6.44523321     0.00135068
      96     dih       2       3       4      24    -0.05509902    -0.00175392
      97     dih       2       3       4       5   180.05663220    -0.00115030
      98     dih       2       3       4      25   186.03848198    -0.00041676
      99     dih       3       4       5      25   177.14291409    -0.00039385
     100     dih      24       4       5      25    -2.74044538     0.00022212
     101     dih       4       5      25      27   -67.03938164    -0.00326763
     102     dih       4       5      25      26    52.29739067    -0.00165999
     103     dih       4       5      25      28   172.55028511    -0.00112536
     104     dih      21       8      10       7   -61.75130764    -0.21387861
     105     dih      21       8      10       9   138.44746111    -0.04382867
     106     dih      15       7      10       8    60.85792283     0.23164272
     107     dih      15       7      10       9   220.67518148     0.06134074
     108     dih      17      11      12       2    60.57214832    -0.00602240
     109     dih      17      11      12      14   -58.62762103     0.01386525
     110     dih      17      11      12      13   178.54094205    -0.01209822
     111     dih      16      11      12       2   180.55556547    -0.00631545
     112     dih      16      11      12      14    61.35579612     0.01357220
     113     dih      16      11      12      13   -61.47564081    -0.01239126
     114     dih      18      11      12       2   -59.54934036    -0.00625074
     115     dih      18      11      12      14   181.25089029     0.01363691
     116     dih      18      11      12      13    58.41945337    -0.01232655
     117     dih       2      12      14      22   177.25161018    -0.02987676
     118     dih       2      12      14      15    56.47837370    -0.06041901
     119     dih       2      12      14      23   -62.48893749    -0.02661655
     120     dih      11      12      14      22   -63.19876678    -0.01803630
     121     dih      11      12      14      15   176.02799674    -0.04857855
     122     dih      11      12      14      23    57.06068555    -0.01477608
     123     dih      13      12      14      22    59.23412942    -0.01876655
     124     dih      13      12      14      15   -61.53910706    -0.04930880
     125     dih      13      12      14      23   179.49358175    -0.01550633
     126     dih       2      12      13      19   181.99412993     0.03807476
     127     dih       2      12      13      21   -57.18614657     0.06492205
     128     dih       2      12      13      20    61.46648215     0.03253508
     129     dih      11      12      13      19    63.09289756     0.01769695
     130     dih      11      12      13      21   183.91262106     0.04454425
     131     dih      11      12      13      20   -57.43475022     0.01215727
     132     dih      14      12      13      19   -59.41647990     0.02169004
     133     dih      14      12      13      21    61.40324360     0.04853734
     134     dih      14      12      13      20   180.05587232     0.01615036
     135     dih      12      13      21       8    31.00852499     0.03004868
     136     dih      19      13      21       8   152.89917852     0.04663580
     137     dih      20      13      21       8   -89.11282592     0.05150692
     138     dih      12      14      15       7   -24.47380468    -0.04085511
     139     dih      22      14      15       7   213.88543494    -0.05941131
     140     dih      23      14      15       7    96.18252466    -0.06297231
     141     dih       3       4      25       5    -7.97551145    -0.00099448
     142     dih       3       4      25      27   104.64007530    -0.01103676
     143     dih       3       4      25      26   225.60998572     0.00623078
     144     dih       3       4      25      28   -16.54345416    -0.00184279
     145     dih      24       4      25       5   177.59829017     0.00004664
     146     dih      24       4      25      27   -69.78612309    -0.00999564
     147     dih      24       4      25      26    51.18378733     0.00727190
     148     dih      24       4      25      28   169.03034746    -0.00080167
     149     dih       5       4      25      27   112.61558674    -0.01004228
     150     dih       5       4      25      26   233.58549716     0.00722526
     151     dih       5       4      25      28    -8.56794271    -0.00084831
     152     dih      10       7      15      14    29.56740086    -0.01985020
     153     dih      10       8      21      13   -35.96637152     0.01074404
     154     bnd       2      10       0       0     2.49631924    -0.88802030
 
----------------------------------------------------------------------
Geometry Convergence after Step   3       (Hartree/Angstrom,Angstrom)
----------------------------------------------------------------------
current energy                               -5.38616402 Hartree
energy change                      -0.01627936     0.00028000    F
constrained gradient max            0.09352043     0.00100000    F
constrained gradient rms            0.02574481     0.00066667    F
gradient max                        0.09352043
gradient rms                        0.02574481
cart. step max                      0.06483360     0.01000000    F
cart. step rms                      0.02295679     0.00666667    F
 
 
--------
Geometry
--------
Formula: C8H15AlF3O
Atoms
  Index Symbol   x (angstrom)   y (angstrom)   z (angstrom)
      1      H     0.22279265    -1.93138625    -0.17920348
      2      C    -0.94814418    -0.20531958     0.31356372
      3      C     0.20589483    -0.85481901    -0.02037234
      4      C     1.46871832    -0.16327020    -0.17517519
      5      O     2.53753566    -0.70982674    -0.47806941
      6      H    -0.94256299     0.88019911     0.36934095
      7      H    -1.05617505    -1.14298280     2.94120512
      8      H    -1.90321043     0.49269395     2.78832153
      9      H    -0.02649293     0.42806236     2.91861238
     10      C    -0.97386008    -0.07402966     2.76696431
     11      C    -2.75550877    -1.14518251    -1.14261456
     12      C    -2.32734264    -0.88210384     0.31170869
     13      C    -3.31543508     0.08054694     0.98789548
     14      C    -2.23677438    -2.20613206     1.08700108
     15      H    -1.84491054    -2.00940609     2.08838799
     16      H    -3.74275494    -1.61301090    -1.16487405
     17      H    -2.04868430    -1.81016095    -1.64299332
     18      H    -2.80609733    -0.21230334    -1.70871603
     19      H    -4.31291421    -0.35769262     1.06364119
     20      H    -3.39037033     1.01304860     0.42341444
     21      H    -2.93943102     0.31980602     1.98738397
     22      H    -3.21682774    -2.68237823     1.16290227
     23      H    -1.55780892    -2.90334796     0.59230651
     24      H     1.43868807     0.90751114    -0.00867647
     25     Al     3.91225631     0.35610884    -0.67965137
     26      F     3.75057702     1.11868650     0.76904717
     27      F     3.33977842     1.12094714    -2.01742466
     28      F     5.02822042    -0.83631912    -0.84244987
 
Total System Charge             0.00000
 
 *** GOStep4 ***

 Energy gradients wrt nuclear displacements
 ==========================================

     Atom      Cartesian (a.u./angstrom)
                 X         Y         Z
 ----------------------------------------
     1 H    -0.001650 -0.002036 -0.000872
     2 C     0.016428  0.009198 -0.008698
     3 C    -0.039753  0.001382  0.008088
     4 C     0.080308  0.013526 -0.012668
     5 O     0.063595  0.073358 -0.005679
     6 H    -0.002395 -0.003732  0.003879
     7 H    -0.018025 -0.023036 -0.015468
     8 H    -0.039613 -0.001708 -0.024960
     9 H    -0.001320 -0.000035 -0.001859
    10 C    -0.020529 -0.010528 -0.016312
    11 C    -0.002341 -0.001294  0.005128
    12 C    -0.013079 -0.010297 -0.009121
    13 C     0.010778  0.002375  0.006327
    14 C     0.005525  0.007848  0.004810
    15 H     0.020438  0.025073  0.019102
    16 H     0.002177  0.000350 -0.000102
    17 H     0.000474  0.000996  0.002476
    18 H     0.000904 -0.000984  0.003224
    19 H     0.002014 -0.000091 -0.000277
    20 H     0.002786 -0.002697  0.001262
    21 H     0.043682  0.003048  0.028230
    22 H     0.001540  0.001173 -0.000171
    23 H     0.002486  0.004283 -0.000618
    24 H    -0.001229 -0.020057 -0.002642
    25 Al   -0.043939  0.000867  0.010206
    26 F    -0.016920 -0.039831 -0.037284
    27 F    -0.004214 -0.038456  0.037462
    28 F    -0.048125  0.011307  0.006541
 ----------------------------------------
 Mulliken charges used for AMS results%charges...
Hessian eigenvector     1(    -0.027) has overlap with TSRC:    0.62688E+00
Hessian eigenvector     1 has the largest overlap with TSRC:  0.62688
           Primitive Internal Coordinates (atoms in internal order)
-------------------------------------------------------------------------------
    index    type      i       j       k       l   value(A,deg)     Max Ovl Vect
-------------------------------------------------------------------------------
       1     bnd       1       3       0       0     1.08835191     0.00010997
       2     bnd       2       6       0       0     1.08696508    -0.00122019
       3     bnd       2      12       0       0     1.53630360     0.00778482
       4     bnd       2       3       0       0     1.36571184    -0.01298862
       5     bnd       3       4       0       0     1.44807696     0.01561837
       6     bnd       4      24       0       0     1.08406472    -0.00283681
       7     bnd       4       5       0       0     1.23807894    -0.01397770
       8     bnd       5      25       0       0     1.75120268    -0.02279167
       9     bnd       8      10       0       0     1.08872579     0.00735657
      10     bnd       7      10       0       0     1.08618434     0.00445011
      11     bnd       9      10       0       0     1.08286567     0.00131430
      12     bnd      11      17       0       0     1.09186815    -0.00046802
      13     bnd      11      12       0       0     1.53869839    -0.00383802
      14     bnd      12      14       0       0     1.53698784    -0.00035169
      15     bnd      12      13       0       0     1.53631109    -0.00161983
      16     bnd      13      19       0       0     1.09213366     0.00110132
      17     bnd      13      21       0       0     1.09434967     0.01556345
      18     bnd      14      22       0       0     1.09228018     0.00092096
      19     bnd      14      15       0       0     1.09317616     0.01171797
      20     bnd      11      16       0       0     1.09270943    -0.00055997
      21     bnd      11      18       0       0     1.09237980    -0.00044103
      22     bnd      13      20       0       0     1.09261772    -0.00029044
      23     bnd      14      23       0       0     1.09170821    -0.00153703
      24     bnd       4      25       0       0     2.54855424    -0.03310874
      25     bnd      25      27       0       0     1.64388136    -0.00712091
      26     bnd      25      26       0       0     1.64511165    -0.00799132
      27     bnd      25      28       0       0     1.64126893    -0.00577999
      28     bnd       7      15       0       0     1.44916874    -0.03932118
      29     bnd       8      21       0       0     1.32103910    -0.04625307
      30     ang       6       2      12       0   116.39858270    -0.00816880
      31     ang       6       2       3       0   118.89141849    -0.00089170
      32     ang      12       2       3       0   123.28455456     0.00963625
      33     ang       1       3       2       0   121.28059145     0.00247104
      34     ang       1       3       4       0   116.31153544     0.00008364
      35     ang       2       3       4       0   122.40687212    -0.00253848
      36     ang       3       4      24       0   115.53963274    -0.00677089
      37     ang       3       4       5       0   124.62316886     0.00037054
      38     ang       3       4      25       0   162.67288433     0.00074457
      39     ang      24       4       5       0   119.83707357     0.00640100
      40     ang      24       4      25       0    81.70126377     0.00606757
      41     ang       5       4      25       0    38.17046513     0.00032171
      42     ang       4       5      25       0   115.92195810    -0.00103971
      43     ang      10       7      15       0   122.35988120     0.04721455
      44     ang      10       8      21       0   126.12540639     0.05574047
      45     ang       8      10       7       0   116.38776685     0.02752222
      46     ang       8      10       9       0   120.17849811     0.01427752
      47     ang       7      10       9       0   120.00991076     0.01347001
      48     ang      17      11      12       0   110.92468234     0.00022074
      49     ang      17      11      16       0   108.34821374    -0.00056474
      50     ang      17      11      18       0   108.21536863     0.00033610
      51     ang      12      11      16       0   110.11238270     0.00095813
      52     ang      12      11      18       0   110.89684916    -0.00052776
      53     ang      16      11      18       0   108.25372724    -0.00044391
      54     ang       2      12      11       0   109.04251340    -0.02964311
      55     ang       2      12      14       0   109.02500055     0.03020753
      56     ang       2      12      13       0   107.50703510     0.00954578
      57     ang      11      12      14       0   110.23520891     0.01588423
      58     ang      11      12      13       0   110.13085835     0.01361507
      59     ang      14      12      13       0   110.83408757    -0.03920756
      60     ang      12      13      19       0   111.50042262    -0.00479691
      61     ang      12      13      21       0   108.54186951     0.00628215
      62     ang      12      13      20       0   110.57885770     0.00130334
      63     ang      19      13      21       0   109.76691299    -0.02192953
      64     ang      19      13      20       0   108.40053880    -0.00077815
      65     ang      21      13      20       0   107.98817763     0.01991811
      66     ang      12      14      22       0   110.96386749    -0.00424427
      67     ang      12      14      15       0   109.15761657     0.00519641
      68     ang      12      14      23       0   110.99168271     0.00347235
      69     ang      22      14      15       0   109.66029360    -0.02488355
      70     ang      22      14      23       0   108.12312256    -0.00226175
      71     ang      15      14      23       0   107.88338775     0.02267760
      72     ang      14      15       7       0   147.32720173     0.15714295
      73     ang      13      21       8       0   148.41456542     0.16522101
      74     ang       5      25      27       0    95.94054203     0.01673738
      75     ang       5      25      26       0    95.94850387     0.02329862
      76     ang       5      25      28       0    95.90919879     0.00294024
      77     ang       4      25      27       0    85.52675404     0.01388430
      78     ang       4      25      26       0    79.97516798     0.02154716
      79     ang       4      25      28       0   121.56696273     0.00367062
      80     ang      27      25      26       0   117.82257653    -0.00223310
      81     ang      27      25      28       0   119.61004652     0.00239722
      82     ang      26      25      28       0   119.40288229    -0.00016412
      83     dih       6       2      12      11    95.12349528     0.00219557
      84     dih       6       2      12      14   215.52492615     0.02160703
      85     dih       6       2      12      13   -24.25967009    -0.00256967
      86     dih       3       2      12      11   -71.07129035    -0.00100763
      87     dih       3       2      12      14    49.33014052     0.01840383
      88     dih       3       2      12      13   169.54554428    -0.00577287
      89     dih       6       2       3       1   185.82676014    -0.00644486
      90     dih       6       2       3       4     6.20425646    -0.00859204
      91     dih      12       2       3       1    -8.30327285    -0.00386940
      92     dih      12       2       3       4   172.07422347    -0.00601658
      93     dih       1       3       4      24   180.33287154    -0.00020292
      94     dih       1       3       4       5     0.46214732    -0.00051307
      95     dih       1       3       4      25     6.36767025    -0.00163789
      96     dih       2       3       4      24    -0.02703728     0.00186968
      97     dih       2       3       4       5   180.10223851     0.00155953
      98     dih       2       3       4      25   186.00776144     0.00043470
      99     dih       3       4       5      25   177.15789500     0.00067642
     100     dih      24       4       5      25    -2.70763644     0.00037025
     101     dih       4       5      25      27   -66.81556526     0.00280620
     102     dih       4       5      25      26    52.04224729     0.00057309
[...]
    20     H      -0.000352  -0.445947   0.090622
    21     H       0.017877   0.006396   0.049329
    22     H       0.023975   0.008833   0.000717
    23     H       0.001426  -0.002929  -0.004160
    24     H      -0.000105   0.000464   0.000087
    25    Al      -0.000006  -0.000004   0.000008
    26     F       0.000001   0.000002  -0.000003
    27     F      -0.000000   0.000001  -0.000005
    28     F       0.000002   0.000000  -0.000002
 
 Mode:    76      Frequency (cm-1):     3079.1536     Intensity (km/mol):       16.1927
 Index  Atom      ---- Displacements (x/y/z) ----
     1     H      -0.000267   0.014409  -0.000462
     2     C       0.000427  -0.007820   0.000766
     3     C      -0.000303  -0.001239   0.000105
     4     C       0.000004  -0.000165  -0.000006
     5     O       0.000043   0.000002  -0.000010
     6     H      -0.004632   0.090869  -0.007922
     7     H      -0.001624  -0.009696   0.004348
     8     H      -0.011324   0.010487   0.000484
     9     H       0.013460   0.003592  -0.001557
    10     C      -0.000076  -0.000440  -0.000370
    11     C       0.034148   0.042749  -0.007044
    12     C       0.000540   0.001352  -0.000278
    13     C       0.033770   0.044662   0.001097
    14     C      -0.046985  -0.000234  -0.008392
    15     H       0.057446  -0.029023   0.211048
    16     H      -0.394971  -0.162758  -0.057754
    17     H      -0.031904   0.039333   0.032853
    18     H       0.017698  -0.388741   0.110388
    19     H      -0.414099  -0.155171  -0.111551
    20     H       0.001098  -0.388219   0.078551
    21     H       0.010375   0.007587   0.018764
    22     H       0.376576   0.147406   0.033522
    23     H       0.125334  -0.120592  -0.142423
    24     H      -0.000068   0.001508  -0.000006
    25    Al      -0.000013   0.000003  -0.000002
    26     F       0.000004  -0.000002   0.000001
    27     F       0.000005  -0.000002  -0.000001
    28     F       0.000005  -0.000004   0.000003
 
 Mode:    77      Frequency (cm-1):     3083.8433     Intensity (km/mol):       27.9256
 Index  Atom      ---- Displacements (x/y/z) ----
     1     H      -0.001733   0.025975  -0.000397
     2     C      -0.000363   0.007485  -0.000674
     3     C       0.000514  -0.002321  -0.000081
     4     C       0.000254   0.000011  -0.000033
     5     O      -0.000112   0.000012   0.000025
     6     H       0.004218  -0.081682   0.007609
     7     H      -0.000293  -0.000506   0.000302
     8     H      -0.003456   0.003505   0.000748
     9     H       0.002090   0.000541  -0.000466
    10     C       0.000193  -0.000298   0.000026
    11     C      -0.001625  -0.036115  -0.003294
    12     C      -0.001644  -0.001411   0.000091
    13     C      -0.015962  -0.031315   0.010947
    14     C      -0.075346   0.000117  -0.006274
    15     H       0.067470  -0.035300   0.263045
    16     H       0.149822   0.054529   0.022216
    17     H      -0.119946   0.080730   0.103269
    18     H      -0.005953   0.297373  -0.086867
    19     H       0.217833   0.077350   0.060750
    20     H       0.002558   0.286068  -0.054211
    21     H      -0.026498   0.012811  -0.136645
    22     H       0.616795   0.246371   0.055817
    23     H       0.218111  -0.206881  -0.243998
    24     H      -0.000473  -0.000972   0.000072
    25    Al       0.000032   0.000010  -0.000011
    26     F      -0.000012  -0.000007   0.000002
    27     F      -0.000008  -0.000001   0.000011
    28     F      -0.000013   0.000001  -0.000001
 
 Mode:    78      Frequency (cm-1):     3087.9631     Intensity (km/mol):        2.2108
 Index  Atom      ---- Displacements (x/y/z) ----
     1     H       0.002626  -0.030924  -0.000103
     2     C       0.000107  -0.000281   0.000003
     3     C      -0.000118   0.002773  -0.000009
     4     C      -0.000098   0.000032   0.000006
     5     O      -0.000001  -0.000003   0.000006
     6     H       0.000225   0.003109  -0.000103
     7     H       0.000402   0.001273  -0.000462
     8     H      -0.006776   0.006566   0.001017
     9     H       0.003491   0.000439  -0.000508
    10     C       0.000381  -0.000718   0.000040
    11     C      -0.030981   0.021052   0.012140
    12     C      -0.000107  -0.000271  -0.000589
    13     C       0.011251  -0.013353   0.030671
    14     C       0.004003  -0.019311  -0.073754
    15     H       0.192727  -0.082518   0.571920
    16     H       0.140426   0.067751   0.023033
    17     H       0.234115  -0.175209  -0.207649
    18     H      -0.004355  -0.142288   0.043519
    19     H      -0.092203  -0.041038  -0.018552
    20     H       0.006521   0.154406  -0.023714
    21     H      -0.050710   0.046240  -0.322253
    22     H       0.088382   0.028681  -0.011056
    23     H      -0.329785   0.283373   0.319798
    24     H       0.000175   0.000159  -0.000034
    25    Al       0.000003   0.000001  -0.000001
    26     F       0.000001  -0.000001   0.000000
    27     F      -0.000001   0.000000   0.000001
    28     F      -0.000001   0.000000   0.000001
 
 Mode:    79      Frequency (cm-1):     3091.9366     Intensity (km/mol):       22.7072
 Index  Atom      ---- Displacements (x/y/z) ----
     1     H       0.001930  -0.026401  -0.000203
     2     C      -0.000275   0.007928  -0.000533
     3     C       0.000029   0.002364   0.000132
     4     C      -0.000102   0.000325   0.000030
     5     O      -0.000005  -0.000014   0.000003
     6     H       0.003042  -0.093581   0.007836
     7     H      -0.000935  -0.005417   0.002590
     8     H      -0.007822   0.007706   0.000918
     9     H       0.012980   0.003859  -0.001387
    10     C      -0.000438  -0.000622  -0.000194
    11     C       0.060533  -0.041523  -0.024291
    12     C       0.001246  -0.000588  -0.001170
    13     C      -0.002618   0.006211  -0.010524
    14     C       0.019805  -0.011835  -0.042449
    15     H       0.097394  -0.040908   0.278063
    16     H      -0.263885  -0.130302  -0.043633
    17     H      -0.469380   0.349259   0.419233
    18     H       0.007897   0.276249  -0.084173
    19     H       0.009243   0.006009   0.001280
    20     H      -0.001626  -0.061319   0.010796
    21     H       0.018021  -0.015458   0.118455
    22     H      -0.086545  -0.039109  -0.019289
    23     H      -0.251178   0.222238   0.250187
    24     H       0.000060  -0.003260  -0.000091
    25    Al      -0.000011  -0.000003  -0.000006
    26     F       0.000006   0.000004   0.000003
    27     F       0.000006   0.000002   0.000002
    28     F       0.000005  -0.000000   0.000003
 
 Mode:    80      Frequency (cm-1):     3093.0711     Intensity (km/mol):       27.2312
 Index  Atom      ---- Displacements (x/y/z) ----
     1     H      -0.001211   0.012873   0.000165
     2     C      -0.000725   0.010414  -0.000764
     3     C       0.000321  -0.001116  -0.000121
     4     C       0.000017   0.000330   0.000010
     5     O       0.000033  -0.000016  -0.000008
     6     H       0.004052  -0.122123   0.011056
     7     H       0.007070   0.034792  -0.015139
     8     H       0.025792  -0.024967  -0.001838
     9     H      -0.048217  -0.015026   0.005714
    10     C       0.001660   0.000554   0.000955
    11     C       0.020223  -0.009179  -0.007600
    12     C       0.001230  -0.000205   0.001313
    13     C       0.037139  -0.017008   0.072318
    14     C       0.012782   0.005786   0.025561
    15     H      -0.079791   0.036812  -0.246339
    16     H      -0.113225  -0.053317  -0.019848
    17     H      -0.137414   0.103382   0.122248
    18     H       0.004063   0.058983  -0.019286
    19     H      -0.349281  -0.145580  -0.076981
    20     H       0.013944   0.238397  -0.031400
    21     H      -0.115181   0.108609  -0.757729
    22     H      -0.138539  -0.053515  -0.005716
    23     H       0.062852  -0.050694  -0.056390
    24     H      -0.000232  -0.004177   0.000029
    25    Al      -0.000022  -0.000009   0.000012
    26     F       0.000007   0.000007  -0.000004
    27     F       0.000005   0.000002  -0.000009
    28     F       0.000007   0.000000  -0.000002
 
 Mode:    81      Frequency (cm-1):     3098.4310     Intensity (km/mol):        8.9364
 Index  Atom      ---- Displacements (x/y/z) ----
     1     H      -0.004474   0.063553   0.000180
     2     C      -0.004125   0.082465  -0.007122
     3     C       0.002920  -0.005997  -0.000703
     4     C       0.000901   0.001864  -0.000175
     5     O      -0.000394  -0.000004   0.000100
     6     H       0.027531  -0.968256   0.087794
     7     H       0.005600   0.026981  -0.011451
     8     H       0.009675  -0.009905  -0.000218
     9     H      -0.021587  -0.006850   0.002197
    10     C       0.000495  -0.001050   0.001344
    11     C      -0.004642   0.013469   0.001486
    12     C      -0.001317   0.001086  -0.000516
    13     C      -0.001658   0.007716  -0.008306
    14     C      -0.001356  -0.001383   0.000543
    15     H      -0.001985   0.000455  -0.005035
    16     H      -0.007064  -0.000345   0.000999
    17     H       0.060919  -0.042846  -0.053809
    18     H       0.002714  -0.119823   0.036595
    19     H       0.009776   0.004211  -0.000225
    20     H       0.000103  -0.089394   0.014358
    21     H       0.013841  -0.011256   0.085481
    22     H       0.017737   0.007734   0.001585
    23     H      -0.000164  -0.000022  -0.000263
    24     H      -0.002036  -0.023369   0.000420
    25    Al       0.000006   0.000025  -0.000004
    26     F       0.000009  -0.000010  -0.000003
    27     F       0.000000  -0.000005   0.000007
    28     F      -0.000005  -0.000004  -0.000001
 
 Mode:    82      Frequency (cm-1):     3156.1268     Intensity (km/mol):        1.0831
 Index  Atom      ---- Displacements (x/y/z) ----
     1     H       0.084595  -0.988670  -0.009045
     2     C       0.002663   0.003980  -0.001094
     3     C      -0.008269   0.085121   0.000955
     4     C      -0.002803   0.001201   0.000687
     5     O       0.000389  -0.000144  -0.000103
     6     H       0.004723  -0.064564   0.005319
     7     H       0.000375   0.002551  -0.000672
     8     H      -0.001375   0.001222   0.000366
     9     H      -0.000510  -0.000123   0.000128
    10     C       0.000121  -0.000359  -0.000109
    11     C      -0.000339   0.000667   0.000217
    12     C       0.000014   0.000464   0.000191
    13     C       0.000195   0.000355  -0.000047
    14     C      -0.002892   0.001778   0.003110
    15     H      -0.003544   0.001465  -0.007413
    16     H      -0.000888  -0.000229  -0.000230
    17     H       0.004354  -0.003214  -0.004345
    18     H       0.000264  -0.004776   0.001401
    19     H      -0.003886  -0.001265  -0.000721
    20     H       0.000056  -0.003908   0.000696
    21     H       0.000181  -0.000011  -0.000075
    22     H       0.009872   0.003323   0.002042
    23     H       0.033805  -0.027434  -0.032221
    24     H      -0.000182  -0.021673   0.000031
    25    Al       0.000025   0.000015  -0.000006
    26     F       0.000006  -0.000023  -0.000005
    27     F      -0.000004  -0.000005   0.000002
    28     F      -0.000003  -0.000004   0.000002
 
 Mode:    83      Frequency (cm-1):     3246.2210     Intensity (km/mol):        0.5594
 Index  Atom      ---- Displacements (x/y/z) ----
     1     H      -0.000088   0.001084   0.000048
     2     C      -0.000031  -0.000735   0.000086
     3     C      -0.000219  -0.000042  -0.000088
     4     C      -0.000052   0.000217  -0.000028
     5     O       0.000012  -0.000001   0.000000
     6     H      -0.000015   0.007218  -0.000275
     7     H       0.004640  -0.068878   0.028119
     8     H      -0.450944   0.464737   0.049053
     9     H      -0.710870  -0.223571   0.085039
    10     C       0.097406  -0.014413  -0.013512
    11     C       0.000035  -0.000049   0.000016
    12     C       0.000023  -0.000029  -0.000201
    13     C      -0.000181   0.000079  -0.001111
    14     C       0.000014   0.000005  -0.000151
    15     H       0.000601  -0.000272   0.001492
    16     H      -0.000894  -0.000309  -0.000424
    17     H      -0.000411   0.000335   0.000533
    18     H       0.000035   0.000251  -0.000058
    19     H       0.001947   0.001030   0.001211
    20     H      -0.000032   0.001291  -0.000317
    21     H       0.001706  -0.001942   0.013821
    22     H      -0.000341  -0.000209  -0.000063
    23     H      -0.000519   0.000554   0.000602
    24     H       0.000148  -0.003044  -0.000344
    25    Al      -0.000005  -0.000008  -0.000005
    26     F       0.000001   0.000004   0.000006
    27     F       0.000002   0.000002   0.000001
    28     F       0.000001   0.000003   0.000002
 
 Mode:    84      Frequency (cm-1):     3248.2796     Intensity (km/mol):        0.7640
 Index  Atom      ---- Displacements (x/y/z) ----
     1     H       0.000358  -0.002453  -0.000016
     2     C      -0.000139   0.000814  -0.000022
     3     C      -0.000038   0.000087   0.000020
     4     C       0.000025   0.000218  -0.000051
     5     O       0.000005  -0.000018   0.000003
     6     H       0.000540  -0.010802   0.002131
     7     H      -0.140163  -0.723548   0.338465
     8     H       0.341425  -0.323041  -0.042098
     9     H      -0.319253  -0.079868   0.033601
    10     C       0.010066   0.094919  -0.027767
    11     C      -0.000024   0.000018  -0.000004
    12     C      -0.000006   0.000010  -0.000091
    13     C      -0.000007   0.000195  -0.000150
    14     C      -0.000261   0.000030  -0.000839
    15     H       0.003329  -0.001237   0.010063
    16     H      -0.000024  -0.000006  -0.000098
    17     H      -0.000042   0.000037   0.000104
    18     H       0.000041  -0.000383   0.000146
    19     H      -0.000698  -0.000496  -0.000288
    20     H       0.000091  -0.003168   0.000818
    21     H      -0.000291  -0.000173   0.000487
    22     H       0.001121   0.000320   0.000062
    23     H      -0.000944   0.000789   0.000873
    24     H      -0.000047  -0.002213  -0.000084
    25    Al      -0.000003   0.000006  -0.000005
    26     F       0.000003  -0.000004   0.000001
    27     F       0.000001  -0.000001   0.000000
    28     F       0.000000  -0.000002   0.000003

PES point character: Geometry corresponds to a transition state.
                     (Hint: Very small negative frequencies do not count towards being a
                     transition state, as they usually indicate noise on a very flat PES. See
                     the PESPointCharacter%NegativeFrequenciesTolerance keyword documentation.)




 ============================
 Statistical Thermal Analysis  ***  ideal gas assumed  ***
 ============================
  
 Pressure:                  1.000000 atm.
 Temperature:             298.150000 K



 Moments of Inertia [amu*bohr^2] and principal axis
 ==================================================

        1387.8765       7740.5575       8121.2960
 ------------------------------------------------
          -0.9640          0.1430          0.2241
          -0.1629          0.3483         -0.9231
           0.2101          0.9264          0.3125


 The rotational contribution to the molecular entropy includes
 a term, dependent on the symmetry number sigma. The results 
 reported below were computed using sigma = 1, determined from
 the point group symmetry of the input geometry (NOSYM). 
 If this is not the correct symmetry, try symmetrizing the molecule before
 running the calculation (note: linear molecules should be aligned along one
 of the Cartesian axes).
 Contributions from frequencies below 20 1/cm are not included in vibrational sums.
 Their contributions, if any, are reported separately.


     Temp                                                        Transl      Rotat     Vibrat     Total
     ----                                                        ------      -----     ------     -----

     298.15   Entropy (cal/mol-K):                               41.945     32.834     58.019    132.798
              Nuclear Internal Energy (kcal/mol):                 0.889      0.889    142.901    144.678
              Constant Volume Heat Capacity (cal/mol-K):          2.981      2.981     55.168     61.129
          (c) Constant Volume Heat Capacity (cal/mol-K):          2.981      2.981     51.495     57.457

 Contributions from frequencies below 20 1/cm
 Frequency (1/cm):                                   11.645
 Entropy (cal/mol-K):                                 7.709
 Nuclear Internal Energy (kcal/mol):                  0.593
 Constant Volume Heat Capacity (cal/mol-K):           1.987

       Summary of energy terms
                                                   hartree              eV         kcal/mol           kJ/mol
                                      --------------------     -----------       ----------      -----------
      Energy from Engine:               -5.458202403712288       -148.5252         -3425.07        -14330.51
      Nuclear Internal Energy:           0.230559139703714          6.2738           144.68           605.33
  (c) Nuclear Internal Energy:           0.228638378757426          6.2216           143.47           600.29
      Internal Energy U:                -5.227643264008574       -142.2514         -3280.40        -13725.18
      pV/n = RT:                         0.000944186013486          0.0257             0.59             2.48
      Enthalpy H:                       -5.226699077995088       -142.2257         -3279.80        -13722.70
      -T*S:                             -0.063096371610271         -1.7169           -39.59          -165.66
  (c) -T*S:                             -0.063119433389091         -1.7176           -39.61          -165.72
      Gibbs free energy:                -5.289795449605359       -143.9427         -3319.40        -13888.36
 
 
 
  (c) The properties marked with this symbol have been corrected using 'low vibrational frequency free rotor
      interpolation corrections'. For those terms all positive frequencies are used (also ones below 20 1/cm),
      but the contribution to the partition function of small vibrational frequencies is modified as described
      in the following paper:
      S. Grimme, 'Supramolecular Binding Thermodynamics by Dispersion-Corrected Density Functional Theory'
      (Chem. Eur. J. 2012, 18, 9955-9964)
      Configuration: Dampener Frequency          :   100.000 1/cm
                     Dampener Alpha              :     4.000
                     Averaging Moment of Inertia : 1.000E-44 kg m2

--------------
Atomic charges
--------------
  Index   Atom    Charge
      1      H   -0.2033
      2      C    0.2740
      3      C    0.2337
      4      C    0.7189
      5      O   -0.5963
      6      H   -0.1745
      7      H   -0.1498
      8      H   -0.1726
      9      H   -0.1657
     10      C    0.5950
     11      C    0.7263
     12      C   -0.0497
     13      C    0.7688
     14      C    0.7381
     15      H   -0.2372
     16      H   -0.2224
     17      H   -0.2201
     18      H   -0.2349
     19      H   -0.2406
     20      H   -0.2475
     21      H   -0.2369
     22      H   -0.2381
     23      H   -0.2408
     24      H   -0.2311
     25     Al    1.7148
     26      F   -0.6459
     27      F   -0.6326
     28      F   -0.6297


Dipole moment vector    (Debye):   -11.96593935   -1.44275537    3.52510809
              magnitude (Debye):    12.55753299


Final PES point is a transition state. Transition state search successful!


AMS application finished. Exiting.
NORMAL TERMINATION
     Total cpu time:  168230.51
  Total system time:     720.60
 Total elapsed time:  339761.89
 WARNING: total elapsed time is much higher than the (CPU+system) time. 
 Make sure the machine is not oversubscribed and has enough memory, SCM_TMPDIR p
 oints to a fast file system, and the network is fast enough.
