

 Parallel Execution: Process Information
 ==============================================================================
 Rank   Node Name                              NodeID   MyNodeRank  NodeMaster
    0   node115                                   0          0          0
    1   node115                                   0          1         -1
    2   node115                                   0          2         -1
    3   node115                                   0          3         -1
 ==============================================================================


May use up to 122928MB of RAM as shared memory on node 0

 *******************************************************************************
 *                                                                             *
 *  --------------------------------                                           *
 *   Amsterdam Modeling Suite (AMS)              2021.102                      *
 *  --------------------------------                                           *
 *                                               r95042 2021-06-07             *
 *                                                                             *
 *                                                                             *
 *                              =================                              *
 *                              |               |                              *
 *                              |     A M S     |                              *
 *                              |               |                              *
 *                              =================                              *
 *                                                                             *
 *                                                                             *
 *   Online information and documentation:  https://www.scm.com/support/       *
 *   E-mail:  support@scm.com   info@scm.com                                   *
 *                                                                             *
 *   Scientific publications using AMS results must be properly referenced     *
 *   See the User Manuals (or the web site) for recommended citations          *
 *   The terms and conditions of the End User License Agreement apply to       *
 *   the use of AMS, https://www.scm.com/license-terms/                        *
 *                                                                             *
 **********************  x86_64_linux_intel / intelmpi  ************************
 
 Licensed to: VU/FEW (+ SARA) / ALGEMEEN / Amsterdam / THE NETHERLANDS
 SCM User ID: u7668
  
 AMS 2021.102  RunTime: Jan24-2022 04:17:52  ShM Nodes: 1  Procs: 4

 AMS jobname: 20.achiral_catalyst.H_H_ZnCl2.P2
 AMS jobid  : 802065525

 Start   directory: /scistor/tc/yhk800/MasterProject/calculations/achiral_catalyst_H_H_ZnCl2/20.achiral_catalyst.H_H_ZnCl2.P2/
 Results directory: /scistor/tc/yhk800/MasterProject/calculations/achiral_catalyst_H_H_ZnCl2/20.achiral_catalyst.H_H_ZnCl2.P2/
 Scratch directory: /scratch/3977/amstmp_20.achiral_catalyst.H_H_ZnCl2.P2_kid0.802065525/


 Communication costs MPI_COMM_WORLD:      1.693 usec per message,   0.0058 usec per 8-byte item
 Communication costs for intra-node:     -0.011 usec per message,   0.0109 usec per 8-byte item

 RNG seed: -578708933 115006386 1761489809 -90056994 -249513686 1156569847 -2106692259 -215809725



                      ************************************************************************
                      *  ADF 2021.102  RunTime: Jan24-2022 04:17:53  ShM Nodes: 1  Procs: 4  *
                      ************************************************************************
  
       ***************************
       *  GEOMETRY OPTIMIZATION  *
       ***************************

Optimization Method                    Quasi Newton
Optimization Coordinates               Delocalized Coordinates
Optimize lattice                       F
 
 ------------------------------------------------------
 Convergence criteria (Hartree,Angstrom)
 ------------------------------------------------------
 Maximum gradient               0.001000000000
 Maximum rms gradient           0.000666666667
 Maximum step allowed           0.010000000000
 Maximum rms step allowed       0.006666666667
 Maximum energy change allowe   0.000160000000
 Maximum stress energy allowe   0.000500000000
 
Initial model Hessian                  Automatic Hessian
 
------------------------------------
Quasi-Newton Optimizer Parameters
------------------------------------
Hessian Update Method                  BFGS
Maximum number of steps                  250
First GDIIS cycle                          0
Maximum GDIIS vectors                      0
Trust radius (bohr)                        0.200000
Trust radius varies                        T
Constraints converged at all steps         T
Use projector                              T
 
 Rigid motions settings for: old optimizer
 Atomic rotations (x,y,z):     T T T
 Atomic translations (x,y,z):  T T T
 Tolerance:                   1.000000000000000E-006
 
--------
Geometry
--------
Formula: C4H8Cl2OSn
Atoms
  Index Symbol   x (angstrom)   y (angstrom)   z (angstrom)
      1      H     0.83345051    -1.35209109     1.20167740
      2      C    -0.83092072     0.03538951     0.93442801
      3      C     0.35139657    -0.78131674     0.40158875
      4      C     1.39689343     0.07225735    -0.26739819
      5      O     1.30011208     1.25282167    -0.44784372
      6      H    -1.19392452     0.69150371     0.13740680
      7      H     0.00939092    -1.50634328    -0.34451216
      8      H    -0.05768346     0.24518214     2.94899716
      9      C    -0.44138171     0.87842746     2.14736270
     10      H     0.32560687     1.60312788     1.87585802
     11      H    -1.31355949     1.41759590     2.51749654
     12      H    -1.62209815    -0.63358328     1.20166141
     13      H     2.25449427    -0.48063876    -0.58946446
     14     Sn     1.12240586     4.51122066    -0.93902243
     15     Cl     2.89454201     6.07107783    -0.62554942
     16     Cl    -0.52936496     5.91888247    -1.91982647
 
Total System Charge             0.00000
 
 
----------------
ADF Engine Input
----------------
 
 NumericalQuality VeryGood
 SCF
 Converge 1.0e-6
 Iterations 99
 End
 SYMMETRY NOSYM
 XC
 GGA OLYP
 End
 basis
 core None
 type TZ2P
 End
 

 Title: *** (NO TITLE) ***

Bad geometry: added dihedral    13    4   14   15
 Using automatic Hessian for delocalized coordinates.
 *** GOStep1 ***

 Energy gradients wrt nuclear displacements
 ==========================================

     Atom      Cartesian (a.u./angstrom)
                 X         Y         Z
 ----------------------------------------
     1 H    -0.004096  0.006710 -0.000690
     2 C    -0.028401 -0.011642  0.002213
     3 C     0.018322 -0.020346 -0.001319
     4 C     0.035861  0.031595 -0.022806
     5 O    -0.004601 -0.044448  0.014583
     6 H     0.003440  0.001765  0.000849
     7 H    -0.003398  0.008186  0.004255
     8 H    -0.000863  0.000715 -0.006399
     9 C     0.005889 -0.000265  0.004903
    10 H    -0.000697 -0.002897 -0.004939
    11 H     0.002022 -0.004321 -0.005882
    12 H     0.025409  0.019254 -0.005921
    13 H    -0.049140  0.023040  0.019908
    14 Sn    0.000731  0.012206 -0.004032
    15 Cl   -0.010516 -0.009947 -0.001377
    16 Cl    0.010037 -0.009605  0.006654
 ----------------------------------------
 Mulliken charges used for AMS results%charges...
 
----------------------------------------------------------------------
Geometry Convergence after Step   1       (Hartree/Angstrom,Angstrom)
----------------------------------------------------------------------
current energy                               -2.89768669 Hartree
energy change                      -2.89768669     0.00016000    F
constrained gradient max            0.04914426     0.00100000    F
constrained gradient rms            0.01586815     0.00066667    F
gradient max                        0.04914426
gradient rms                        0.01586815
cart. step max                      0.05596849     0.01000000    F
cart. step rms                      0.02190509     0.00666667    F
 
 
--------
Geometry
--------
Formula: C4H8Cl2OSn
Atoms
  Index Symbol   x (angstrom)   y (angstrom)   z (angstrom)
      1      H     0.84249972    -1.35288217     1.18027439
      2      C    -0.83133062     0.03772902     0.94866636
      3      C     0.35136496    -0.76876599     0.39106746
      4      C     1.42037753     0.05141185    -0.29821045
      5      O     1.35365833     1.24930287    -0.50381221
      6      H    -1.20661245     0.68893136     0.15277901
      7      H     0.00945857    -1.50164925    -0.35323538
      8      H    -0.08545567     0.26190812     2.98242225
      9      C    -0.46433463     0.88921579     2.16987576
     10      H     0.30359312     1.61981146     1.91473885
     11      H    -1.34037121     1.42819712     2.54039351
     12      H    -1.63272313    -0.64595299     1.21791068
     13      H     2.29461159    -0.52766370    -0.63248138
     14     Sn     1.12326193     4.51025676    -0.92906033
     15     Cl     2.89244285     6.08658552    -0.62167370
     16     Cl    -0.53108139     5.91707767    -1.92679486
 
Total System Charge             0.00000
 
 *** GOStep2 ***

 Energy gradients wrt nuclear displacements
 ==========================================

     Atom      Cartesian (a.u./angstrom)
                 X         Y         Z
 ----------------------------------------
     1 H    -0.002476  0.004402  0.000266
     2 C    -0.014262 -0.005988  0.000621
     3 C     0.006639 -0.013571 -0.002208
     4 C     0.018714 -0.010253 -0.006546
     5 O    -0.005987  0.013188  0.002897
     6 H     0.003727  0.000702  0.000165
     7 H    -0.001409  0.004045  0.001267
     8 H    -0.000188  0.000030 -0.002996
     9 C     0.002329  0.003585  0.003861
    10 H    -0.001017 -0.002524 -0.002870
    11 H     0.000782 -0.001078 -0.001457
    12 H     0.007315  0.007446  0.000122
    13 H    -0.014468  0.007061  0.005870
    14 Sn    0.000680  0.007588 -0.003329
    15 Cl   -0.008137 -0.007482 -0.000984
    16 Cl    0.007758 -0.007152  0.005321
 ----------------------------------------
 Mulliken charges used for AMS results%charges...

 dE(predicted):    -0.31642E-02, dE(actual):    -0.36499E-02, Trust radius:    0.400000, all in a.u.
 
----------------------------------------------------------------------
Geometry Convergence after Step   2       (Hartree/Angstrom,Angstrom)
----------------------------------------------------------------------
current energy                               -2.90133654 Hartree
energy change                      -0.00364985     0.00016000    F
constrained gradient max            0.01870841     0.00100000    F
constrained gradient rms            0.00652763     0.00066667    F
gradient max                        0.01870841
gradient rms                        0.00652763
cart. step max                      0.06019708     0.01000000    F
cart. step rms                      0.02020827     0.00666667    F
 
 
--------
Geometry
--------
Formula: C4H8Cl2OSn
Atoms
  Index Symbol   x (angstrom)   y (angstrom)   z (angstrom)
      1      H     0.86550123    -1.34342616     1.16212738
      2      C    -0.82678653     0.04047045     0.96168488
      3      C     0.35613495    -0.75096097     0.38677637
      4      C     1.42607482     0.04428344    -0.33140583
      5      O     1.38571504     1.23709656    -0.56400930
      6      H    -1.22552216     0.68700839     0.17231055
      7      H     0.01317472    -1.49618965    -0.34900135
      8      H    -0.10944919     0.26770431     3.01252616
      9      C    -0.48313808     0.89148816     2.19202793
     10      H     0.27981587     1.63757330     1.96194947
     11      H    -1.36963922     1.41949320     2.55825723
     12      H    -1.62408447    -0.66540315     1.22473929
     13      H     2.30527323    -0.55512921    -0.67122505
     14     Sn     1.12239185     4.51313007    -0.91015493
     15     Cl     2.90013228     6.09678967    -0.61645162
     16     Cl    -0.51623482     5.91958502    -1.95729125
 
Total System Charge             0.00000
 
 *** GOStep3 ***

 Energy gradients wrt nuclear displacements
 ==========================================

     Atom      Cartesian (a.u./angstrom)
                 X         Y         Z
 ----------------------------------------
     1 H    -0.000474  0.001133  0.000357
     2 C    -0.004341 -0.001874 -0.000147
     3 C     0.000248 -0.004935 -0.000923
     4 C     0.002978 -0.004159 -0.002085
     5 O    -0.000913  0.009771  0.000714
     6 H     0.001945  0.000274 -0.000020
     7 H     0.000034  0.001088 -0.000195
     8 H     0.000118 -0.000250 -0.000222
     9 C     0.000752  0.004192  0.001107
    10 H    -0.000696 -0.001016 -0.000688
    11 H     0.000143  0.000268  0.000470
    12 H    -0.001199  0.000298  0.001469
    13 H     0.001105  0.001800 -0.000554
    14 Sn    0.000786  0.002025 -0.002560
    15 Cl   -0.005321 -0.004446 -0.000452
    16 Cl    0.004834 -0.004169  0.003731
 ----------------------------------------
 Mulliken charges used for AMS results%charges...

 dE(predicted):    -0.81146E-03, dE(actual):    -0.10297E-02, Trust radius:    0.400000, all in a.u.
 
----------------------------------------------------------------------
Geometry Convergence after Step   3       (Hartree/Angstrom,Angstrom)
----------------------------------------------------------------------
current energy                               -2.90236622 Hartree
energy change                      -0.00102967     0.00016000    F
constrained gradient max            0.00976486     0.00100000    F
constrained gradient rms            0.00260676     0.00066667    F
gradient max                        0.00976486
gradient rms                        0.00260676
cart. step max                      0.04182555     0.01000000    F
cart. step rms                      0.01427002     0.00666667    F
 
 
--------
Geometry
--------
Formula: C4H8Cl2OSn
Atoms
  Index Symbol   x (angstrom)   y (angstrom)   z (angstrom)
      1      H     0.88048812    -1.33280949     1.15601991
      2      C    -0.82244897     0.04250127     0.96783971
      3      C     0.36085710    -0.73807897     0.38748546
      4      C     1.42535257     0.04762910    -0.34458312
      5      O     1.39034562     1.23473604    -0.60182582
      6      H    -1.23711980     0.68791836     0.18495583
      7      H     0.01807915    -1.49146759    -0.34202379
      8      H    -0.12070744     0.25765739     3.02687233
      9      C    -0.49187985     0.88415163     2.20647497
     10      H     0.26668479     1.64178451     1.99503871
     11      H    -1.38612576     1.40120470     2.57069557
     12      H    -1.61238394    -0.67792623     1.22313652
     13      H     2.29715820    -0.56740481    -0.69287565
     14     Sn     1.11496576     4.52482663    -0.88343911
     15     Cl     2.91198440     6.10407636    -0.62179477
     16     Cl    -0.49589046     5.92471454    -1.99911680
 
Total System Charge             0.00000
 
 *** GOStep4 ***

 Energy gradients wrt nuclear displacements
 ==========================================

     Atom      Cartesian (a.u./angstrom)
                 X         Y         Z
 ----------------------------------------
     1 H     0.000628 -0.000439 -0.000045
     2 C     0.000342  0.000476 -0.000571
     3 C    -0.002215 -0.000975 -0.000682
     4 C    -0.001566  0.000379  0.004051
     5 O     0.000314  0.007340 -0.001240
     6 H     0.000140  0.000115 -0.000089
     7 H     0.000042 -0.000455 -0.000222
     8 H     0.000192 -0.000169  0.000757
     9 C     0.000531  0.002536 -0.000774
    10 H    -0.000210  0.000030  0.000307
    11 H    -0.000165  0.000302  0.000541
    12 H    -0.002470 -0.001887  0.000855
    13 H     0.004167 -0.001117 -0.003316
    14 Sn    0.000864 -0.002378 -0.001947
    15 Cl   -0.003076 -0.001988 -0.000016
    16 Cl    0.002483 -0.001769  0.002390
 ----------------------------------------
 Mulliken charges used for AMS results%charges...

 dE(predicted):    -0.23109E-03, dE(actual):    -0.33337E-03, Trust radius:    0.400000, all in a.u.
 
----------------------------------------------------------------------
Geometry Convergence after Step   4       (Hartree/Angstrom,Angstrom)
----------------------------------------------------------------------
current energy                               -2.90269959 Hartree
energy change                      -0.00033337     0.00016000    F
constrained gradient max            0.00733282     0.00100000    F
constrained gradient rms            0.00187920     0.00066667    F
gradient max                        0.00733282
gradient rms                        0.00187920
cart. step max                      0.08243856     0.01000000    F
cart. step rms                      0.02406961     0.00666667    F
 
 
--------
Geometry
--------
Formula: C4H8Cl2OSn
Atoms
  Index Symbol   x (angstrom)   y (angstrom)   z (angstrom)
      1      H     0.90431403    -1.30761487     1.14761370
      2      C    -0.81790364     0.04374562     0.97666635
      3      C     0.36609704    -0.71937926     0.38561603
      4      C     1.41044347     0.05631602    -0.37879588
      5      O     1.37703031     1.23741590    -0.65669134
      6      H    -1.25298054     0.68991720     0.20487655
      7      H     0.02258983    -1.48727734    -0.32987555
      8      H    -0.12963671     0.23010959     3.04203334
      9      C    -0.50089514     0.86545357     2.22835690
     10      H     0.25124647     1.63713074     2.03965695
     11      H    -1.40337983     1.36660138     2.59492854
     12      H    -1.59541117    -0.69405018     1.22196810
     13      H     2.29085803    -0.56695269    -0.69713312
     14     Sn     1.09389981     4.54994619    -0.83028556
     15     Cl     2.93065963     6.10927588    -0.63451970
     16     Cl    -0.44757208     5.93287570    -2.08155537
 
Total System Charge             0.00000
 
 *** GOStep5 ***

 Energy gradients wrt nuclear displacements
 ==========================================

     Atom      Cartesian (a.u./angstrom)
                 X         Y         Z
 ----------------------------------------
     1 H     0.000581 -0.002192  0.000149
     2 C     0.004970  0.002700  0.000078
     3 C    -0.001968  0.004062  0.003113
     4 C    -0.009853  0.002963 -0.003691
     5 O     0.002764  0.004096  0.001459
     6 H    -0.001691 -0.000375 -0.000229
     7 H     0.000808 -0.000862 -0.000495
     8 H     0.000094  0.000044  0.001222
     9 C    -0.000196 -0.000551 -0.002481
    10 H     0.000234  0.000873  0.000983
    11 H    -0.000394  0.000095  0.000290
    12 H    -0.001869 -0.002625 -0.000045
    13 H     0.006259 -0.002950 -0.000267
    14 Sn    0.000737 -0.008609 -0.000515
    15 Cl   -0.000058  0.001578  0.000261
    16 Cl   -0.000419  0.001753  0.000166
 ----------------------------------------
 Mulliken charges used for AMS results%charges...

 dE(predicted):    -0.26145E-03, dE(actual):    -0.27076E-03, Trust radius:    0.800000, all in a.u.
 
----------------------------------------------------------------------
Geometry Convergence after Step   5       (Hartree/Angstrom,Angstrom)
----------------------------------------------------------------------
current energy                               -2.90297035 Hartree
energy change                      -0.00027076     0.00016000    F
constrained gradient max            0.00985511     0.00100000    F
constrained gradient rms            0.00276545     0.00066667    F
gradient max                        0.00985511
gradient rms                        0.00276545
cart. step max                      0.09350633     0.01000000    F
cart. step rms                      0.02738184     0.00666667    F
 
 
--------
Geometry
--------
Formula: C4H8Cl2OSn
Atoms
  Index Symbol   x (angstrom)   y (angstrom)   z (angstrom)
      1      H     0.92193712    -1.28450652     1.14523325
      2      C    -0.81596784     0.04282719     0.98464349
      3      C     0.37370172    -0.70210343     0.38618390
      4      C     1.40521763     0.07675520    -0.38761603
      5      O     1.34610155     1.24824100    -0.69890365
      6      H    -1.26041260     0.69541684     0.22363530
      7      H     0.03531590    -1.47710142    -0.32479531
      8      H    -0.13690936     0.19194964     3.05373260
      9      C    -0.50973721     0.84035859     2.25179739
     10      H     0.23759385     1.62203370     2.08227251
     11      H    -1.41748094     1.32741019     2.62386819
     12      H    -1.58430370    -0.70687722     1.21544079
     13      H     2.27421375    -0.55206595    -0.71898565
     14     Sn     1.06278076     4.58285826    -0.76076377
     15     Cl     2.94725341     6.10770215    -0.66782137
     16     Cl    -0.37994453     5.93061519    -2.17506170
 
Total System Charge             0.00000
 
 *** GOStep6 ***

 Energy gradients wrt nuclear displacements
 ==========================================

     Atom      Cartesian (a.u./angstrom)
                 X         Y         Z
 ----------------------------------------
     1 H     0.000795 -0.001841 -0.000394
     2 C     0.005617  0.003389  0.001077
     3 C    -0.002824  0.005796  0.000236
     4 C    -0.003082  0.004903  0.004226
     5 O     0.000238  0.001730 -0.001024
     6 H    -0.002603 -0.000828 -0.000204
     7 H     0.000303 -0.001572 -0.000008
     8 H    -0.000065  0.000277  0.000888
     9 C    -0.000613 -0.002816 -0.002790
    10 H     0.000431  0.001073  0.001006
    11 H    -0.000401 -0.000164 -0.000077
    12 H    -0.000199 -0.001539 -0.000739
    13 H     0.002064 -0.004313 -0.001741
    14 Sn    0.000065 -0.014073  0.002174
    15 Cl    0.002197  0.004873 -0.000350
    16 Cl   -0.001924  0.005106 -0.002282
 ----------------------------------------
 Mulliken charges used for AMS results%charges...

 dE(predicted):    -0.22781E-03, dE(actual):    -0.26189E-03, Trust radius:    0.800000, all in a.u.
 
----------------------------------------------------------------------
Geometry Convergence after Step   6       (Hartree/Angstrom,Angstrom)
----------------------------------------------------------------------
current energy                               -2.90323224 Hartree
energy change                      -0.00026189     0.00016000    F
constrained gradient max            0.01407140     0.00100000    F
constrained gradient rms            0.00313037     0.00066667    F
gradient max                        0.01407140
gradient rms                        0.00313037
cart. step max                      0.05607011     0.01000000    F
cart. step rms                      0.01732133     0.00666667    F
 
 
--------
Geometry
--------
Formula: C4H8Cl2OSn
Atoms
  Index Symbol   x (angstrom)   y (angstrom)   z (angstrom)
      1      H     0.92753715    -1.27224160     1.14580691
      2      C    -0.81847098     0.04098884     0.98613026
      3      C     0.37544278    -0.69790692     0.38478992
      4      C     1.39641569     0.09357661    -0.39048085
      5      O     1.31281147     1.26133540    -0.70761614
      6      H    -1.25595492     0.70307495     0.22993098
      7      H     0.04025464    -1.47342214    -0.32627550
      8      H    -0.13308224     0.16598186     3.05303429
      9      C    -0.50932614     0.82451197     2.26188734
     10      H     0.23866467     1.60561553     2.09441016
     11      H    -1.41461787     1.30885312     2.64230201
     12      H    -1.58718353    -0.70775589     1.20852772
     13      H     2.27217332    -0.52003978    -0.71571133
     14     Sn     1.03752224     4.60737999    -0.71565721
     15     Cl     2.95776914     6.09057592    -0.68708681
     16     Cl    -0.34059590     5.91298556    -2.23113181
 
Total System Charge             0.00000
 
 *** GOStep7 ***

 Energy gradients wrt nuclear displacements
 ==========================================

     Atom      Cartesian (a.u./angstrom)
                 X         Y         Z
 ----------------------------------------
     1 H     0.000153 -0.000761 -0.000239
     2 C     0.002677  0.002396  0.001308
     3 C    -0.000906  0.003955 -0.000792
     4 C     0.001773  0.004969  0.002135
     5 O    -0.000883 -0.001081  0.000004
     6 H    -0.001882 -0.000864 -0.000243
     7 H     0.000062 -0.000907  0.000113
     8 H    -0.000109  0.000353  0.000085
     9 C    -0.000622 -0.002601 -0.000977
    10 H     0.000281  0.000526  0.000321
    11 H    -0.000178 -0.000307 -0.000264
    12 H     0.001395  0.000106 -0.000839
    13 H    -0.002029 -0.002353 -0.000069
    14 Sn   -0.000412 -0.014526  0.003186
    15 Cl    0.002485  0.005413 -0.000786
    16 Cl   -0.001805  0.005680 -0.002943
 ----------------------------------------
 Mulliken charges used for AMS results%charges...

 dE(predicted):    -0.19166E-03, dE(actual):    -0.33210E-03, Trust radius:    0.800000, all in a.u.
 
----------------------------------------------------------------------
Geometry Convergence after Step   7       (Hartree/Angstrom,Angstrom)
----------------------------------------------------------------------
current energy                               -2.90356434 Hartree
energy change                      -0.00033210     0.00016000    F
constrained gradient max            0.01452749     0.00100000    F
constrained gradient rms            0.00286760     0.00066667    F
gradient max                        0.01452749
gradient rms                        0.00286760
cart. step max                      0.11553536     0.01000000    F
cart. step rms                      0.04430697     0.00666667    F
 
 
--------
Geometry
--------
Formula: C4H8Cl2OSn
Atoms
  Index Symbol   x (angstrom)   y (angstrom)   z (angstrom)
      1      H     0.93585665    -1.24928333     1.14683989
      2      C    -0.82779371     0.03668684     0.98349957
      3      C     0.37669178    -0.69659954     0.37919635
      4      C     1.37123499     0.14019017    -0.38943024
      5      O     1.21843925     1.30160127    -0.70783392
      6      H    -1.22960118     0.72985721     0.23760865
      7      H     0.04920292    -1.46701426    -0.33760545
      8      H    -0.11631612     0.10921911     3.04194010
      9      C    -0.50041356     0.79206465     2.27756409
     10      H     0.25421589     1.56354663     2.10405002
     11      H    -1.39282089     1.27892106     2.68167193
     12      H    -1.60914892    -0.69732558     1.18758383
     13      H     2.27854540    -0.41243570    -0.69340655
     14     Sn     0.96878658     4.67247143    -0.60960414
     15     Cl     2.98069671     6.01209488    -0.72254703
     16     Cl    -0.25821628     5.82951858    -2.34666717
 
Total System Charge             0.00000
 
 *** GOStep8 ***

 Energy gradients wrt nuclear displacements
 ==========================================

     Atom      Cartesian (a.u./angstrom)
                 X         Y         Z
 ----------------------------------------
     1 H    -0.001572  0.002517  0.000277
     2 C    -0.007453 -0.001700 -0.000728
     3 C     0.004906 -0.004807 -0.002195
     4 C     0.013995 -0.001352 -0.003645
     5 O    -0.003367 -0.001181  0.001379
     6 H     0.001425 -0.000082  0.000024
     7 H    -0.000684  0.001445  0.000363
     8 H    -0.000108  0.000270 -0.002032
     9 C     0.000052  0.000865  0.005269
    10 H    -0.000471 -0.001217 -0.001642
    11 H     0.000555 -0.000487 -0.000367
    12 H     0.004211  0.003753 -0.000214
    13 H    -0.011727  0.003804  0.004084
    14 Sn   -0.000767 -0.010554  0.003333
    15 Cl    0.001139  0.004190 -0.001501
    16 Cl   -0.000134  0.004538 -0.002406
 ----------------------------------------
 Mulliken charges used for AMS results%charges...

 dE(predicted):    -0.67864E-03, dE(actual):    -0.74710E-03, Trust radius:    1.000000, all in a.u.
 
----------------------------------------------------------------------
Geometry Convergence after Step   8       (Hartree/Angstrom,Angstrom)
----------------------------------------------------------------------
current energy                               -2.90431144 Hartree
energy change                      -0.00074710     0.00016000    F
constrained gradient max            0.01399690     0.00100000    F
constrained gradient rms            0.00397678     0.00066667    F
gradient max                        0.01399690
gradient rms                        0.00397678
cart. step max                      0.04907953     0.01000000    F
cart. step rms                      0.01345386     0.00666667    F
 
 
--------
Geometry
--------
Formula: C4H8Cl2OSn
Atoms
  Index Symbol   x (angstrom)   y (angstrom)   z (angstrom)
      1      H     0.93831282    -1.24786206     1.13922723
      2      C    -0.82873859     0.03759565     0.98315293
      3      C     0.37524589    -0.69517127     0.37477160
      4      C     1.36428540     0.15349972    -0.39038746
      5      O     1.20181019     1.31475591    -0.70420523
      6      H    -1.22170115     0.73862312     0.24032656
      7      H     0.04745346    -1.46155355    -0.34573841
      8      H    -0.11160989     0.10372904     3.04106363
      9      C    -0.49564970     0.78987934     2.27929147
     10      H     0.26099506     1.55895475     2.10460943
     11      H    -1.38490533     1.27942548     2.68716635
     12      H    -1.61617723    -0.69195000     1.18416100
     13      H     2.28462274    -0.38157568    -0.69121628
     14     Sn     0.95005779     4.69181602    -0.58857207
     15     Cl     2.99405520     5.97290789    -0.70623888
     16     Cl    -0.25869716     5.78043905    -2.37455193
 
Total System Charge             0.00000
 
 *** GOStep9 ***

 Energy gradients wrt nuclear displacements
 ==========================================

     Atom      Cartesian (a.u./angstrom)
                 X         Y         Z
 ----------------------------------------
     1 H    -0.001495  0.002734  0.000371
     2 C    -0.008095 -0.002368 -0.001571
     3 C     0.005039 -0.006212 -0.001795
     4 C     0.011024 -0.001196 -0.003984
     5 O    -0.002196 -0.001748  0.001569
     6 H     0.002397  0.000273  0.000262
     7 H    -0.000718  0.001704  0.000318
     8 H    -0.000010  0.000037 -0.001949
     9 C     0.000299  0.002190  0.005616
    10 H    -0.000554 -0.001195 -0.001663
    11 H     0.000614 -0.000343 -0.000217
    12 H     0.003104  0.003159  0.000138
    13 H    -0.009658  0.004502  0.003488
    14 Sn    0.000194 -0.006572  0.000737
    15 Cl    0.000390  0.002395 -0.000349
    16 Cl   -0.000335  0.002641 -0.000972
 ----------------------------------------
 Mulliken charges used for AMS results%charges...

 dE(predicted):    -0.21869E-03, dE(actual):    -0.35302E-03, Trust radius:    1.000000, all in a.u.
 
----------------------------------------------------------------------
Geometry Convergence after Step   9       (Hartree/Angstrom,Angstrom)
----------------------------------------------------------------------
current energy                               -2.90466446 Hartree
energy change                      -0.00035302     0.00016000    F
constrained gradient max            0.01102542     0.00100000    F
constrained gradient rms            0.00340856     0.00066667    F
gradient max                        0.01102542
gradient rms                        0.00340856
cart. step max                      0.17106665     0.01000000    F
cart. step rms                      0.06275382     0.00666667    F
 
 
--------
Geometry
--------
Formula: C4H8Cl2OSn
Atoms
  Index Symbol   x (angstrom)   y (angstrom)   z (angstrom)
      1      H     0.97994854    -1.21638465     1.09338372
      2      C    -0.82578694     0.03863789     0.99776721
      3      C     0.38164407    -0.66129150     0.35636707
      4      C     1.33366816     0.22101535    -0.42497565
      5      O     1.12729703     1.37654675    -0.74487907
      6      H    -1.22492838     0.76032931     0.27833987
      7      H     0.05646528    -1.42521445    -0.36920153
      8      H    -0.11163407     0.06229964     3.06546063
      9      C    -0.49777812     0.76254494     2.31546042
     10      H     0.25273868     1.54476667     2.16722760
     11      H    -1.39182249     1.23596097     2.73371901
     12      H    -1.61372852    -0.70389502     1.17675722
     13      H     2.29435257    -0.26786896    -0.72235495
     14     Sn     0.84183129     4.78138496    -0.44962237
     15     Cl     2.99586557     5.82530913    -0.73345129
     16     Cl    -0.09877313     5.60937240    -2.50713796
 
Total System Charge             0.00000
 
 *** GOStep10 ***

 Energy gradients wrt nuclear displacements
 ==========================================

     Atom      Cartesian (a.u./angstrom)
                 X         Y         Z
 ----------------------------------------
     1 H     0.000013  0.000817  0.000242
     2 C    -0.004954 -0.001488 -0.003452
     3 C     0.001376 -0.005128  0.001130
     4 C    -0.000411 -0.006476 -0.002411
     5 O    -0.000901  0.005111 -0.001614
     6 H     0.002808  0.000758  0.000453
     7 H    -0.000011  0.000894 -0.000155
     8 H     0.000300 -0.000544 -0.000109
     9 C     0.000303  0.004149  0.005146
    10 H    -0.000121  0.000227 -0.000443
    11 H     0.000395  0.000245  0.000498
    12 H    -0.002129 -0.000834  0.000375
    13 H     0.003197  0.001744  0.000245
    14 Sn   -0.002360 -0.005374  0.005348
    15 Cl   -0.000791  0.002833 -0.003685
    16 Cl    0.003286  0.003067 -0.001566
 ----------------------------------------
 Mulliken charges used for AMS results%charges...

 dE(predicted):    -0.86475E-03, dE(actual):    -0.51054E-03, Trust radius:    1.000000, all in a.u.
 
----------------------------------------------------------------------
Geometry Convergence after Step  10       (Hartree/Angstrom,Angstrom)
----------------------------------------------------------------------
current energy                               -2.90517500 Hartree
energy change                      -0.00051054     0.00016000    F
constrained gradient max            0.00646905     0.00100000    F
constrained gradient rms            0.00261147     0.00066667    F
gradient max                        0.00646905
gradient rms                        0.00261147
cart. step max                      0.09069222     0.01000000    F
cart. step rms                      0.02552017     0.00666667    F
 
 
--------
Geometry
--------
Formula: C4H8Cl2OSn
Atoms
  Index Symbol   x (angstrom)   y (angstrom)   z (angstrom)
      1      H     0.97702514    -1.22999917     1.07038009
      2      C    -0.81777160     0.04718355     1.00106327
      3      C     0.37823600    -0.65048006     0.34982257
      4      C     1.34340026     0.21944813    -0.42405674
      5      O     1.17513166     1.38112971    -0.73534953
      6      H    -1.24011966     0.75729660     0.28164847
      7      H     0.04540216    -1.40672852    -0.38221311
      8      H    -0.11457506     0.09164606     3.07290055
      9      C    -0.49430804     0.78104943     2.30786215
     10      H     0.25352255     1.56819634     2.16722834
     11      H    -1.39461780     1.25477700     2.71438552
     12      H    -1.60072629    -0.70396520     1.18829378
     13      H     2.29481119    -0.29520695    -0.74790672
     14     Sn     0.85343247     4.78349925    -0.47980760
     15     Cl     3.02998188     5.79557653    -0.64586623
     16     Cl    -0.18946536     5.55009076    -2.50552488
 
Total System Charge             0.00000
 
 *** GOStep11 ***

 Energy gradients wrt nuclear displacements
 ==========================================

     Atom      Cartesian (a.u./angstrom)
                 X         Y         Z
 ----------------------------------------
     1 H     0.001732 -0.001359 -0.000518
     2 C     0.003060  0.001058 -0.000825
     3 C    -0.003739  0.000480  0.001860
     4 C    -0.013260  0.001677  0.005116
     5 O     0.003283 -0.000399 -0.002661
     6 H     0.000869  0.000689  0.000379
     7 H     0.000213 -0.000829 -0.000024
     8 H     0.000379 -0.000649  0.001566
     9 C     0.000345  0.001639 -0.001639
    10 H     0.000225  0.001358  0.001200
    11 H    -0.000318  0.000399  0.000337
    12 H    -0.004706 -0.003466 -0.000067
    13 H     0.011798 -0.000924 -0.004663
    14 Sn    0.002094  0.001376 -0.004060
    15 Cl   -0.001200 -0.000464  0.001830
    16 Cl   -0.000774 -0.000586  0.002170
 ----------------------------------------
 Mulliken charges used for AMS results%charges...

 dE(predicted):    -0.68553E-03, dE(actual):    -0.36654E-03, Trust radius:    1.000000, all in a.u.
 
----------------------------------------------------------------------
Geometry Convergence after Step  11       (Hartree/Angstrom,Angstrom)
----------------------------------------------------------------------
current energy                               -2.90554154 Hartree
energy change                      -0.00036654     0.00016000    F
constrained gradient max            0.01325717     0.00100000    F
constrained gradient rms            0.00322896     0.00066667    F
gradient max                        0.01325717
gradient rms                        0.00322896
cart. step max                      0.05785977     0.01000000    F
cart. step rms                      0.02038210     0.00666667    F
 
 
--------
Geometry
--------
Formula: C4H8Cl2OSn
Atoms
  Index Symbol   x (angstrom)   y (angstrom)   z (angstrom)
      1      H     0.98111128    -1.21773117     1.06576694
      2      C    -0.81841772     0.04812390     0.99895266
      3      C     0.38193437    -0.64041887     0.34535889
      4      C     1.33798167     0.24614365    -0.41814449
      5      O     1.14743354     1.40526429    -0.72022895
      6      H    -1.24075734     0.76382077     0.28534998
      7      H     0.05260710    -1.39165436    -0.39250051
      8      H    -0.10999145     0.07398203     3.06712678
      9      C    -0.49301759     0.77077416     2.31171825
     10      H     0.25499898     1.55685730     2.17069712
     11      H    -1.39140604     1.24135989     2.72506742
     12      H    -1.59706382    -0.70401098     1.18201046
     13      H     2.28697741    -0.25554248    -0.74705804
     14     Sn     0.82070033     4.81347350    -0.43570951
     15     Cl     3.02662177     5.73771676    -0.67756579
     16     Cl    -0.14035298     5.49535505    -2.52798128
 
Total System Charge             0.00000
 
 *** GOStep12 ***

 Energy gradients wrt nuclear displacements
 ==========================================

     Atom      Cartesian (a.u./angstrom)
                 X         Y         Z
 ----------------------------------------
     1 H     0.001056 -0.000164 -0.000602
     2 C     0.000776 -0.000346 -0.001468
     3 C    -0.001366 -0.000670  0.000365
     4 C    -0.006735  0.004268  0.004088
     5 O     0.001474 -0.005576 -0.001357
     6 H     0.001021  0.000822  0.000377
     7 H    -0.000309 -0.000192  0.000273
     8 H     0.000142 -0.000383  0.000613
     9 C     0.000557  0.001614  0.000153
    10 H    -0.000064  0.000541  0.000296
    11 H    -0.000151  0.000167  0.000128
    12 H    -0.002146 -0.001062 -0.000173
    13 H     0.005694  0.000273 -0.002870
    14 Sn    0.001019  0.000696 -0.002075
    15 Cl   -0.001784  0.000030  0.000283
    16 Cl    0.000816 -0.000018  0.001967
 ----------------------------------------
 Mulliken charges used for AMS results%charges...

 dE(predicted):    -0.24659E-03, dE(actual):    -0.35241E-03, Trust radius:    1.000000, all in a.u.
 
----------------------------------------------------------------------
Geometry Convergence after Step  12       (Hartree/Angstrom,Angstrom)
----------------------------------------------------------------------
current energy                               -2.90589395 Hartree
energy change                      -0.00035241     0.00016000    F
constrained gradient max            0.00673091     0.00100000    F
constrained gradient rms            0.00198084     0.00066667    F
gradient max                        0.00673091
gradient rms                        0.00198084
cart. step max                      0.10850455     0.01000000    F
cart. step rms                      0.03133776     0.00666667    F
 
 
--------
Geometry
--------
Formula: C4H8Cl2OSn
Atoms
  Index Symbol   x (angstrom)   y (angstrom)   z (angstrom)
      1      H     0.98790386    -1.19836815     1.04828394
      2      C    -0.81755275     0.05304525     0.99847956
      3      C     0.38611782    -0.61644211     0.33446032
      4      C     1.33230029     0.28670382    -0.41864302
      5      O     1.12958896     1.44885469    -0.70156070
      6      H    -1.25422807     0.76926963     0.29390187
      7      H     0.06047921    -1.36004728    -0.41253469
      8      H    -0.10369881     0.05866179     3.06226271
      9      C    -0.49143477     0.76227231     2.31655523
     10      H     0.25446022     1.55059042     2.17932387
     11      H    -1.38950918     1.22600973     2.73776893
     12      H    -1.58419949    -0.70855005     1.17983564
     13      H     2.27728640    -0.20738197    -0.75459745
     14     Sn     0.77107962     4.86106859    -0.37629202
     15     Cl     3.02225909     5.63097626    -0.69956195
     16     Cl    -0.08149289     5.38685050    -2.55482229
 
Total System Charge             0.00000
 
 *** GOStep13 ***

 Energy gradients wrt nuclear displacements
 ==========================================

     Atom      Cartesian (a.u./angstrom)
                 X         Y         Z
 ----------------------------------------
     1 H     0.000330  0.000209 -0.000485
     2 C     0.000666 -0.000787 -0.001095
     3 C     0.000059  0.000033  0.000357
     4 C    -0.002098  0.002317  0.002228
     5 O    -0.000131 -0.005176 -0.001250
     6 H     0.000490  0.000572  0.000124
     7 H    -0.000479  0.000152  0.000368
     8 H    -0.000111 -0.000034  0.000046
     9 C     0.000566  0.000332  0.000234
    10 H    -0.000168 -0.000005 -0.000241
    11 H    -0.000099 -0.000009 -0.000067
    12 H    -0.000061  0.000776 -0.000294
    13 H     0.001196  0.000470 -0.000547
    14 Sn   -0.000383  0.000868  0.000145
    15 Cl   -0.002562  0.000109 -0.001544
    16 Cl    0.002785  0.000171  0.002021
 ----------------------------------------
 Mulliken charges used for AMS results%charges...
 Rebuilding optimization coordinates

 dE(predicted):    -0.16968E-03, dE(actual):    -0.13521E-03, Trust radius:    1.000000, all in a.u.
 
----------------------------------------------------------------------
Geometry Convergence after Step  13       (Hartree/Angstrom,Angstrom)
----------------------------------------------------------------------
current energy                               -2.90602916 Hartree
energy change                      -0.00013521     0.00016000    T
constrained gradient max            0.00516471     0.00100000    F
constrained gradient rms            0.00122337     0.00066667    F
gradient max                        0.00516471
gradient rms                        0.00122337
cart. step max                      0.03512890     0.01000000    F
cart. step rms                      0.00968515     0.00666667    F
 
 
--------
Geometry
--------
Formula: C4H8Cl2OSn
Atoms
  Index Symbol   x (angstrom)   y (angstrom)   z (angstrom)
      1      H     0.97744970    -1.20301504     1.05057401
      2      C    -0.81920001     0.05368744     0.99677423
      3      C     0.38448025    -0.61666223     0.33323539
      4      C     1.34040150     0.28065326    -0.41335271
      5      O     1.15321512     1.44897071    -0.68118143
      6      H    -1.26381927     0.76321113     0.29027966
      7      H     0.05912679    -1.35716077    -0.41692395
      8      H    -0.10176147     0.06467186     3.05700837
      9      C    -0.49115836     0.76620776     2.31091081
     10      H     0.25527084     1.55283087     2.16910071
     11      H    -1.38793619     1.23133571     2.73289070
     12      H    -1.57952688    -0.71051156     1.18536548
     13      H     2.27194201    -0.22743489    -0.75308368
     14     Sn     0.78425480     4.85457398    -0.39209279
     15     Cl     3.03324248     5.64603061    -0.68737136
     16     Cl    -0.11662179     5.39612461    -2.54927351
 
Total System Charge             0.00000
 
 *** GOStep14 ***

 Energy gradients wrt nuclear displacements
 ==========================================

     Atom      Cartesian (a.u./angstrom)
                 X         Y         Z
 ----------------------------------------
     1 H    -0.000412  0.000542 -0.000157
     2 C    -0.000153 -0.000626  0.000142
     3 C     0.001283  0.000208  0.000061
     4 C     0.002267  0.001462 -0.000696
     5 O    -0.001065 -0.005014 -0.000199
     6 H     0.000058  0.000210 -0.000030
     7 H    -0.000350  0.000382  0.000222
     8 H    -0.000224  0.000336 -0.000409
     9 C     0.000179 -0.000781  0.000057
    10 H    -0.000143 -0.000408 -0.000488
    11 H     0.000000 -0.000130 -0.000178
    12 H     0.001362  0.001935 -0.000205
    13 H    -0.002643  0.000809  0.001457
    14 Sn    0.000519  0.001382 -0.001598
    15 Cl   -0.001927 -0.000150 -0.000091
    16 Cl    0.001249 -0.000156  0.002113
 ----------------------------------------
 Mulliken charges used for AMS results%charges...

 dE(predicted):    -0.11415E-03, dE(actual):    -0.14122E-03, Trust radius:    1.000000, all in a.u.
 
----------------------------------------------------------------------
Geometry Convergence after Step  14       (Hartree/Angstrom,Angstrom)
----------------------------------------------------------------------
current energy                               -2.90617038 Hartree
energy change                      -0.00014122     0.00016000    T
constrained gradient max            0.00500223     0.00100000    F
constrained gradient rms            0.00119404     0.00066667    F
gradient max                        0.00500223
gradient rms                        0.00119404
cart. step max                      0.04358550     0.01000000    F
cart. step rms                      0.01131794     0.00666667    F
 
 
--------
Geometry
--------
Formula: C4H8Cl2OSn
Atoms
  Index Symbol   x (angstrom)   y (angstrom)   z (angstrom)
      1      H     0.97826981    -1.20352315     1.03648646
      2      C    -0.81909459     0.05507872     0.99867877
      3      C     0.38389559    -0.60835280     0.32684242
      4      C     1.34168533     0.29331434    -0.41251719
      5      O     1.16279672     1.46629223    -0.66276022
      6      H    -1.27181072     0.76337057     0.29595815
      7      H     0.05807693    -1.34232430    -0.42996941
      8      H    -0.09973051     0.06480048     3.05890819
      9      C    -0.49121927     0.76661088     2.31361467
     10      H     0.25279851     1.55636721     2.17504303
     11      H    -1.38896134     1.22848891     2.73755601
     12      H    -1.57523073    -0.71523952     1.18746367
     13      H     2.26998353    -0.21609362    -0.76648328
     14     Sn     0.76866853     4.86923532    -0.37754217
     15     Cl     3.03157674     5.61294907    -0.68800983
     16     Cl    -0.10234503     5.35253911    -2.56040934
 
Total System Charge             0.00000
 
 *** GOStep15 ***

 Energy gradients wrt nuclear displacements
 ==========================================

     Atom      Cartesian (a.u./angstrom)
                 X         Y         Z
 ----------------------------------------
     1 H    -0.000045  0.000102 -0.000213
     2 C     0.000741  0.000133  0.000251
     3 C     0.000365  0.000985  0.000218
     4 C     0.000208  0.002956 -0.000037
     5 O    -0.000370 -0.006265 -0.000271
     6 H    -0.000140  0.000118  0.000030
     7 H    -0.000160  0.000021 -0.000004
     8 H    -0.000145  0.000161 -0.000052
     9 C     0.000038 -0.000493 -0.000645
    10 H     0.000008 -0.000031 -0.000042
    11 H    -0.000006  0.000071 -0.000020
    12 H     0.000283  0.000711 -0.000196
    13 H    -0.000528  0.000325  0.000432
    14 Sn    0.000109  0.001472 -0.001020
    15 Cl   -0.001871 -0.000158 -0.000418
    16 Cl    0.001513 -0.000108  0.001988
 ----------------------------------------
 Mulliken charges used for AMS results%charges...

 dE(predicted):    -0.48639E-04, dE(actual):    -0.72129E-04, Trust radius:    1.000000, all in a.u.
 
----------------------------------------------------------------------
Geometry Convergence after Step  15       (Hartree/Angstrom,Angstrom)
----------------------------------------------------------------------
current energy                               -2.90624251 Hartree
energy change                      -0.00007213     0.00016000    T
constrained gradient max            0.00625423     0.00100000    F
constrained gradient rms            0.00116569     0.00066667    F
gradient max                        0.00625423
gradient rms                        0.00116569
cart. step max                      0.08054209     0.01000000    F
cart. step rms                      0.02199359     0.00666667    F
 
 
--------
Geometry
--------
Formula: C4H8Cl2OSn
Atoms
  Index Symbol   x (angstrom)   y (angstrom)   z (angstrom)
      1      H     0.97036323    -1.21104971     1.01081498
      2      C    -0.82108782     0.05744318     0.99923704
      3      C     0.38128090    -0.59509349     0.31340401
      4      C     1.34976306     0.31543569    -0.40137881
      5      O     1.19233312     1.50295919    -0.59552520
      6      H    -1.29147008     0.75992287     0.30208750
      7      H     0.05521829    -1.31168934    -0.46020023
      8      H    -0.09146743     0.06830743     3.05555215
      9      C    -0.48967420     0.76978729     2.31295439
     10      H     0.25006240     1.56351691     2.17420730
     11      H    -1.38735377     1.22657330     2.74281132
     12      H    -1.56573521    -0.72473200     1.19351409
     13      H     2.26149722    -0.20151327    -0.79021266
     14     Sn     0.74841331     4.89383133    -0.36114712
     15     Cl     3.03463363     5.55781703    -0.68713148
     16     Cl    -0.09741714     5.27199702    -2.57612734
 
Total System Charge             0.00000
 
 *** GOStep16 ***

 Energy gradients wrt nuclear displacements
 ==========================================

     Atom      Cartesian (a.u./angstrom)
                 X         Y         Z
 ----------------------------------------
     1 H     0.000121 -0.000372 -0.000129
     2 C     0.000735  0.001719  0.000657
     3 C    -0.000155  0.001627  0.000277
     4 C     0.002024  0.000851 -0.000554
     5 O    -0.001904 -0.003253  0.000258
     6 H    -0.000634 -0.000142  0.000046
     7 H     0.000209 -0.000338 -0.000374
     8 H    -0.000027 -0.000044  0.000198
     9 C    -0.000211 -0.000141 -0.001459
    10 H     0.000290  0.000293  0.000369
    11 H     0.000070  0.000305  0.000134
    12 H    -0.000546 -0.000693 -0.000079
    13 H     0.000451 -0.001202  0.000014
    14 Sn   -0.000310  0.001776 -0.000546
    15 Cl   -0.001258 -0.000281 -0.000339
    16 Cl    0.001146 -0.000104  0.001527
 ----------------------------------------
 Mulliken charges used for AMS results%charges...

 dE(predicted):    -0.98633E-04, dE(actual):    -0.12703E-03, Trust radius:    1.000000, all in a.u.
 
----------------------------------------------------------------------
Geometry Convergence after Step  16       (Hartree/Angstrom,Angstrom)
----------------------------------------------------------------------
current energy                               -2.90636954 Hartree
energy change                      -0.00012703     0.00016000    T
constrained gradient max            0.00324528     0.00100000    F
constrained gradient rms            0.00092463     0.00066667    F
gradient max                        0.00324528
gradient rms                        0.00092463
cart. step max                      0.03928535     0.01000000    F
cart. step rms                      0.00835053     0.00666667    F
 
 
--------
Geometry
--------
Formula: C4H8Cl2OSn
Atoms
  Index Symbol   x (angstrom)   y (angstrom)   z (angstrom)
      1      H     0.96417051    -1.22043078     1.00187441
      2      C    -0.82230935     0.05615192     0.99949240
      3      C     0.37887327    -0.59559393     0.30872068
      4      C     1.35328702     0.31944918    -0.39345873
      5      O     1.20771305     1.51390934    -0.55623985
      6      H    -1.29675305     0.75617183     0.30270949
      7      H     0.05131694    -1.30400700    -0.47158611
      8      H    -0.08660262     0.07257709     3.05391553
      9      C    -0.48860911     0.77211703     2.31131946
     10      H     0.24852084     1.56736654     2.16919296
     11      H    -1.38646716     1.22689941     2.74292482
     12      H    -1.56390120    -0.72854703     1.19766500
     13      H     2.25655819    -0.19876149    -0.80138653
     14     Sn     0.75033500     4.89591113    -0.36710067
     15     Cl     3.04102465     5.55582019    -0.68182621
     16     Cl    -0.10779745     5.25448000    -2.58335672
 
Total System Charge             0.00000
 
 *** GOStep17 ***

 Energy gradients wrt nuclear displacements
 ==========================================

     Atom      Cartesian (a.u./angstrom)
                 X         Y         Z
 ----------------------------------------
     1 H     0.000083 -0.000519 -0.000008
     2 C     0.000172  0.002226  0.000604
     3 C    -0.000222  0.000907  0.000053
     4 C     0.002771 -0.000509 -0.000984
     5 O    -0.002510 -0.001121  0.000783
     6 H    -0.000500 -0.000214  0.000057
     7 H     0.000275 -0.000414 -0.000388
     8 H     0.000030 -0.000147  0.000268
     9 C    -0.000213  0.000517 -0.001285
    10 H     0.000315  0.000305  0.000413
    11 H     0.000091  0.000346  0.000158
    12 H    -0.000751 -0.001151  0.000059
    13 H     0.000923 -0.001656 -0.000279
    14 Sn   -0.000149  0.001808 -0.000763
    15 Cl   -0.000578 -0.000273  0.000252
    16 Cl    0.000260 -0.000105  0.001061
 ----------------------------------------
 Mulliken charges used for AMS results%charges...

 dE(predicted):    -0.38774E-04, dE(actual):    -0.52235E-04, Trust radius:    1.000000, all in a.u.
 
----------------------------------------------------------------------
Geometry Convergence after Step  17       (Hartree/Angstrom,Angstrom)
----------------------------------------------------------------------
current energy                               -2.90642177 Hartree
energy change                      -0.00005224     0.00016000    T
constrained gradient max            0.00277525     0.00100000    F
constrained gradient rms            0.00088924     0.00066667    F
gradient max                        0.00277525
gradient rms                        0.00088924
cart. step max                      0.01306703     0.01000000    F
cart. step rms                      0.00321216     0.00666667    T
 
 
--------
Geometry
--------
Formula: C4H8Cl2OSn
Atoms
  Index Symbol   x (angstrom)   y (angstrom)   z (angstrom)
      1      H     0.96307670    -1.22176843     1.00037104
      2      C    -0.82282327     0.05439358     0.99962878
      3      C     0.37774831    -0.59651674     0.30781908
      4      C     1.35117189     0.32317693    -0.38988924
      5      O     1.21102597     1.52002390    -0.54317282
      6      H    -1.29602125     0.75495297     0.30269392
      7      H     0.04930463    -1.30250625    -0.47377920
      8      H    -0.08301180     0.07214203     3.05272895
      9      C    -0.48801300     0.77096117     2.31127699
     10      H     0.24683217     1.56734966     2.16627505
     11      H    -1.38645060     1.22325729     2.74403969
     12      H    -1.56405228    -0.72952210     1.19870453
     13      H     2.25188429    -0.19189267    -0.80491779
     14     Sn     0.75160543     4.89703228    -0.36892983
     15     Cl     3.04441149     5.55514316    -0.68167109
     16     Cl    -0.10732915     5.24728663    -2.58831813
 
Total System Charge             0.00000
 
 *** GOStep18 ***

 Energy gradients wrt nuclear displacements
 ==========================================

     Atom      Cartesian (a.u./angstrom)
                 X         Y         Z
 ----------------------------------------
     1 H    -0.000149 -0.000365  0.000144
     2 C    -0.000201  0.001604  0.000127
     3 C     0.000159 -0.000487 -0.000192
     4 C     0.001778 -0.001457 -0.000270
     5 O    -0.001440  0.000128  0.000157
     6 H    -0.000107 -0.000231 -0.000014
     7 H    -0.000002 -0.000243 -0.000104
     8 H    -0.000015 -0.000102  0.000142
     9 C     0.000104  0.000882 -0.000665
    10 H     0.000155  0.000039  0.000167
    11 H     0.000058  0.000204  0.000022
    12 H    -0.000210 -0.000670  0.000110
    13 H     0.000341 -0.000763 -0.000150
    14 Sn   -0.000302  0.001633 -0.000230
    15 Cl   -0.000087 -0.000160  0.000295
    16 Cl   -0.000084 -0.000014  0.000462
 ----------------------------------------
 Mulliken charges used for AMS results%charges...

 dE(predicted):    -0.20639E-04, dE(actual):    -0.34253E-04, Trust radius:    1.000000, all in a.u.
 
----------------------------------------------------------------------
Geometry Convergence after Step  18       (Hartree/Angstrom,Angstrom)
----------------------------------------------------------------------
current energy                               -2.90645603 Hartree
energy change                      -0.00003425     0.00016000    T
constrained gradient max            0.00178288     0.00100000    F
constrained gradient rms            0.00058536     0.00066667    T
gradient max                        0.00178288
gradient rms                        0.00058536
cart. step max                      0.02945543     0.01000000    F
cart. step rms                      0.00799690     0.00666667    F
 
 
--------
Geometry
--------
Formula: C4H8Cl2OSn
Atoms
  Index Symbol   x (angstrom)   y (angstrom)   z (angstrom)
      1      H     0.96274362    -1.22097685     0.99280923
      2      C    -0.82481972     0.05173775     1.00080912
      3      C     0.37576701    -0.59333336     0.30416941
      4      C     1.34875315     0.33338847    -0.38417589
      5      O     1.21681707     1.53365684    -0.51371739
      6      H    -1.29926100     0.75434652     0.30679279
      7      H     0.04716214    -1.29345552    -0.48177638
      8      H    -0.07585455     0.06833723     3.05068657
      9      C    -0.48811893     0.76670293     2.31316242
     10      H     0.24084376     1.56726707     2.16502967
     11      H    -1.38790652     1.21187105     2.75016609
     12      H    -1.56424407    -0.73240642     1.20017316
     13      H     2.24412396    -0.17649777    -0.81348609
     14     Sn     0.75256599     4.90032556    -0.37018206
     15     Cl     3.04992745     5.54890834    -0.68726228
     16     Cl    -0.09913985     5.22364160    -2.60033842
 
Total System Charge             0.00000
 
 *** GOStep19 ***

 Energy gradients wrt nuclear displacements
 ==========================================

     Atom      Cartesian (a.u./angstrom)
                 X         Y         Z
 ----------------------------------------
     1 H    -0.000240  0.000128  0.000101
     2 C    -0.001152  0.000122 -0.000122
     3 C     0.000556 -0.001082 -0.000342
     4 C     0.001393 -0.001331 -0.000662
     5 O    -0.000473 -0.001130  0.000379
     6 H     0.000259 -0.000144 -0.000004
     7 H    -0.000171  0.000236  0.000213
     8 H    -0.000127 -0.000000 -0.000072
     9 C     0.000591  0.001246 -0.000114
    10 H    -0.000076 -0.000271 -0.000149
    11 H     0.000027  0.000010 -0.000187
    12 H     0.000386  0.000290  0.000233
    13 H    -0.000467  0.000408  0.000220
    14 Sn   -0.000866  0.001226  0.001207
    15 Cl    0.000823  0.000088  0.000086
    16 Cl   -0.000464  0.000205 -0.000789
 ----------------------------------------
 Mulliken charges used for AMS results%charges...

 dE(predicted):    -0.26461E-04, dE(actual):    -0.41322E-04, Trust radius:    1.000000, all in a.u.
 
----------------------------------------------------------------------
Geometry Convergence after Step  19       (Hartree/Angstrom,Angstrom)
----------------------------------------------------------------------
current energy                               -2.90649735 Hartree
energy change                      -0.00004132     0.00016000    T
constrained gradient max            0.00139891     0.00100000    F
constrained gradient rms            0.00059728     0.00066667    T
gradient max                        0.00139891
gradient rms                        0.00059728
cart. step max                      0.01879098     0.01000000    F
cart. step rms                      0.00702353     0.00666667    F
 
 
--------
Geometry
--------
Formula: C4H8Cl2OSn
Atoms
  Index Symbol   x (angstrom)   y (angstrom)   z (angstrom)
      1      H     0.96415809    -1.21796860     0.98607916
      2      C    -0.82663934     0.04950771     1.00274500
      3      C     0.37392740    -0.58888271     0.30153817
      4      C     1.34594406     0.34268564    -0.38064438
      5      O     1.22185336     1.54525841    -0.49580778
      6      H    -1.30248181     0.75537003     0.31273138
      7      H     0.04630688    -1.28543882    -0.48754446
      8      H    -0.06993604     0.06230071     3.05030197
      9      C    -0.49008488     0.76074041     2.31742214
     10      H     0.23179484     1.56743712     2.16935935
     11      H    -1.39197089     1.19669066     2.75934144
     12      H    -1.56510999    -0.73560950     1.19957074
     13      H     2.23736852    -0.16450820    -0.82095151
     14     Sn     0.75797065     4.90042110    -0.37437280
     15     Cl     3.05647887     5.55065886    -0.69497036
     16     Cl    -0.09022022     5.20485062    -2.61193812
 
Total System Charge             0.00000
 
 *** GOStep20 ***

 Energy gradients wrt nuclear displacements
 ==========================================

     Atom      Cartesian (a.u./angstrom)
                 X         Y         Z
 ----------------------------------------
     1 H    -0.000105  0.000386  0.000016
     2 C    -0.001071 -0.001166 -0.000368
     3 C     0.000329 -0.001245 -0.000425
     4 C    -0.000012 -0.001536  0.000220
     5 O     0.000647 -0.001362 -0.000035
     6 H     0.000391  0.000059  0.000003
     7 H    -0.000219  0.000409  0.000394
     8 H    -0.000182  0.000050 -0.000119
     9 C     0.000876  0.001470  0.000059
    10 H    -0.000221 -0.000355 -0.000281
    11 H    -0.000032 -0.000077 -0.000243
    12 H     0.000506  0.000754  0.000251
    13 H    -0.000400  0.001046  0.000057
    14 Sn   -0.001286  0.000871  0.002440
    15 Cl    0.001558  0.000319 -0.000099
    16 Cl   -0.000778  0.000376 -0.001871
 ----------------------------------------
 Mulliken charges used for AMS results%charges...
 Rebuilding optimization coordinates

 dE(predicted):    -0.21373E-04, dE(actual):    -0.36142E-04, Trust radius:    1.000000, all in a.u.
 
----------------------------------------------------------------------
Geometry Convergence after Step  20       (Hartree/Angstrom,Angstrom)
----------------------------------------------------------------------
current energy                               -2.90653349 Hartree
energy change                      -0.00003614     0.00016000    T
constrained gradient max            0.00245478     0.00100000    F
constrained gradient rms            0.00079647     0.00066667    F
gradient max                        0.00245478
gradient rms                        0.00079647
cart. step max                      0.07154514     0.01000000    F
cart. step rms                      0.02206817     0.00666667    F
 
 
--------
Geometry
--------
Formula: C4H8Cl2OSn
Atoms
  Index Symbol   x (angstrom)   y (angstrom)   z (angstrom)
      1      H     0.96416634    -1.21206887     0.96269287
      2      C    -0.83142360     0.04663693     1.00687113
      3      C     0.36979847    -0.57254936     0.29105851
      4      C     1.34231815     0.37290874    -0.36892747
      5      O     1.23254659     1.58160655    -0.43127881
      6      H    -1.31620160     0.75884039     0.32898455
      7      H     0.04549434    -1.25532047    -0.51078263
      8      H    -0.05338122     0.04568971     3.04658064
      9      C    -0.49462313     0.74584384     2.32799050
     10      H     0.20927954     1.56816885     2.18187162
     11      H    -1.40048289     1.15749798     2.78485281
     12      H    -1.56393341    -0.74491912     1.19708837
     13      H     2.21982112    -0.12792230    -0.84242653
     14     Sn     0.76810479     4.90570859    -0.38258594
     15     Cl     3.07195890     5.54008649    -0.71800775
     16     Cl    -0.06408288     5.13330547    -2.64112192
 
Total System Charge             0.00000
 
 *** GOStep21 ***

 Energy gradients wrt nuclear displacements
 ==========================================

     Atom      Cartesian (a.u./angstrom)
                 X         Y         Z
 ----------------------------------------
     1 H     0.000123  0.000728 -0.000104
     2 C    -0.000969 -0.002960 -0.000206
     3 C    -0.000200 -0.000547 -0.000559
     4 C     0.000880 -0.004041 -0.000050
     5 O     0.000229  0.000651  0.000553
     6 H     0.000292  0.000427  0.000026
     7 H     0.000012  0.000582  0.000512
     8 H    -0.000239  0.000055 -0.000260
     9 C     0.001067  0.001769  0.000089
    10 H    -0.000372 -0.000389 -0.000583
    11 H    -0.000092 -0.000141 -0.000253
    12 H     0.000590  0.001486  0.000271
    13 H    -0.000726  0.000728  0.000148
    14 Sn   -0.002074  0.000526  0.004614
    15 Cl    0.002633  0.000593 -0.000493
    16 Cl   -0.001155  0.000533 -0.003704
 ----------------------------------------
 Mulliken charges used for AMS results%charges...

 dE(predicted):    -0.43884E-04, dE(actual):    -0.66727E-04, Trust radius:    1.000000, all in a.u.
 
----------------------------------------------------------------------
Geometry Convergence after Step  21       (Hartree/Angstrom,Angstrom)
----------------------------------------------------------------------
current energy                               -2.90660022 Hartree
energy change                      -0.00006673     0.00016000    T
constrained gradient max            0.00463296     0.00100000    F
constrained gradient rms            0.00134838     0.00066667    F
gradient max                        0.00463296
gradient rms                        0.00134838
cart. step max                      0.02125931     0.01000000    F
cart. step rms                      0.00607297     0.00666667    T
 
 
--------
Geometry
--------
Formula: C4H8Cl2OSn
Atoms
  Index Symbol   x (angstrom)   y (angstrom)   z (angstrom)
      1      H     0.96458388    -1.20977593     0.96570354
      2      C    -0.83162171     0.04722948     1.00779823
      3      C     0.36920301    -0.57194424     0.29318358
      4      C     1.34132580     0.37025575    -0.37208091
      5      O     1.23774397     1.57721573    -0.45062564
      6      H    -1.31386255     0.76187137     0.33066676
      7      H     0.04443632    -1.25762796    -0.50635262
      8      H    -0.05603741     0.04057464     3.04923566
      9      C    -0.49773914     0.74209065     2.33210196
     10      H     0.20488919     1.56672431     2.19117182
     11      H    -1.40481018     1.15066064     2.78943721
     12      H    -1.56609470    -0.74423080     1.19330573
     13      H     2.22209382    -0.13420777    -0.83703512
     14     Sn     0.77901165     4.89762774    -0.39059367
     15     Cl     3.07368006     5.56134580    -0.72333665
     16     Cl    -0.06744250     5.14570401    -2.63971995
 
Total System Charge             0.00000
 
 *** GOStep22 ***

 Energy gradients wrt nuclear displacements
 ==========================================

     Atom      Cartesian (a.u./angstrom)
                 X         Y         Z
 ----------------------------------------
     1 H     0.000125  0.000450  0.000024
     2 C     0.000035 -0.002916 -0.000569
     3 C    -0.000295 -0.000707 -0.000371
     4 C    -0.002958 -0.000106  0.001232
     5 O     0.002800 -0.002948 -0.000586
     6 H     0.000354  0.000349 -0.000024
     7 H    -0.000141  0.000292  0.000449
     8 H    -0.000145  0.000101 -0.000087
     9 C     0.000918  0.001599  0.000024
    10 H    -0.000368 -0.000277 -0.000342
    11 H    -0.000092 -0.000104 -0.000157
    12 H     0.000329  0.001018  0.000149
    13 H    -0.000078  0.001626 -0.000108
    14 Sn   -0.001430  0.000590  0.003532
    15 Cl    0.002044  0.000536 -0.000222
    16 Cl   -0.001098  0.000497 -0.002943
 ----------------------------------------
 Mulliken charges used for AMS results%charges...

 dE(predicted):    -0.29270E-04, dE(actual):    -0.32259E-04, Trust radius:    1.000000, all in a.u.
 
----------------------------------------------------------------------
Geometry Convergence after Step  22       (Hartree/Angstrom,Angstrom)
----------------------------------------------------------------------
current energy                               -2.90663248 Hartree
energy change                      -0.00003226     0.00016000    T
constrained gradient max            0.00354575     0.00100000    F
constrained gradient rms            0.00124678     0.00066667    F
gradient max                        0.00354575
gradient rms                        0.00124678
cart. step max                      0.06219342     0.01000000    F
cart. step rms                      0.01868657     0.00666667    F
 
 
--------
Geometry
--------
Formula: C4H8Cl2OSn
Atoms
  Index Symbol   x (angstrom)   y (angstrom)   z (angstrom)
      1      H     0.96110330    -1.20466376     0.94640898
      2      C    -0.83583788     0.04846819     1.01080468
      3      C     0.36545027    -0.55509583     0.28483101
      4      C     1.34044804     0.39590877    -0.36285186
      5      O     1.25218944     1.60619432    -0.40918434
      6      H    -1.32429934     0.76973418     0.34491962
      7      H     0.04225959    -1.22814407    -0.52616508
      8      H    -0.04603462     0.02015696     3.04674924
      9      C    -0.50372762     0.72640378     2.34429617
     10      H     0.18505374     1.56416810     2.21239197
     11      H    -1.41372568     1.11323747     2.81458228
     12      H    -1.56580038    -0.74996289     1.18574801
     13      H     2.21191404    -0.10682527    -0.84733272
     14     Sn     0.79489349     4.89706431    -0.40304068
     15     Cl     3.08510196     5.56335857    -0.75103253
     16     Cl    -0.04962883     5.08351059    -2.65826482
 
Total System Charge             0.00000
 
 *** GOStep23 ***

 Energy gradients wrt nuclear displacements
 ==========================================

     Atom      Cartesian (a.u./angstrom)
                 X         Y         Z
 ----------------------------------------
     1 H     0.000145  0.000277  0.000150
     2 C     0.000734 -0.003087 -0.000605
     3 C    -0.000600 -0.000473 -0.000282
     4 C    -0.003795 -0.000656  0.001631
     5 O     0.003521 -0.001564 -0.000875
     6 H     0.000227  0.000348 -0.000082
     7 H    -0.000079  0.000035  0.000359
     8 H    -0.000028  0.000078 -0.000061
     9 C     0.000691  0.001525 -0.000029
    10 H    -0.000354 -0.000135 -0.000325
    11 H    -0.000081 -0.000065 -0.000061
    12 H     0.000119  0.000780  0.000067
    13 H    -0.000006  0.001386 -0.000155
    14 Sn   -0.000995  0.000767  0.002969
    15 Cl    0.001421  0.000392 -0.000148
    16 Cl   -0.000920  0.000392 -0.002552
 ----------------------------------------
 Mulliken charges used for AMS results%charges...

 dE(predicted):    -0.47694E-04, dE(actual):    -0.87801E-04, Trust radius:    1.000000, all in a.u.
 
----------------------------------------------------------------------
Geometry Convergence after Step  23       (Hartree/Angstrom,Angstrom)
----------------------------------------------------------------------
current energy                               -2.90672028 Hartree
energy change                      -0.00008780     0.00016000    T
constrained gradient max            0.00379627     0.00100000    F
constrained gradient rms            0.00121086     0.00066667    F
gradient max                        0.00379627
gradient rms                        0.00121086
cart. step max                      0.21083180     0.01000000    F
cart. step rms                      0.05862625     0.00666667    F
 
 
--------
Geometry
--------
Formula: C4H8Cl2OSn
Atoms
  Index Symbol   x (angstrom)   y (angstrom)   z (angstrom)
      1      H     0.94592206    -1.18813091     0.88267086
      2      C    -0.84751031     0.05872540     1.01810554
      3      C     0.35474864    -0.49783875     0.25780640
      4      C     1.34229752     0.47604291    -0.33365778
      5      O     1.29835151     1.69243871    -0.28442335
      6      H    -1.35480628     0.79894260     0.38763285
      7      H     0.03354209    -1.12531439    -0.59036704
      8      H    -0.02227876    -0.04476376     3.03678174
      9      C    -0.52079900     0.67887279     2.38094763
     10      H     0.13124415     1.55042954     2.28372910
     11      H    -1.43657017     1.00299996     2.88611786
     12      H    -1.56255235    -0.76129418     1.15860053
     13      H     2.18696139    -0.02023295    -0.87051457
     14     Sn     0.83609045     4.89526699    -0.43998039
     15     Cl     3.11023064     5.55469067    -0.84077812
     16     Cl     0.00448794     4.87267879    -2.69981131
 
Total System Charge             0.00000
 
 *** GOStep24 ***

 Energy gradients wrt nuclear displacements
 ==========================================

     Atom      Cartesian (a.u./angstrom)
                 X         Y         Z
 ----------------------------------------
     1 H    -0.000142 -0.000344  0.000550
     2 C     0.002333 -0.002176 -0.000585
     3 C    -0.000984 -0.000581 -0.000056
     4 C    -0.004828 -0.008175  0.000754
     5 O     0.004686  0.009688 -0.000500
     6 H    -0.000145 -0.000020 -0.000281
     7 H     0.000223 -0.000609 -0.000138
     8 H     0.000247 -0.000191 -0.000120
     9 C    -0.000339  0.001185  0.000373
    10 H    -0.000336  0.000403 -0.000299
    11 H     0.000127  0.000185  0.000309
    12 H    -0.000315 -0.000295 -0.000066
    13 H     0.000015 -0.000368 -0.000050
    14 Sn    0.001291  0.001717 -0.000944
    15 Cl   -0.002241 -0.000621  0.000364
    16 Cl    0.000410  0.000202  0.000689
 ----------------------------------------
 Mulliken charges used for AMS results%charges...

 dE(predicted):    -0.13801E-03, dE(actual):    -0.14098E-03, Trust radius:    1.000000, all in a.u.
 
----------------------------------------------------------------------
Geometry Convergence after Step  24       (Hartree/Angstrom,Angstrom)
----------------------------------------------------------------------
current energy                               -2.90686126 Hartree
energy change                      -0.00014098     0.00016000    T
constrained gradient max            0.00969551     0.00100000    F
constrained gradient rms            0.00220751     0.00066667    F
gradient max                        0.00969551
gradient rms                        0.00220751
cart. step max                      0.02458695     0.01000000    F
cart. step rms                      0.00907088     0.00666667    F
 
 
--------
Geometry
--------
Formula: C4H8Cl2OSn
Atoms
  Index Symbol   x (angstrom)   y (angstrom)   z (angstrom)
      1      H     0.94403621    -1.19342418     0.88867003
      2      C    -0.84550646     0.06324431     1.01541010
      3      C     0.35730396    -0.50295725     0.26031302
      4      C     1.34784808     0.46378977    -0.33726076
      5      O     1.28929873     1.67540622    -0.30852499
      6      H    -1.34816998     0.80361406     0.38189981
      7      H     0.03327952    -1.13270970    -0.58540491
      8      H    -0.03279317    -0.04282629     3.04020831
      9      C    -0.51858013     0.68331158     2.37766063
     10      H     0.14495755     1.54710316     2.28642434
     11      H    -1.43301237     1.02024267     2.87679964
     12      H    -1.56383096    -0.75420046     1.15578843
     13      H     2.20151832    -0.03544278    -0.85680037
     14     Sn     0.82981320     4.89354490    -0.43706983
     15     Cl     3.10139525     5.55755167    -0.83537092
     16     Cl    -0.00819824     4.89726574    -2.68988259
 
Total System Charge             0.00000
 
 *** GOStep25 ***

 Energy gradients wrt nuclear displacements
 ==========================================

     Atom      Cartesian (a.u./angstrom)
                 X         Y         Z
 ----------------------------------------
     1 H     0.000074 -0.000279  0.000285
     2 C     0.000756 -0.000927 -0.000166
     3 C    -0.000233  0.001073  0.000157
     4 C    -0.002916  0.002876  0.000107
     5 O     0.003362 -0.004068 -0.000256
     6 H    -0.000333 -0.000235 -0.000140
     7 H     0.000161 -0.000472 -0.000242
     8 H     0.000360  0.000299  0.000185
     9 C    -0.000281  0.000537 -0.000800
    10 H    -0.000145  0.000417  0.000581
    11 H     0.000306  0.000207  0.000265
    12 H    -0.000306 -0.000671 -0.000205
    13 H    -0.000288 -0.000040  0.000095
    14 Sn    0.001486  0.001925 -0.002604
    15 Cl   -0.002888 -0.000806  0.000548
    16 Cl    0.000885  0.000163  0.002190
 ----------------------------------------
 Mulliken charges used for AMS results%charges...

 dE(predicted):    -0.54067E-04, dE(actual):    -0.44193E-04, Trust radius:    1.000000, all in a.u.
 
----------------------------------------------------------------------
Geometry Convergence after Step  25       (Hartree/Angstrom,Angstrom)
----------------------------------------------------------------------
current energy                               -2.90690545 Hartree
energy change                      -0.00004419     0.00016000    T
constrained gradient max            0.00406101     0.00100000    F
constrained gradient rms            0.00127736     0.00066667    F
gradient max                        0.00406101
gradient rms                        0.00127736
cart. step max                      0.03867961     0.01000000    F
cart. step rms                      0.01062607     0.00666667    F
 
 
--------
Geometry
--------
Formula: C4H8Cl2OSn
Atoms
  Index Symbol   x (angstrom)   y (angstrom)   z (angstrom)
      1      H     0.93851509    -1.19503147     0.87540390
      2      C    -0.84709955     0.06703580     1.01502561
      3      C     0.35515588    -0.49505144     0.25479013
      4      C     1.35011681     0.47628117    -0.32747618
      5      O     1.29194282     1.68796453    -0.27971915
      6      H    -1.34821312     0.81391975     0.38812266
      7      H     0.02981516    -1.11219457    -0.59935646
      8      H    -0.03184027    -0.05666501     3.03820949
      9      C    -0.51866325     0.67476224     2.38237284
     10      H     0.14429015     1.53940059     2.29668707
     11      H    -1.43330097     1.00623019     2.88481844
     12      H    -1.56630796    -0.75027277     1.14933151
     13      H     2.20366379    -0.01677159    -0.85282442
     14     Sn     0.83204242     4.89336436    -0.44343585
     15     Cl     3.10400112     5.55195554    -0.85212477
     16     Cl    -0.00475862     4.85858613    -2.69696489
 
Total System Charge             0.00000
 
 *** GOStep26 ***

 Energy gradients wrt nuclear displacements
 ==========================================

     Atom      Cartesian (a.u./angstrom)
                 X         Y         Z
 ----------------------------------------
     1 H     0.000143 -0.000013  0.000139
[...]
    16    Cl       0.000002  -0.000012  -0.000084
 
 Mode:    33      Frequency (cm-1):     1352.1467     Intensity (km/mol):       17.1435
 Index  Atom      ---- Displacements (x/y/z) ----
     1     H      -0.428206  -0.460906   0.132664
     2     C      -0.026669  -0.020730   0.093160
     3     C       0.075389   0.134798  -0.089229
     4     C      -0.039520  -0.040141   0.025924
     5     O       0.003000   0.013661  -0.001884
     6     H       0.175821  -0.007134  -0.555610
     7     H       0.059780  -0.368046   0.139012
     8     H      -0.021875  -0.018193   0.106569
     9     C       0.021651  -0.020992  -0.022383
    10     H      -0.086391   0.023987   0.005810
    11     H       0.003289   0.013296  -0.033041
    12     H      -0.071764   0.003227   0.100254
    13     H      -0.041004  -0.037323   0.041100
    14    Sn      -0.000060   0.000078   0.000039
    15    Cl       0.000057  -0.000091   0.000001
    16    Cl       0.000015  -0.000062  -0.000014
 
 Mode:    34      Frequency (cm-1):     1374.1260     Intensity (km/mol):       26.3629
 Index  Atom      ---- Displacements (x/y/z) ----
     1     H      -0.038590  -0.218309  -0.462672
     2     C       0.002199   0.008471  -0.030738
     3     C      -0.026306   0.019401   0.041984
     4     C       0.023657  -0.000809  -0.009896
     5     O      -0.014575   0.020761   0.010663
     6     H      -0.044839   0.008069   0.130905
     7     H       0.317107  -0.344504   0.044533
     8     H       0.012068  -0.148870  -0.383104
     9     C       0.024196   0.011704   0.092519
    10     H      -0.042793   0.078740  -0.365612
    11     H      -0.280187  -0.041846  -0.268635
    12     H       0.017387  -0.001207   0.037835
    13     H       0.008741  -0.127928  -0.020581
    14    Sn       0.000030   0.000031  -0.000012
    15    Cl      -0.000093   0.000027  -0.000006
    16    Cl      -0.000020   0.000003   0.000059
 
 Mode:    35      Frequency (cm-1):     1387.2790     Intensity (km/mol):       17.1084
 Index  Atom      ---- Displacements (x/y/z) ----
     1     H      -0.001580   0.162314   0.459158
     2     C      -0.005450  -0.018224  -0.010769
     3     C       0.045531   0.007537  -0.048529
     4     C      -0.034606  -0.014020   0.024407
     5     O       0.021372  -0.023568  -0.017594
     6     H       0.036649   0.019379  -0.037522
     7     H      -0.377344   0.257365   0.033362
     8     H      -0.034327  -0.185607  -0.322608
     9     C       0.031778   0.012738   0.088029
    10     H      -0.069757   0.095533  -0.387078
    11     H      -0.255637  -0.088993  -0.255156
    12     H      -0.052814  -0.001883   0.129607
    13     H      -0.028640   0.264122   0.026319
    14    Sn      -0.000027  -0.000034   0.000038
    15    Cl       0.000119  -0.000019   0.000010
    16    Cl      -0.000006  -0.000027  -0.000126
 
 Mode:    36      Frequency (cm-1):     1409.4120     Intensity (km/mol):        3.1317
 Index  Atom      ---- Displacements (x/y/z) ----
     1     H       0.018852   0.048881   0.218923
     2     C      -0.005237   0.003318   0.024850
     3     C       0.035523  -0.028625  -0.041065
     4     C       0.044719   0.035538  -0.038672
     5     O      -0.045726   0.042070   0.040228
     6     H      -0.032423  -0.038236  -0.030151
     7     H      -0.182950   0.098826  -0.005309
     8     H      -0.043381  -0.063591  -0.040105
     9     C       0.012522   0.007081   0.009673
    10     H      -0.038420   0.035189  -0.064454
    11     H      -0.035794  -0.034306  -0.047922
    12     H      -0.021736   0.012182  -0.103020
    13     H       0.031208  -0.924662  -0.036240
    14    Sn      -0.000123  -0.000037   0.000088
    15    Cl      -0.000008  -0.000084  -0.000102
    16    Cl       0.000089  -0.000022   0.000035
 
 Mode:    37      Frequency (cm-1):     1451.5636     Intensity (km/mol):        3.8137
 Index  Atom      ---- Displacements (x/y/z) ----
     1     H       0.009050   0.018283  -0.003731
     2     C      -0.064974  -0.011278  -0.021093
     3     C      -0.011174  -0.006890   0.001068
     4     C       0.008155  -0.003694  -0.005160
     5     O      -0.004565   0.008168   0.003806
     6     H       0.427730   0.499985   0.062163
     7     H      -0.003373  -0.000451  -0.009683
     8     H      -0.159928  -0.145068   0.036962
     9     C       0.009155   0.003020  -0.005672
    10     H      -0.173500   0.085468  -0.036718
    11     H       0.097112  -0.012279   0.105501
    12     H       0.571316  -0.311006   0.158755
    13     H       0.005893  -0.038628  -0.007070
    14    Sn      -0.000018  -0.000010   0.000007
    15    Cl       0.000024  -0.000012   0.000008
    16    Cl       0.000003   0.000001  -0.000007
 
 Mode:    38      Frequency (cm-1):     1466.7726     Intensity (km/mol):        7.7530
 Index  Atom      ---- Displacements (x/y/z) ----
     1     H      -0.005049   0.006986   0.051260
     2     C      -0.024943  -0.021630   0.013260
     3     C       0.006507   0.000054  -0.008915
     4     C      -0.000701   0.002031  -0.000457
     5     O      -0.000392  -0.000124   0.000801
     6     H       0.114454   0.114844   0.004771
     7     H      -0.036947   0.020146   0.000890
     8     H       0.410749   0.254562  -0.390801
     9     C      -0.015415  -0.042522   0.010324
    10     H       0.062251  -0.093308   0.391505
    11     H      -0.231269   0.550437  -0.189716
    12     H       0.104725  -0.082373  -0.049001
    13     H      -0.000770  -0.030917  -0.000671
    14    Sn      -0.000003   0.000010   0.000001
    15    Cl      -0.000010  -0.000006  -0.000008
    16    Cl       0.000005  -0.000009   0.000000
 
 Mode:    39      Frequency (cm-1):     1472.8711     Intensity (km/mol):        6.0942
 Index  Atom      ---- Displacements (x/y/z) ----
     1     H      -0.011237  -0.011498  -0.000327
     2     C       0.038807  -0.006190  -0.014097
     3     C      -0.003355   0.001510   0.005220
     4     C      -0.003332   0.003250   0.000333
     5     O       0.002505  -0.004199  -0.001887
     6     H      -0.094598  -0.118645   0.068304
     7     H       0.014654   0.003722  -0.002011
     8     H      -0.249566  -0.348427  -0.206358
     9     C       0.042311  -0.019304  -0.010616
    10     H      -0.599842   0.260260   0.200205
    11     H       0.168906   0.418883   0.195408
    12     H      -0.154413   0.084422  -0.002247
    13     H       0.000424   0.025300   0.004665
    14    Sn      -0.000017   0.000008  -0.000002
    15    Cl       0.000048  -0.000036   0.000026
    16    Cl      -0.000000  -0.000006  -0.000006
 
 Mode:    40      Frequency (cm-1):     1696.6372     Intensity (km/mol):      291.4779
 Index  Atom      ---- Displacements (x/y/z) ----
     1     H       0.124091   0.232064   0.094660
     2     C       0.011304  -0.014811  -0.012333
     3     C      -0.009551   0.042887   0.006032
     4     C       0.180709  -0.603979  -0.161835
     5     O      -0.143068   0.369276   0.126874
     6     H      -0.022821  -0.055650   0.016447
     7     H      -0.084326   0.198296  -0.055855
     8     H       0.015660   0.012579  -0.012688
     9     C      -0.005238  -0.001527  -0.001273
    10     H       0.001200  -0.013889   0.041159
    11     H       0.018180   0.036186   0.024504
    12     H      -0.112262   0.043750   0.080525
    13     H       0.194082   0.422370  -0.165883
    14    Sn       0.000682   0.000815  -0.000601
    15    Cl      -0.001510   0.000726   0.000087
    16    Cl      -0.000062   0.000483   0.001416
 
 Mode:    41      Frequency (cm-1):     2934.4363     Intensity (km/mol):        9.3439
 Index  Atom      ---- Displacements (x/y/z) ----
     1     H      -0.177183   0.119389  -0.056840
     2     C       0.000660   0.002423  -0.000418
     3     C       0.003710  -0.020650  -0.022372
     4     C      -0.057942  -0.000790   0.048924
     5     O       0.000088   0.001149  -0.000086
     6     H       0.006179  -0.002893   0.001431
     7     H       0.142765   0.141846   0.322743
     8     H       0.002047  -0.002913   0.000439
     9     C      -0.000284  -0.000308  -0.000005
    10     H       0.003561   0.008197   0.000294
    11     H      -0.001810  -0.000477   0.000607
    12     H      -0.011420  -0.024694  -0.000385
    13     H       0.679114  -0.016282  -0.580870
    14    Sn      -0.000044  -0.000033   0.000040
    15    Cl       0.000053  -0.000105   0.000003
    16    Cl      -0.000001  -0.000081  -0.000058
 
 Mode:    42      Frequency (cm-1):     2955.1383     Intensity (km/mol):       25.8610
 Index  Atom      ---- Displacements (x/y/z) ----
     1     H      -0.194108   0.132663  -0.071418
     2     C       0.003666   0.004641   0.001101
     3     C      -0.009720  -0.039213  -0.054465
     4     C       0.027192  -0.002228  -0.025056
     5     O      -0.000791   0.001043   0.000634
     6     H      -0.017960   0.020865  -0.005615
     7     H       0.323029   0.338527   0.727444
     8     H       0.010579  -0.011549   0.003396
     9     C      -0.000868  -0.000212  -0.000446
    10     H       0.006974   0.016061   0.001407
    11     H      -0.006299  -0.000699   0.003835
    12     H      -0.033233  -0.076582  -0.003513
    13     H      -0.318919   0.001095   0.274566
    14    Sn       0.000014   0.000002  -0.000018
    15    Cl      -0.000019   0.000054   0.000001
    16    Cl       0.000002   0.000046   0.000028
 
 Mode:    43      Frequency (cm-1):     2990.7013     Intensity (km/mol):        3.4288
 Index  Atom      ---- Displacements (x/y/z) ----
     1     H      -0.705381   0.540876  -0.203382
     2     C      -0.015566   0.004009  -0.002866
     3     C       0.065430  -0.034906   0.035427
     4     C       0.008011  -0.000258  -0.004908
     5     O      -0.000040   0.000418   0.000490
     6     H       0.145669  -0.146061   0.044802
     7     H      -0.089995  -0.127349  -0.234172
     8     H       0.056498  -0.057640   0.015865
     9     C      -0.001968   0.000675  -0.006448
    10     H       0.026719   0.057432   0.003643
    11     H      -0.062872  -0.004692   0.051673
    12     H       0.040954   0.094070   0.000164
    13     H      -0.077013  -0.001382   0.061323
    14    Sn       0.000008   0.000002  -0.000003
    15    Cl      -0.000013   0.000015  -0.000002
    16    Cl      -0.000002   0.000009   0.000005
 
 Mode:    44      Frequency (cm-1):     2996.6733     Intensity (km/mol):       18.3044
 Index  Atom      ---- Displacements (x/y/z) ----
     1     H      -0.082430   0.061944  -0.022078
     2     C      -0.007106   0.003095  -0.002592
     3     C       0.007023  -0.004806   0.001846
     4     C       0.001067   0.000277  -0.000734
     5     O       0.000032  -0.000070  -0.000073
     6     H       0.071372  -0.069249   0.021611
     7     H      -0.002102  -0.003946  -0.002486
     8     H      -0.471359   0.482021  -0.155891
     9     C       0.022585  -0.006654   0.044949
    10     H      -0.192475  -0.430669  -0.030396
    11     H       0.396287   0.029607  -0.338284
    12     H       0.011298   0.028022   0.001649
    13     H      -0.011879  -0.000880   0.009669
    14    Sn       0.000004   0.000004  -0.000001
    15    Cl      -0.000010   0.000003  -0.000003
    16    Cl      -0.000001  -0.000002   0.000002
 
 Mode:    45      Frequency (cm-1):     3008.1850     Intensity (km/mol):       22.3133
 Index  Atom      ---- Displacements (x/y/z) ----
     1     H      -0.135751   0.104386  -0.038051
     2     C       0.060611   0.027260   0.011345
     3     C       0.014948  -0.003582   0.012763
     4     C       0.000334  -0.000858   0.000096
     5     O      -0.000146   0.000222   0.000158
     6     H      -0.379490   0.389824  -0.111159
     7     H      -0.045913  -0.058659  -0.118536
     8     H      -0.015566   0.010285  -0.002942
     9     C      -0.007661  -0.003783   0.006405
    10     H       0.010245   0.028191   0.003665
    11     H       0.093272   0.006990  -0.078267
    12     H      -0.334954  -0.712264  -0.023836
    13     H      -0.001950   0.001246   0.002071
    14    Sn       0.000002  -0.000003   0.000004
    15    Cl      -0.000003   0.000006  -0.000002
    16    Cl      -0.000003  -0.000001  -0.000008
 
 Mode:    46      Frequency (cm-1):     3043.3326     Intensity (km/mol):        3.7063
 Index  Atom      ---- Displacements (x/y/z) ----
     1     H      -0.091412   0.066889  -0.025832
     2     C       0.021814  -0.079369   0.010694
     3     C       0.007761  -0.006133   0.002106
     4     C       0.000593  -0.000396  -0.000463
     5     O      -0.000268   0.000313   0.000124
     6     H      -0.507621   0.481530  -0.145458
     7     H       0.001692  -0.001745  -0.000799
     8     H       0.178032  -0.178177   0.061168
     9     C      -0.016275   0.033562   0.007256
    10     H      -0.124234  -0.249038  -0.019735
    11     H       0.140445   0.022808  -0.126353
    12     H       0.243911   0.475626   0.019808
    13     H      -0.002088  -0.000069   0.001984
    14    Sn       0.000003   0.000003  -0.000000
    15    Cl      -0.000006   0.000001  -0.000001
    16    Cl      -0.000002  -0.000001   0.000001
 
 Mode:    47      Frequency (cm-1):     3067.7339     Intensity (km/mol):       29.2313
 Index  Atom      ---- Displacements (x/y/z) ----
     1     H       0.036180  -0.025875   0.007423
     2     C      -0.014540   0.029248  -0.005008
     3     C      -0.002711   0.002013  -0.001275
     4     C      -0.000251   0.000540   0.000201
     5     O       0.000154  -0.000270  -0.000149
     6     H       0.230251  -0.219899   0.068245
     7     H       0.000915   0.001443   0.004324
     8     H       0.410898  -0.427168   0.152785
     9     C      -0.072216   0.037935   0.026273
    10     H      -0.058966  -0.078200  -0.002273
    11     H       0.512389   0.053253  -0.461115
    12     H      -0.066710  -0.129292  -0.006509
    13     H       0.000893  -0.000290  -0.000921
    14    Sn      -0.000003   0.000002  -0.000000
    15    Cl       0.000008  -0.000007   0.000002
    16    Cl       0.000002  -0.000002  -0.000000
 
 Mode:    48      Frequency (cm-1):     3082.5346     Intensity (km/mol):       28.1939
 Index  Atom      ---- Displacements (x/y/z) ----
     1     H      -0.010730   0.007105  -0.002507
     2     C       0.000091  -0.023289   0.002122
     3     C       0.000959  -0.000643  -0.000140
     4     C       0.000395  -0.000389  -0.000433
     5     O      -0.000097   0.000148   0.000317
     6     H      -0.096620   0.090965  -0.029271
     7     H       0.000782   0.000927   0.001472
     8     H      -0.176971   0.152307  -0.051695
     9     C      -0.041257  -0.076194   0.022077
    10     H       0.344685   0.748847   0.072934
    11     H       0.324547   0.009844  -0.288366
    12     H       0.091932   0.183280   0.009612
    13     H      -0.002187   0.000552   0.001517
    14    Sn       0.000002   0.000005  -0.000004
    15    Cl      -0.000005  -0.000001   0.000003
    16    Cl       0.000001   0.000002   0.000011

PES point character: Geometry corresponds to a local minimum on the PES.




 ============================
 Statistical Thermal Analysis  ***  ideal gas assumed  ***
 ============================
  
 Pressure:                  1.000000 atm.
 Temperature:             298.150000 K



 Moments of Inertia [amu*bohr^2] and principal axis
 ==================================================

        1488.0274       4485.9729       4885.8658
 ------------------------------------------------
           0.3525         -0.6663          0.6571
           0.8006         -0.1489         -0.5804
          -0.4845         -0.7307         -0.4809


 The rotational contribution to the molecular entropy includes
 a term, dependent on the symmetry number sigma. The results 
 reported below were computed using sigma = 1, determined from
 the point group symmetry of the input geometry (NOSYM). 
 If this is not the correct symmetry, try symmetrizing the molecule before
 running the calculation (note: linear molecules should be aligned along one
 of the Cartesian axes).
 Contributions from frequencies below 20 1/cm are not included in vibrational sums.
 Their contributions, if any, are reported separately.


     Temp                                                        Transl      Rotat     Vibrat     Total
     ----                                                        ------      -----     ------     -----

     298.15   Entropy (cal/mol-K):                               42.588     31.856     38.880    113.324
              Nuclear Internal Energy (kcal/mol):                 0.889      0.889     76.772     78.549
              Constant Volume Heat Capacity (cal/mol-K):          2.981      2.981     30.050     36.012
          (c) Constant Volume Heat Capacity (cal/mol-K):          2.981      2.981     26.755     32.716

 Contributions from frequencies below 20 1/cm
 Frequency (1/cm):                                   15.643
 Entropy (cal/mol-K):                                 7.122
 Nuclear Internal Energy (kcal/mol):                  0.593
 Constant Volume Heat Capacity (cal/mol-K):           1.986

       Summary of energy terms
                                                   hartree              eV         kcal/mol           kJ/mol
                                      --------------------     -----------       ----------      -----------
      Energy from Engine:               -2.914682594339884        -79.3125         -1828.99         -7652.50
      Nuclear Internal Energy:           0.125176019733662          3.4062            78.55           328.65
  (c) Nuclear Internal Energy:           0.123476984956952          3.3600            77.48           324.19
      Internal Energy U:                -2.789506574606222        -75.9063         -1750.44         -7323.85
      pV/n = RT:                         0.000944186013486          0.0257             0.59             2.48
      Enthalpy H:                       -2.788562388592736        -75.8806         -1749.85         -7321.37
      -T*S:                             -0.053843918125920         -1.4652           -33.79          -141.37
  (c) -T*S:                             -0.054046252109756         -1.4707           -33.91          -141.90
      Gibbs free energy:                -2.842406306718656        -77.3458         -1783.64         -7462.74
 
 
 
  (c) The properties marked with this symbol have been corrected using 'low vibrational frequency free rotor
      interpolation corrections'. For those terms all positive frequencies are used (also ones below 20 1/cm),
      but the contribution to the partition function of small vibrational frequencies is modified as described
      in the following paper:
      S. Grimme, 'Supramolecular Binding Thermodynamics by Dispersion-Corrected Density Functional Theory'
      (Chem. Eur. J. 2012, 18, 9955-9964)
      Configuration: Dampener Frequency          :   100.000 1/cm
                     Dampener Alpha              :     4.000
                     Averaging Moment of Inertia : 1.000E-44 kg m2

--------------
Atomic charges
--------------
  Index   Atom    Charge
      1      H   -0.1595
      2      C    0.4435
      3      C    0.3540
      4      C    0.7843
      5      O   -0.5525
      6      H   -0.1887
      7      H   -0.1569
      8      H   -0.2157
      9      C    0.6360
     10      H   -0.1899
     11      H   -0.2247
     12      H   -0.2011
     13      H   -0.2239
     14     Sn    0.7132
     15     Cl   -0.4101
     16     Cl   -0.4082


Dipole moment vector    (Debye):    -2.99353583   -3.33237597    3.02924450
              magnitude (Debye):     5.40761580


Final PES point is a local minimum. Geometry optimization successful!


AMS application finished. Exiting.
NORMAL TERMINATION
     Total cpu time:   24478.07
  Total system time:     123.15
 Total elapsed time:   45781.43
