

 Parallel Execution: Process Information
 ==============================================================================
 Rank   Node Name                              NodeID   MyNodeRank  NodeMaster
    0   node117                                   0          0          0
    1   node117                                   0          1         -1
    2   node117                                   0          2         -1
    3   node117                                   0          3         -1
 ==============================================================================


May use up to 122928MB of RAM as shared memory on node 0

 *******************************************************************************
 *                                                                             *
 *  --------------------------------                                           *
 *   Amsterdam Modeling Suite (AMS)              2021.102                      *
 *  --------------------------------                                           *
 *                                               r95042 2021-06-07             *
 *                                                                             *
 *                                                                             *
 *                              =================                              *
 *                              |               |                              *
 *                              |     A M S     |                              *
 *                              |               |                              *
 *                              =================                              *
 *                                                                             *
 *                                                                             *
 *   Online information and documentation:  https://www.scm.com/support/       *
 *   E-mail:  support@scm.com   info@scm.com                                   *
 *                                                                             *
 *   Scientific publications using AMS results must be properly referenced     *
 *   See the User Manuals (or the web site) for recommended citations          *
 *   The terms and conditions of the End User License Agreement apply to       *
 *   the use of AMS, https://www.scm.com/license-terms/                        *
 *                                                                             *
 **********************  x86_64_linux_intel / intelmpi  ************************
 
 Licensed to: VU/FEW (+ SARA) / ALGEMEEN / Amsterdam / THE NETHERLANDS
 SCM User ID: u7668
  
 AMS 2021.102  RunTime: Jan28-2022 09:07:29  ShM Nodes: 1  Procs: 4

 AMS jobname: 20.achiral_catalyst.H_Ph_I2.P1
 AMS jobid  : 1031897546

 Start   directory: /scistor/tc/yhk800/MasterProject/calculations/achiral_catalyst_H_Ph_I2/20.achiral_catalyst.H_Ph_I2.P1/
 Results directory: /scistor/tc/yhk800/MasterProject/calculations/achiral_catalyst_H_Ph_I2/20.achiral_catalyst.H_Ph_I2.P1/
 Scratch directory: /scratch/5297/amstmp_20.achiral_catalyst.H_Ph_I2.P1_kid0.1031897546/


 Communication costs MPI_COMM_WORLD:      0.983 usec per message,   0.0070 usec per 8-byte item
 Communication costs for intra-node:      0.947 usec per message,   0.0071 usec per 8-byte item

 RNG seed: -989098813 611364560 -1128065454 -638834477 -1591773547 -2079847267 290467629 -1621483007



                      ************************************************************************
                      *  ADF 2021.102  RunTime: Jan28-2022 09:07:30  ShM Nodes: 1  Procs: 4  *
                      ************************************************************************
  
       ***************************
       *  GEOMETRY OPTIMIZATION  *
       ***************************

Optimization Method                    Quasi Newton
Optimization Coordinates               Delocalized Coordinates
Optimize lattice                       F
 
 ------------------------------------------------------
 Convergence criteria (Hartree,Angstrom)
 ------------------------------------------------------
 Maximum gradient               0.001000000000
 Maximum rms gradient           0.000666666667
 Maximum step allowed           0.010000000000
 Maximum rms step allowed       0.006666666667
 Maximum energy change allowe   0.000240000000
 Maximum stress energy allowe   0.000500000000
 
Initial model Hessian                  Automatic Hessian
 
------------------------------------
Quasi-Newton Optimizer Parameters
------------------------------------
Hessian Update Method                  BFGS
Maximum number of steps                  250
First GDIIS cycle                          0
Maximum GDIIS vectors                      0
Trust radius (bohr)                        0.200000
Trust radius varies                        T
Constraints converged at all steps         T
Use projector                              T
 
 Rigid motions settings for: old optimizer
 Atomic rotations (x,y,z):     T T T
 Atomic translations (x,y,z):  T T T
 Tolerance:                   1.000000000000000E-006
 
--------
Geometry
--------
Formula: C10H11I2O
Atoms
  Index Symbol   x (angstrom)   y (angstrom)   z (angstrom)
      1      H     0.30883566    -1.71322737     0.34845077
      2      C    -0.85933175     0.07325638     0.95361639
      3      C     0.30566658    -0.62207952     0.35697327
      4      C     1.44363467     0.02246096    -0.23005168
      5      O     2.41991567    -0.55928782    -0.73004528
      6      H    -0.69195270     1.15283717     0.94428296
      7      H    -2.09949902     0.10683830     2.73788510
      8      H    -0.38777363    -0.20492454     3.06899219
      9      C    -1.20706757    -0.41125312     2.37345100
     10      H    -1.40849480    -1.48746718     2.39475159
     11      C    -4.29292549    -0.66839322    -1.59666079
     12      C    -3.82114632     0.63831354    -1.41996901
     13      C    -2.71340734     0.87758301    -0.59720381
     14      C    -2.07744753    -0.18985427     0.04886961
     15      C    -2.54922669    -1.49656102    -0.12782217
     16      C    -3.65696567    -1.73583049    -0.95058737
     17      H    -4.30779978     1.45514508    -1.91436167
     18      H    -2.35238932     1.87750995    -0.46199454
     19      H    -2.06257324    -2.31339256     0.36657049
     20      H    -4.01798370    -2.73575744    -1.08579664
     21      H    -5.14059697    -0.85148861    -2.22626272
     22      H     2.13175883    -0.63340533    -0.72119785
     23      I     1.54062743     0.82456511    -0.28082009
     24      I     0.10842206     3.07861732     0.45088846
 
Total System Charge             0.00000
 
 
----------------
ADF Engine Input
----------------
 
 NumericalQuality VeryGood
 SCF
 Converge 1.0e-6
 Iterations 99
 End
 SYMMETRY NOSYM
 SpinPolarization 1.0
 Unrestricted Yes
 XC
 GGA OLYP
 End
 basis
 core None
 type TZ2P
 End
 

 Title: *** (NO TITLE) ***

 Using automatic Hessian for delocalized coordinates.
 *** GOStep1 ***

 Energy gradients wrt nuclear displacements
 ==========================================

     Atom      Cartesian (a.u./angstrom)
                 X         Y         Z
 ----------------------------------------
     1 H     0.008459  0.021358 -0.000792
     2 C     0.030604  0.031220 -0.000606
     3 C     0.010434  0.312811 -0.034833
     4 C     3.743831 23.721722 -2.029391
     5 O   -29.789499 -6.859252  1.004665
     6 H     0.011219  0.018056 -0.014890
     7 H     0.000638 -0.000472  0.001363
     8 H    -0.000750  0.000605 -0.001634
     9 C    -0.013006 -0.003203 -0.010594
    10 H    -0.001656 -0.003137 -0.001187
    11 C    -0.019450 -0.006535 -0.013782
    12 C    -0.010873  0.024716 -0.013856
    13 C     0.016125  0.025636  0.009425
    14 C    -0.007357 -0.005010  0.003770
    15 C     0.023354 -0.015638  0.021304
    16 C    -0.012036 -0.025727 -0.006669
    17 H     0.009659 -0.016206  0.009193
    18 H    -0.003909 -0.014388 -0.000742
    19 H    -0.005740  0.015511 -0.006155
    20 H     0.007261  0.019754  0.002332
    21 H     0.016407  0.003840  0.012402
    22 H    28.885139  7.980270 -0.462079
    23 I    -2.892595-25.097679  1.543005
    24 I    -0.006260 -0.128255 -0.010249
 ----------------------------------------
 Mulliken charges used for AMS results%charges...
 
----------------------------------------------------------------------
Geometry Convergence after Step   1       (Hartree/Angstrom,Angstrom)
----------------------------------------------------------------------
current energy                                5.37048435 Hartree
energy change                       5.37048435     0.00024000    F
constrained gradient max           29.78947042     0.00100000    F
constrained gradient rms            6.51424130     0.00066667    F
gradient max                       29.78947042
gradient rms                        6.51424130
cart. step max                      0.03216390     0.01000000    F
cart. step rms                      0.00683503     0.00666667    F
 
 
--------
Geometry
--------
Formula: C10H11I2O
Atoms
  Index Symbol   x (angstrom)   y (angstrom)   z (angstrom)
      1      H     0.30803436    -1.71580970     0.34815826
      2      C    -0.85865555     0.07157263     0.95301893
      3      C     0.30587864    -0.62457426     0.35628470
      4      C     1.43815110     0.00212620    -0.22808413
      5      O     2.44783338    -0.55110049    -0.72954437
      6      H    -0.69074375     1.15099284     0.94351673
      7      H    -2.09833950     0.10613296     2.73761300
      8      H    -0.38668739    -0.20646515     3.06835508
      9      C    -1.20626977    -0.41249786     2.37305701
     10      H    -1.40824641    -1.48859032     2.39462554
     11      C    -4.29322327    -0.66865701    -1.59659150
     12      C    -3.82070638     0.63777607    -1.42018913
     13      C    -2.71269817     0.87658902    -0.59768468
     14      C    -2.07713691    -0.19103619     0.04847751
     15      C    -2.54972452    -1.49751201    -0.12797605
     16      C    -3.65772216    -1.73629922    -0.95047694
     17      H    -4.30704658     1.45485662    -1.91465329
     18      H    -2.35113446     1.87641350    -0.46272335
     19      H    -2.06343367    -2.31461928     0.36646056
     20      H    -4.01933186    -2.73612865    -1.08546644
     21      H    -5.14117594    -0.85140773    -2.22605121
     22      H     2.09959493    -0.64237517    -0.71691972
     23      I     1.54328547     0.84529632    -0.28264595
     24      I     0.11177779     3.09952125     0.45139768
 
Total System Charge             0.00000
 
 *** GOStep2 ***

 Energy gradients wrt nuclear displacements
 ==========================================

     Atom      Cartesian (a.u./angstrom)
                 X         Y         Z
 ----------------------------------------
     1 H     0.013009  0.020537 -0.001922
     2 C     0.030676  0.030382 -0.000815
     3 C    -0.008459  0.308741 -0.025228
     4 C     3.312320 19.468719 -1.802766
     5 O   -17.807322 -3.903737  0.743923
     6 H     0.010721  0.018099 -0.014527
     7 H     0.000464 -0.000438  0.001393
     8 H    -0.000830  0.000617 -0.001613
     9 C    -0.012718 -0.003263 -0.010424
    10 H    -0.001748 -0.003220 -0.001039
    11 C    -0.019436 -0.006594 -0.013673
    12 C    -0.010810  0.024681 -0.013638
    13 C     0.015758  0.025516  0.009282
    14 C    -0.007279 -0.004767  0.003851
    15 C     0.023140 -0.015663  0.021236
    16 C    -0.012087 -0.025596 -0.006608
    17 H     0.009498 -0.016117  0.009208
    18 H    -0.003970 -0.014408 -0.000781
    19 H    -0.005790  0.015443 -0.006017
    20 H     0.007143  0.019641  0.002363
    21 H     0.016250  0.003812  0.012375
    22 H    16.925910  5.001066 -0.208929
    23 I    -2.470721-20.827573  1.315646
    24 I    -0.003718 -0.115878 -0.011296
 ----------------------------------------
 Mulliken charges used for AMS results%charges...

 dE(predicted):    -0.29173E+01, dE(actual):    -0.24128E+01, Trust radius:    0.400000, all in a.u.
 
----------------------------------------------------------------------
Geometry Convergence after Step   2       (Hartree/Angstrom,Angstrom)
----------------------------------------------------------------------
current energy                                2.95771820 Hartree
energy change                      -2.41276614     0.00024000    F
constrained gradient max           20.82739094     0.00100000    F
constrained gradient rms            4.53294905     0.00066667    F
gradient max                       20.82739094
gradient rms                        4.53294905
cart. step max                      0.06157166     0.01000000    F
cart. step rms                      0.01451507     0.00666667    F
 
 
--------
Geometry
--------
Formula: C10H11I2O
Atoms
  Index Symbol   x (angstrom)   y (angstrom)   z (angstrom)
      1      H     0.30585328    -1.72229263     0.34748825
      2      C    -0.85679354     0.06712727     0.95182713
      3      C     0.30669738    -0.63075041     0.35464101
      4      C     1.42210817    -0.05233610    -0.22139867
      5      O     2.48041961    -0.54251678    -0.72752786
      6      H    -0.68780249     1.14608407     0.94231844
      7      H    -2.09510743     0.10336942     2.73735748
      8      H    -0.38354224    -0.21106507     3.06697122
      9      C    -1.20386976    -0.41632953     2.37228712
     10      H    -1.40698533    -1.49214482     2.39424817
     11      C    -4.29357923    -0.66953003    -1.59668218
     12      C    -3.81953120     0.63620976    -1.42055917
     13      C    -2.71097723     0.87389847    -0.59857700
     14      C    -2.07614601    -0.19418386     0.04756171
     15      C    -2.55053451    -1.50012354    -0.12880877
     16      C    -3.65902889    -1.73768923    -0.95076562
     17      H    -4.30528798     1.45403863    -1.91502865
     18      H    -2.34830694     1.87360242    -0.46393061
     19      H    -2.06500919    -2.31808317     0.36552099
     20      H    -4.02190824    -2.73741950    -1.08554624
     21      H    -5.14223468    -0.85143868    -2.22596117
     22      H     2.04997320    -0.66022374    -0.70633685
     23      I     1.55147044     0.90490847    -0.28749249
     24      I     0.12240221     3.16109291     0.45035197
 
Total System Charge             0.00000
 
 *** GOStep3 ***

 Energy gradients wrt nuclear displacements
 ==========================================

     Atom      Cartesian (a.u./angstrom)
                 X         Y         Z
 ----------------------------------------
     1 H     0.018690  0.016478 -0.004224
     2 C     0.035109  0.029601  0.000481
     3 C    -0.020693  0.288658 -0.015046
     4 C     2.378176 11.945191 -1.344976
     5 O    -9.219517 -1.866193  0.518198
     6 H     0.009321  0.015074 -0.013607
     7 H     0.000040 -0.000488  0.001417
     8 H    -0.000833  0.000595 -0.001882
     9 C    -0.012610 -0.002876 -0.009894
    10 H    -0.001676 -0.003198 -0.000993
    11 C    -0.019052 -0.006563 -0.013463
    12 C    -0.010556  0.024474 -0.013183
    13 C     0.015140  0.025035  0.008645
    14 C    -0.006500 -0.004904  0.003146
    15 C     0.022540 -0.016012  0.020827
    16 C    -0.011903 -0.024921 -0.006471
    17 H     0.009187 -0.015761  0.008981
    18 H    -0.004113 -0.014375 -0.001117
    19 H    -0.005637  0.015427 -0.005957
    20 H     0.006964  0.019267  0.002266
    21 H     0.015921  0.003771  0.012024
    22 H     8.448442  2.912183 -0.017769
    23 I    -1.661466-13.235125  0.892809
    24 I     0.015025 -0.105337 -0.020213
 ----------------------------------------
 Mulliken charges used for AMS results%charges...

 dE(predicted):    -0.34512E+01, dE(actual):    -0.30320E+01, Trust radius:    0.800000, all in a.u.
 
----------------------------------------------------------------------
Geometry Convergence after Step   3       (Hartree/Angstrom,Angstrom)
----------------------------------------------------------------------
current energy                               -0.07429181 Hartree
energy change                      -3.03201001     0.00024000    F
constrained gradient max           13.23492080     0.00100000    F
constrained gradient rms            2.62887784     0.00066667    F
gradient max                       13.23492080
gradient rms                        2.62887784
cart. step max                      0.21033619     0.01000000    F
cart. step rms                      0.03815235     0.00666667    F
 
 
--------
Geometry
--------
Formula: C10H11I2O
Atoms
  Index Symbol   x (angstrom)   y (angstrom)   z (angstrom)
      1      H     0.29188460    -1.72638864     0.35347691
      2      C    -0.86415900     0.05921777     0.95824520
      3      C     0.30412136    -0.63332290     0.35807661
      4      C     1.37662416    -0.14655431    -0.19199478
      5      O     2.48757655    -0.57696905    -0.73042761
      6      H    -0.70139663     1.13747737     0.95596179
      7      H    -2.09838277     0.08088332     2.74679006
      8      H    -0.38455476    -0.22649037     3.07219290
      9      C    -1.20528466    -0.43277592     2.37791411
     10      H    -1.40261876    -1.50929585     2.39582722
     11      C    -4.29823879    -0.67694361    -1.60095180
     12      C    -3.82944765     0.62799142    -1.41594673
     13      C    -2.72317895     0.86520498    -0.59171294
     14      C    -2.08310694    -0.20253720     0.04963410
     15      C    -2.55440818    -1.50893353    -0.13718122
     16      C    -3.66026605    -1.74540817    -0.96117367
     17      H    -4.31885447     1.44909267    -1.90689070
     18      H    -2.36503957     1.86778055    -0.45106723
     19      H    -2.06670907    -2.33112564     0.35264207
     20      H    -4.01979370    -2.74816163    -1.10271977
     21      H    -5.14749265    -0.85870275    -2.23377026
     22      H     2.03891841    -0.70763386    -0.69427388
     23      I     1.60471358     1.05637058    -0.30712093
     24      I     0.23137332     3.37142910     0.40642878
 
Total System Charge             0.00000
 
 *** GOStep4 ***

 Energy gradients wrt nuclear displacements
 ==========================================

     Atom      Cartesian (a.u./angstrom)
                 X         Y         Z
 ----------------------------------------
     1 H     0.019950  0.011912 -0.011559
     2 C     0.045468  0.017374  0.009151
     3 C     0.047821  0.264272 -0.040874
     4 C     1.205331  3.846614 -0.767611
     5 O    -7.648826 -1.812027  0.600908
     6 H     0.003018  0.004237 -0.010017
     7 H    -0.000882 -0.000861  0.002130
     8 H    -0.000678  0.000311 -0.001937
     9 C    -0.014635 -0.002009 -0.008117
    10 H    -0.001283 -0.002741 -0.000809
    11 C    -0.015480 -0.005408 -0.011127
    12 C    -0.009042  0.020146 -0.010902
    13 C     0.011986  0.021016  0.006432
    14 C    -0.005981 -0.004558  0.000847
    15 C     0.018633 -0.015508  0.017502
    16 C    -0.009834 -0.020195 -0.005487
    17 H     0.007435 -0.013232  0.007213
    18 H    -0.004364 -0.013186 -0.001472
    19 H    -0.004387  0.013666 -0.005026
    20 H     0.005589  0.015997  0.001866
    21 H     0.013187  0.003127  0.009868
    22 H     7.121444  2.641752 -0.196286
    23 I    -0.823453 -4.874805  0.441866
    24 I     0.038983 -0.095896 -0.026557
 ----------------------------------------
 Mulliken charges used for AMS results%charges...

 dE(predicted):    -0.23753E+01, dE(actual):    -0.23912E+01, Trust radius:    1.000000, all in a.u.
 
----------------------------------------------------------------------
Geometry Convergence after Step   4       (Hartree/Angstrom,Angstrom)
----------------------------------------------------------------------
current energy                               -2.46551630 Hartree
energy change                      -2.39122449     0.00024000    F
constrained gradient max            7.64884174     0.00100000    F
constrained gradient rms            1.49745209     0.00066667    F
gradient max                        7.64884174
gradient rms                        1.49745209
cart. step max                      0.21162225     0.01000000    F
cart. step rms                      0.03998461     0.00666667    F
 
 
--------
Geometry
--------
Formula: C10H11I2O
Atoms
  Index Symbol   x (angstrom)   y (angstrom)   z (angstrom)
      1      H     0.27907607    -1.72825720     0.36605591
      2      C    -0.88069932     0.05373269     0.96723969
      3      C     0.29680987    -0.63327637     0.36737564
      4      C     1.35495573    -0.14772168    -0.17218550
      5      O     2.69919880    -0.53083807    -0.76673106
      6      H    -0.72572526     1.13262255     0.96949342
      7      H    -2.11032774     0.06164265     2.75799404
      8      H    -0.39379165    -0.23457273     3.08049683
      9      C    -1.21442487    -0.44495920     2.38682336
     10      H    -1.40365022    -1.52240539     2.40272036
     11      C    -4.30904910    -0.68332340    -1.60535946
     12      C    -3.84499781     0.62022518    -1.41117859
     13      C    -2.74200164     0.85635070    -0.58363579
     14      C    -2.09810471    -0.21108846     0.05379115
     15      C    -2.56693456    -1.51758244    -0.14377341
     16      C    -3.66912940    -1.75222889    -0.97089447
     17      H    -4.33719407     1.44538582    -1.89950575
     18      H    -2.38753944     1.86221680    -0.43657883
     19      H    -2.07810266    -2.34499076     0.34229111
     20      H    -4.02591752    -2.75837307    -1.11959151
     21      H    -5.15877492    -0.86459030    -2.24306182
     22      H     1.91211820    -0.77509714    -0.67273627
     23      I     1.66432131     1.11000241    -0.32983754
     24      I     0.35216430     3.49133063     0.36274667
 
Total System Charge             0.00000
 
 *** GOStep5 ***

 Energy gradients wrt nuclear displacements
 ==========================================

     Atom      Cartesian (a.u./angstrom)
                 X         Y         Z
 ----------------------------------------
     1 H     0.020020  0.006011 -0.008906
     2 C     0.043210  0.015956  0.007810
     3 C     0.087157  0.228050 -0.064625
     4 C     1.115845  2.607712 -0.678151
     5 O    -0.763312  0.097239  0.139538
     6 H    -0.000315  0.001374 -0.007853
     7 H    -0.000475 -0.000653  0.001542
     8 H    -0.000442  0.000232 -0.001186
     9 C    -0.013206 -0.003655 -0.007425
    10 H    -0.001038 -0.002192 -0.000325
    11 C    -0.010886 -0.003980 -0.007770
    12 C    -0.006746  0.014371 -0.008160
    13 C     0.008874  0.016424  0.005218
    14 C    -0.007488 -0.003776 -0.000456
    15 C     0.014029 -0.013041  0.013503
    16 C    -0.007521 -0.014799 -0.004511
    17 H     0.005490 -0.010101  0.005314
    18 H    -0.003414 -0.010713 -0.000976
    19 H    -0.002996  0.010643 -0.003401
    20 H     0.004014  0.011955  0.001456
    21 H     0.009806  0.002277  0.007509
    22 H     0.278192  0.531506  0.208033
    23 I    -0.803211 -3.415739  0.425176
    24 I     0.034413 -0.065101 -0.021356
 ----------------------------------------
 Mulliken charges used for AMS results%charges...
 Rebuilding optimization coordinates

 dE(predicted):    -0.23408E+01, dE(actual):    -0.13389E+01, Trust radius:    1.000000, all in a.u.
 
----------------------------------------------------------------------
Geometry Convergence after Step   5       (Hartree/Angstrom,Angstrom)
----------------------------------------------------------------------
current energy                               -3.80436685 Hartree
energy change                      -1.33885055     0.00024000    F
constrained gradient max            3.41574818     0.00100000    F
constrained gradient rms            0.55387913     0.00066667    F
gradient max                        3.41574818
gradient rms                        0.55387913
cart. step max                      0.18769485     0.01000000    F
cart. step rms                      0.05393831     0.00666667    F
 
 
--------
Geometry
--------
Formula: C10H11I2O
Atoms
  Index Symbol   x (angstrom)   y (angstrom)   z (angstrom)
      1      H     0.26926534    -1.76837379     0.43407248
      2      C    -0.91674120     0.00862353     0.95281398
      3      C     0.30719582    -0.67134063     0.40783050
      4      C     1.35991534    -0.14221180    -0.08081928
      5      O     2.88689365    -0.48852963    -0.76811622
      6      H    -0.75656745     1.08991269     0.94982081
      7      H    -2.07569432     0.08108744     2.78148388
      8      H    -0.34494266    -0.17805130     3.05958393
      9      C    -1.18621256    -0.43187064     2.40526953
     10      H    -1.35699673    -1.50872467     2.47748536
     11      C    -4.37459680    -0.67453480    -1.61825038
     12      C    -3.88432015     0.61442301    -1.41341338
     13      C    -2.76600770     0.82166248    -0.60150388
     14      C    -2.12886428    -0.25464702     0.02753016
     15      C    -2.62860542    -1.54793262    -0.18900632
     16      C    -3.74170674    -1.75623537    -1.00369807
     17      H    -4.37129788     1.46112959    -1.88523424
     18      H    -2.39574613     1.82817567    -0.44887130
     19      H    -2.15678794    -2.40100265     0.28328032
     20      H    -4.11773671    -2.76229496    -1.15647650
     21      H    -5.24158814    -0.83614321    -2.24970448
     22      H     2.06187700    -0.80945898    -0.69267806
     23      I     1.82556512     1.22584788    -0.33410139
     24      I     0.34597991     3.58469411     0.36466076
 
Total System Charge             0.00000
 
 *** GOStep6 ***

 Energy gradients wrt nuclear displacements
 ==========================================

     Atom      Cartesian (a.u./angstrom)
                 X         Y         Z
 ----------------------------------------
     1 H     0.006576 -0.000987 -0.002639
     2 C     0.026600  0.002377  0.004896
     3 C     0.092420  0.151820 -0.052152
     4 C     0.698607  1.153137 -0.412539
     5 O    -0.470243  0.031335  0.095037
     6 H     0.000372  0.003854 -0.002263
     7 H     0.000720  0.000241 -0.001018
     8 H     0.000015 -0.000306  0.001606
     9 C    -0.001164 -0.002082 -0.001073
    10 H     0.000343  0.000895 -0.000539
    11 C    -0.002661 -0.000974 -0.001910
    12 C    -0.002914  0.003372 -0.001892
    13 C     0.003977  0.003773  0.000725
    14 C    -0.008624  0.000432 -0.007764
    15 C     0.002543 -0.004931  0.001979
    16 C    -0.002525 -0.003498 -0.001238
    17 H     0.001069 -0.003347  0.001404
    18 H    -0.000753 -0.003080  0.000082
    19 H    -0.001305  0.004235 -0.001652
    20 H     0.000728  0.003617  0.000274
    21 H     0.002781  0.000558  0.001968
    22 H     0.156480  0.267258  0.104653
    23 I    -0.520548 -1.580080  0.284327
    24 I     0.017506 -0.027617 -0.010272
 ----------------------------------------
 Mulliken charges used for AMS results%charges...

 dE(predicted):    -0.36032E+00, dE(actual):    -0.53632E+00, Trust radius:    1.000000, all in a.u.
 
----------------------------------------------------------------------
Geometry Convergence after Step   6       (Hartree/Angstrom,Angstrom)
----------------------------------------------------------------------
current energy                               -4.34068729 Hartree
energy change                      -0.53632045     0.00024000    F
constrained gradient max            1.58004983     0.00100000    F
constrained gradient rms            0.26902786     0.00066667    F
gradient max                        1.58004983
gradient rms                        0.26902786
cart. step max                      0.17167730     0.01000000    F
cart. step rms                      0.03920160     0.00666667    F
 
 
--------
Geometry
--------
Formula: C10H11I2O
Atoms
  Index Symbol   x (angstrom)   y (angstrom)   z (angstrom)
      1      H     0.21059899    -1.75770252     0.42268879
      2      C    -0.94456314     0.02151498     0.95689426
      3      C     0.28767836    -0.66317159     0.41169520
      4      C     1.34853279    -0.13090996    -0.05480447
      5      O     2.94757618    -0.50713060    -0.88038475
      6      H    -0.77747991     1.10033040     0.95416400
      7      H    -2.08318786     0.10668464     2.80179077
      8      H    -0.34671402    -0.14332298     3.05293776
      9      C    -1.19766013    -0.40684781     2.41604564
     10      H    -1.36410151    -1.48390180     2.50220138
     11      C    -4.37097736    -0.69538361    -1.63602760
     12      C    -3.89290850     0.59782172    -1.43031406
     13      C    -2.79606266     0.81772043    -0.59468582
     14      C    -2.15752838    -0.25077388     0.04647799
     15      C    -2.65014248    -1.54717543    -0.16408737
     16      C    -3.74477865    -1.76806904    -0.99876707
     17      H    -4.37078078     1.44060010    -1.92284522
     18      H    -2.42799806     1.82865402    -0.45210776
     19      H    -2.17958469    -2.39845817     0.31865662
     20      H    -4.10799617    -2.78058068    -1.15440435
     21      H    -5.22310413    -0.86788273    -2.28785123
     22      H     2.08446949    -0.82833529    -0.78290970
     23      I     1.98625748     1.26471160    -0.35874287
     24      I     0.38273451     3.53581252     0.53633806
 
Total System Charge             0.00000
 
 *** GOStep7 ***

 Energy gradients wrt nuclear displacements
 ==========================================

     Atom      Cartesian (a.u./angstrom)
                 X         Y         Z
 ----------------------------------------
     1 H    -0.000989 -0.001268  0.000427
     2 C     0.021870  0.000068 -0.000761
     3 C     0.094247  0.107144 -0.044419
     4 C     0.509799  0.659349 -0.283570
     5 O    -0.315952  0.026490  0.087131
     6 H     0.001430  0.004017 -0.000256
     7 H     0.000448  0.000185 -0.000372
     8 H     0.000192 -0.000080  0.000593
     9 C    -0.001477 -0.000566 -0.000918
    10 H     0.000306  0.000676 -0.000703
    11 C    -0.000531  0.000047 -0.000503
    12 C    -0.000152  0.000786 -0.001354
    13 C     0.000252  0.001585  0.002943
    14 C    -0.009027  0.000310 -0.006166
    15 C     0.000560 -0.001832  0.001829
    16 C    -0.000049 -0.000905 -0.000372
    17 H     0.000623 -0.001040  0.000151
    18 H     0.000055 -0.000835 -0.000420
    19 H    -0.000065  0.001363 -0.000606
    20 H     0.000536  0.001074 -0.000213
    21 H     0.000766  0.000255  0.000684
    22 H     0.100492  0.161016  0.064357
    23 I    -0.405840 -0.943141  0.186428
    24 I     0.002504 -0.014698 -0.003911
 ----------------------------------------
 Mulliken charges used for AMS results%charges...

 dE(predicted):    -0.10831E+00, dE(actual):    -0.18054E+00, Trust radius:    1.000000, all in a.u.
 
----------------------------------------------------------------------
Geometry Convergence after Step   7       (Hartree/Angstrom,Angstrom)
----------------------------------------------------------------------
current energy                               -4.52122703 Hartree
energy change                      -0.18053974     0.00024000    F
constrained gradient max            0.94314856     0.00100000    F
constrained gradient rms            0.16814089     0.00066667    F
gradient max                        0.94314856
gradient rms                        0.16814089
cart. step max                      0.21061568     0.01000000    F
cart. step rms                      0.04000920     0.00666667    F
 
 
--------
Geometry
--------
Formula: C10H11I2O
Atoms
  Index Symbol   x (angstrom)   y (angstrom)   z (angstrom)
      1      H     0.19401830    -1.74655307     0.42985561
      2      C    -0.97505534     0.01984020     0.96448448
      3      C     0.27696133    -0.65421401     0.42323263
      4      C     1.34099873    -0.09940870    -0.02346036
      5      O     3.09793065    -0.49046643    -0.94235774
      6      H    -0.79927527     1.09335845     0.96887236
      7      H    -2.13079780     0.10301807     2.80154446
      8      H    -0.39633884    -0.15043927     3.06333894
      9      C    -1.24330789    -0.41181856     2.42114189
     10      H    -1.41410108    -1.48897164     2.50775654
     11      C    -4.39393480    -0.70320040    -1.62878107
     12      C    -3.91262651     0.58967194    -1.42836378
     13      C    -2.81049427     0.81023120    -0.60017423
     14      C    -2.17237311    -0.25467660     0.04903911
     15      C    -2.66765215    -1.55060541    -0.16074192
     16      C    -3.76571656    -1.77368211    -0.99040759
     17      H    -4.39356694     1.43387944    -1.91827319
     18      H    -2.44537951     1.82348643    -0.45739951
     19      H    -2.20264338    -2.40359661     0.32789964
     20      H    -4.13265616    -2.78749964    -1.13747624
     21      H    -5.25084234    -0.87707666    -2.27590954
     22      H     2.19392563    -0.83089712    -0.84111488
     23      I     2.19687316     1.31923717    -0.41497496
     24      I     0.41833355     3.51458765     0.56422756
 
Total System Charge             0.00000
 
 *** GOStep8 ***

 Energy gradients wrt nuclear displacements
 ==========================================

     Atom      Cartesian (a.u./angstrom)
                 X         Y         Z
 ----------------------------------------
     1 H    -0.007020 -0.000173  0.003153
     2 C     0.016435  0.000820 -0.004152
     3 C     0.078840  0.058932 -0.035502
     4 C     0.269730  0.272644 -0.142133
     5 O    -0.158027  0.018333  0.052866
     6 H     0.002222 -0.000280  0.000616
     7 H     0.000074  0.000014  0.000549
     8 H     0.000006 -0.000161 -0.000032
     9 C    -0.003542  0.001167 -0.000185
    10 H     0.000010 -0.000001 -0.000253
    11 C     0.000413  0.000098  0.000258
    12 C     0.000005 -0.000569 -0.000152
    13 C     0.000507 -0.000555  0.000978
    14 C    -0.004356  0.001079 -0.000827
    15 C     0.000282  0.000377 -0.000074
    16 C     0.000138  0.000644 -0.000138
    17 H    -0.000198  0.000308 -0.000229
    18 H    -0.000034  0.000560  0.000181
    19 H     0.000153 -0.000146  0.000293
    20 H    -0.000210 -0.000395 -0.000094
    21 H    -0.000349 -0.000070 -0.000219
    22 H     0.030957  0.079631  0.032225
    23 I    -0.215981 -0.426091  0.090332
    24 I    -0.010054 -0.006166  0.002541
 ----------------------------------------
 Mulliken charges used for AMS results%charges...
 Rebuilding optimization coordinates

 dE(predicted):    -0.14745E+00, dE(actual):    -0.14065E+00, Trust radius:    1.000000, all in a.u.
 
----------------------------------------------------------------------
Geometry Convergence after Step   8       (Hartree/Angstrom,Angstrom)
----------------------------------------------------------------------
current energy                               -4.66187561 Hartree
energy change                      -0.14064858     0.00024000    F
constrained gradient max            0.42607014     0.00100000    F
constrained gradient rms            0.07919556     0.00066667    F
gradient max                        0.42607014
gradient rms                        0.07919556
cart. step max                      0.21077611     0.01000000    F
cart. step rms                      0.04909411     0.00666667    F
 
 
--------
Geometry
--------
Formula: C10H11I2O
Atoms
  Index Symbol   x (angstrom)   y (angstrom)   z (angstrom)
      1      H     0.17170941    -1.71808502     0.40592391
      2      C    -1.02562202     0.03088394     0.96335441
      3      C     0.24919597    -0.62687502     0.42133093
      4      C     1.33831031    -0.06082441     0.00709781
      5      O     3.25627645    -0.47871701    -0.94646956
      6      H    -0.85723356     1.10633797     0.98327962
      7      H    -2.15964103     0.06574253     2.81243288
      8      H    -0.41814899    -0.16446614     3.05072073
      9      C    -1.26874985    -0.43017224     2.41533009
     10      H    -1.42292160    -1.51106863     2.48921335
     11      C    -4.43933087    -0.72482238    -1.61996779
     12      C    -3.96236303     0.57161726    -1.43120270
     13      C    -2.85867559     0.80323168    -0.60869393
     14      C    -2.21072958    -0.25382651     0.04513039
     15      C    -2.69929090    -1.55376627    -0.15823090
     16      C    -3.80038175    -1.78818999    -0.98038388
     17      H    -4.44822496     1.41048613    -1.92575931
     18      H    -2.49433274     1.81868687    -0.47904505
     19      H    -2.22665720    -2.40314241     0.33036334
     20      H    -4.16049831    -2.80555891    -1.12075919
     21      H    -5.29941224    -0.90720457    -2.26073420
     22      H     2.32040173    -0.82033345    -0.85854643
     23      I     2.40764927     1.34481356    -0.41643399
     24      I     0.62095046     3.57945735     0.58400766
 
Total System Charge             0.00000
 
 *** GOStep9 ***

 Energy gradients wrt nuclear displacements
 ==========================================

     Atom      Cartesian (a.u./angstrom)
                 X         Y         Z
 ----------------------------------------
     1 H    -0.008691  0.000555  0.004040
     2 C     0.003627  0.001433 -0.003919
     3 C     0.047062  0.016816 -0.018627
     4 C     0.152539  0.120679 -0.068694
     5 O    -0.065810  0.018330  0.030036
     6 H     0.001595 -0.000618  0.001630
     7 H     0.000352  0.000111 -0.000118
     8 H     0.000242 -0.000224  0.000164
     9 C    -0.001284  0.000113 -0.000581
    10 H    -0.000165 -0.000555  0.000194
    11 C     0.000225 -0.000013  0.000409
    12 C     0.000362 -0.000792 -0.000007
    13 C    -0.001466 -0.000308  0.001228
    14 C    -0.000276  0.001465 -0.000424
    15 C    -0.000142  0.001051 -0.000508
    16 C    -0.000039  0.000648  0.000013
    17 H    -0.000229  0.000549 -0.000462
    18 H     0.000106 -0.000028 -0.000567
    19 H     0.000285 -0.000712  0.000199
    20 H    -0.000211 -0.000687 -0.000172
    21 H    -0.000573 -0.000189 -0.000337
    22 H    -0.012373  0.043013  0.019767
    23 I    -0.103802 -0.201772  0.032469
    24 I    -0.011333  0.001137  0.004270
 ----------------------------------------
 Mulliken charges used for AMS results%charges...

 dE(predicted):    -0.53322E-01, dE(actual):    -0.57155E-01, Trust radius:    1.000000, all in a.u.
 
----------------------------------------------------------------------
Geometry Convergence after Step   9       (Hartree/Angstrom,Angstrom)
----------------------------------------------------------------------
current energy                               -4.71903046 Hartree
energy change                      -0.05715485     0.00024000    F
constrained gradient max            0.20174239     0.00100000    F
constrained gradient rms            0.03840381     0.00066667    F
gradient max                        0.20174239
gradient rms                        0.03840381
cart. step max                      0.21141488     0.01000000    F
cart. step rms                      0.03953151     0.00666667    F
 
 
--------
Geometry
--------
Formula: C10H11I2O
Atoms
  Index Symbol   x (angstrom)   y (angstrom)   z (angstrom)
      1      H     0.15028993    -1.69635618     0.37605628
      2      C    -1.06756954     0.03961578     0.96803378
      3      C     0.21675861    -0.60558425     0.41205847
      4      C     1.31905607    -0.03598801     0.00816778
      5      O     3.33999398    -0.46181835    -0.97834871
      6      H    -0.91688586     1.12119207     0.96597352
      7      H    -2.17415252     0.04160279     2.83381713
      8      H    -0.42388738    -0.14667543     3.04463345
      9      C    -1.27740931    -0.43165426     2.42203030
     10      H    -1.40502888    -1.51592146     2.49542741
     11      C    -4.45619293    -0.74766386    -1.63090011
     12      C    -3.98521426     0.55154245    -1.44560082
     13      C    -2.89105368     0.79099264    -0.61342611
     14      C    -2.25073524    -0.25959779     0.05828616
     15      C    -2.73527819    -1.56210727    -0.13838558
     16      C    -3.82434625    -1.80489627    -0.97382809
     17      H    -4.46627106     1.38567362    -1.95237552
     18      H    -2.52908672     1.80798233    -0.48695431
     19      H    -2.26558248    -2.40712132     0.36037135
     20      H    -4.17992908    -2.82401808    -1.11165548
     21      H    -5.30676810    -0.93677184    -2.28205191
     22      H     2.39443056    -0.80402355    -0.88707274
     23      I     2.51477634     1.35409800    -0.42935953
     24      I     0.83236534     3.63170256     0.68706149
 
Total System Charge             0.00000
 
 *** GOStep10 ***

 Energy gradients wrt nuclear displacements
 ==========================================

     Atom      Cartesian (a.u./angstrom)
                 X         Y         Z
 ----------------------------------------
     1 H    -0.007932  0.001025  0.003804
     2 C    -0.003524  0.000268 -0.000583
     3 C     0.028145 -0.003988 -0.010929
     4 C     0.101391  0.070408 -0.041892
     5 O    -0.025253  0.017804  0.021842
     6 H    -0.000257  0.002755 -0.002758
     7 H     0.000303  0.000143 -0.000301
     8 H     0.000324 -0.000101  0.000207
     9 C    -0.000120 -0.003169 -0.000196
    10 H    -0.000275 -0.000636  0.000839
    11 C     0.000313  0.000086  0.000024
    12 C     0.000320 -0.000773  0.000439
    13 C    -0.000667  0.000228  0.000584
    14 C     0.000519  0.002436  0.001727
    15 C    -0.000261  0.000804 -0.000120
    16 C     0.000210  0.000301 -0.000064
    17 H    -0.000081  0.000529 -0.000281
    18 H     0.000042 -0.000270 -0.000337
    19 H     0.000291 -0.000791 -0.000088
    20 H    -0.000037 -0.000557 -0.000110
    21 H    -0.000422 -0.000124 -0.000248
    22 H    -0.029978  0.032754  0.016355
    23 I    -0.054277 -0.123805  0.006585
    24 I    -0.008774  0.004674  0.005501
 ----------------------------------------
 Mulliken charges used for AMS results%charges...

 dE(predicted):    -0.12959E-01, dE(actual):    -0.18424E-01, Trust radius:    1.000000, all in a.u.
 
----------------------------------------------------------------------
Geometry Convergence after Step  10       (Hartree/Angstrom,Angstrom)
----------------------------------------------------------------------
current energy                               -4.73745477 Hartree
energy change                      -0.01842431     0.00024000    F
constrained gradient max            0.12377020     0.00100000    F
constrained gradient rms            0.02361990     0.00066667    F
gradient max                        0.12377020
gradient rms                        0.02361990
cart. step max                      0.13870744     0.01000000    F
cart. step rms                      0.04642698     0.00666667    F
 
 
--------
Geometry
--------
Formula: C10H11I2O
Atoms
  Index Symbol   x (angstrom)   y (angstrom)   z (angstrom)
      1      H     0.16445800    -1.69058374     0.30403371
      2      C    -1.09922369     0.01177367     0.98685122
      3      C     0.19010306    -0.60175578     0.39922423
      4      C     1.30004205    -0.00920763     0.02016774
      5      O     3.47870142    -0.36647387    -1.02973100
      6      H    -0.95361523     1.09122107     1.00904864
      7      H    -2.21574671    -0.00553373     2.84761009
      8      H    -0.46282149    -0.16778441     3.06380586
      9      C    -1.30949094    -0.46293084     2.43761166
     10      H    -1.42129267    -1.54879167     2.50277394
     11      C    -4.47884259    -0.74587522    -1.62684410
     12      C    -3.96863555     0.54245578    -1.47191513
     13      C    -2.87451978     0.76758900    -0.63618397
     14      C    -2.26905334    -0.28605365     0.06342032
     15      C    -2.78776879    -1.57855917    -0.10965642
     16      C    -3.88298590    -1.80614513    -0.94135923
     17      H    -4.42458111     1.37873981    -1.99706465
     18      H    -2.48985544     1.77816301    -0.52005434
     19      H    -2.35600157    -2.42209525     0.42369547
     20      H    -4.27431484    -2.81504393    -1.05109802
     21      H    -5.33291680    -0.92395795    -2.27584890
     22      H     2.53030429    -0.74365292    -0.93277882
     23      I     2.63555748     1.39633180    -0.39840016
     24      I     0.91477954     3.69237508     0.63465007
 
Total System Charge             0.00000
 
 *** GOStep11 ***

 Energy gradients wrt nuclear displacements
 ==========================================

     Atom      Cartesian (a.u./angstrom)
                 X         Y         Z
 ----------------------------------------
     1 H    -0.003724  0.001214  0.002793
     2 C    -0.007371  0.001818  0.001551
     3 C     0.006836 -0.022523 -0.009869
     4 C     0.039805  0.032821 -0.012306
     5 O     0.022380  0.022690  0.007867
     6 H     0.000024 -0.001292  0.000866
     7 H    -0.000275 -0.000023  0.000748
     8 H    -0.000171  0.000039  0.000021
     9 C    -0.000983  0.001917  0.001522
    10 H    -0.000276  0.000264 -0.001077
    11 C    -0.000301  0.000396  0.000422
    12 C     0.000201 -0.000186 -0.000464
    13 C    -0.000321 -0.000347  0.000530
    14 C     0.004727 -0.001256  0.000949
    15 C     0.000668 -0.000093 -0.002551
    16 C    -0.000238 -0.000244  0.000713
    17 H    -0.000062  0.000172  0.000142
    18 H    -0.000052  0.000466  0.000337
    19 H    -0.000787 -0.000085  0.000645
    20 H    -0.000136  0.000017  0.000196
    21 H     0.000048  0.000078 -0.000055
    22 H    -0.054912  0.018889  0.016040
    23 I     0.002548 -0.061020 -0.012185
    24 I    -0.007628  0.006289  0.003165
 ----------------------------------------
 Mulliken charges used for AMS results%charges...

 dE(predicted):    -0.10409E-01, dE(actual):    -0.12231E-01, Trust radius:    1.000000, all in a.u.
 
----------------------------------------------------------------------
Geometry Convergence after Step  11       (Hartree/Angstrom,Angstrom)
----------------------------------------------------------------------
current energy                               -4.74968534 Hartree
energy change                      -0.01223057     0.00024000    F
constrained gradient max            0.06095965     0.00100000    F
constrained gradient rms            0.01306352     0.00066667    F
gradient max                        0.06095965
gradient rms                        0.01306352
cart. step max                      0.14569511     0.01000000    F
cart. step rms                      0.03636397     0.00666667    F
 
 
--------
Geometry
--------
Formula: C10H11I2O
Atoms
  Index Symbol   x (angstrom)   y (angstrom)   z (angstrom)
      1      H     0.15368941    -1.68372785     0.26058094
      2      C    -1.12567462     0.01329851     0.98114067
      3      C     0.15954497    -0.59639458     0.38267170
      4      C     1.27471210    -0.00540025     0.00973380
      5      O     3.54985197    -0.31931629    -1.04289444
      6      H    -0.97624756     1.09568588     0.99048383
      7      H    -2.19212861    -0.02132798     2.86656805
      8      H    -0.43193692    -0.15898185     3.03775249
      9      C    -1.29051114    -0.46704284     2.43465016
     10      H    -1.38465712    -1.55423690     2.50547814
     11      C    -4.49890218    -0.76217552    -1.63638463
     12      C    -3.98140846     0.52564088    -1.50115005
     13      C    -2.89533817     0.75930834    -0.65744672
     14      C    -2.31319331    -0.28316122     0.07829133
     15      C    -2.84766897    -1.57253734    -0.06375230
     16      C    -3.92531457    -1.81096378    -0.91533002
     17      H    -4.41503371     1.35120051    -2.06066157
     18      H    -2.48943467     1.76474320    -0.57423564
     19      H    -2.41565774    -2.41060711     0.47759920
     20      H    -4.31769918    -2.82019916    -1.01626013
     21      H    -5.34062923    -0.94891288    -2.29876616
     22      H     2.62297454    -0.71396258    -0.93836815
     23      I     2.66316809     1.41525897    -0.39808748
     24      I     1.02977445     3.68801616     0.78034518
 
Total System Charge             0.00000
 
 *** GOStep12 ***

 Energy gradients wrt nuclear displacements
 ==========================================

     Atom      Cartesian (a.u./angstrom)
                 X         Y         Z
 ----------------------------------------
     1 H    -0.000535  0.000804  0.000950
     2 C    -0.009224  0.000129  0.002682
     3 C    -0.000009 -0.027066 -0.003493
     4 C     0.016551  0.021645 -0.003804
     5 O     0.025788  0.016942  0.005139
     6 H     0.001097  0.002227 -0.001736
     7 H     0.000027  0.000191 -0.000409
     8 H     0.000065  0.000046  0.000036
     9 C     0.001959 -0.001005  0.000080
    10 H    -0.000225  0.000054 -0.000081
    11 C     0.000257  0.000123 -0.000601
    12 C    -0.000800  0.000326  0.000464
    13 C    -0.000897  0.000255  0.000067
    14 C     0.001557  0.000191  0.000932
    15 C    -0.001724  0.000583  0.001834
    16 C     0.000624 -0.000290 -0.000404
    17 H     0.000329 -0.000126 -0.000214
    18 H     0.000591  0.000014 -0.000463
    19 H     0.000661 -0.000306 -0.000951
    20 H     0.000249  0.000143 -0.000130
    21 H     0.000071  0.000086  0.000122
    22 H    -0.047684  0.024527  0.016590
    23 I     0.016093 -0.044971 -0.020790
    24 I    -0.004821  0.005481  0.004183
 ----------------------------------------
 Mulliken charges used for AMS results%charges...
 Rebuilding optimization coordinates

 dE(predicted):    -0.25725E-02, dE(actual):    -0.31944E-02, Trust radius:    1.000000, all in a.u.
 
----------------------------------------------------------------------
Geometry Convergence after Step  12       (Hartree/Angstrom,Angstrom)
----------------------------------------------------------------------
current energy                               -4.75287978 Hartree
energy change                      -0.00319444     0.00024000    F
constrained gradient max            0.04767858     0.00100000    F
constrained gradient rms            0.01088997     0.00066667    F
gradient max                        0.04767858
gradient rms                        0.01088997
cart. step max                      0.13229486     0.01000000    F
cart. step rms                      0.03469283     0.00666667    F
 
 
--------
Geometry
--------
Formula: C10H11I2O
Atoms
  Index Symbol   x (angstrom)   y (angstrom)   z (angstrom)
      1      H     0.17587953    -1.68444210     0.23404033
      2      C    -1.12917459    -0.00531892     0.98481661
      3      C     0.15202479    -0.59811767     0.37433246
      4      C     1.26983730    -0.01097882    -0.00346294
      5      O     3.64971274    -0.24408527    -1.03596557
      6      H    -0.98165044     1.07337294     1.03776630
      7      H    -2.21219817    -0.06951837     2.85982620
      8      H    -0.45274387    -0.19822985     3.04288856
      9      C    -1.30457264    -0.50477417     2.42991588
     10      H    -1.39129236    -1.59322384     2.49002477
     11      C    -4.51402070    -0.74955734    -1.62742661
     12      C    -3.95817327     0.52565233    -1.52652783
     13      C    -2.86894903     0.75079766    -0.68476992
     14      C    -2.31579670    -0.29014969     0.07448011
     15      C    -2.87634602    -1.57029109    -0.04630249
     16      C    -3.96849317    -1.79663406    -0.88292235
     17      H    -4.37882013     1.35190318    -2.09467345
     18      H    -2.45099177     1.75148100    -0.60645831
     19      H    -2.48034990    -2.40058610     0.53279007
     20      H    -4.39699403    -2.79387138    -0.95044564
     21      H    -5.36632259    -0.92696004    -2.27871781
     22      H     2.75526940    -0.68991992    -0.92747322
     23      I     2.66150937     1.45834944    -0.41438695
     24      I     0.99493564     3.69930639     0.72061001
 
Total System Charge             0.00000
 
 *** GOStep13 ***

 Energy gradients wrt nuclear displacements
 ==========================================

     Atom      Cartesian (a.u./angstrom)
                 X         Y         Z
 ----------------------------------------
     1 H     0.003333  0.000432 -0.000530
     2 C    -0.005119  0.002979 -0.000534
     3 C    -0.008948 -0.027505 -0.001617
     4 C     0.002263  0.013702  0.001634
     5 O     0.031788  0.012535  0.000178
     6 H     0.000979 -0.001395  0.003808
     7 H    -0.000102  0.000055 -0.000089
     8 H    -0.000234  0.000008 -0.000306
     9 C     0.000715  0.002295 -0.000854
    10 H    -0.000266  0.000033 -0.000396
    11 C    -0.000432 -0.000008  0.000211
    12 C     0.000861  0.000121 -0.001178
    13 C     0.000202 -0.000129 -0.000961
    14 C    -0.000567 -0.000859  0.001526
    15 C     0.001820 -0.000566 -0.001970
    16 C    -0.000526 -0.000009  0.000502
    17 H    -0.000264 -0.000071  0.000541
    18 H    -0.000388  0.000186  0.000612
    19 H    -0.000525  0.000309  0.000907
    20 H    -0.000152  0.000311  0.000202
    21 H     0.000092  0.000044  0.000144
    22 H    -0.044944  0.023352  0.015808
    23 I     0.023354 -0.029590 -0.020905
    24 I    -0.002940  0.003770  0.003266
 ----------------------------------------
 Mulliken charges used for AMS results%charges...

 dE(predicted):    -0.18655E-02, dE(actual):    -0.26992E-02, Trust radius:    1.000000, all in a.u.
 
----------------------------------------------------------------------
Geometry Convergence after Step  13       (Hartree/Angstrom,Angstrom)
----------------------------------------------------------------------
current energy                               -4.75557901 Hartree
energy change                      -0.00269923     0.00024000    F
constrained gradient max            0.04494150     0.00100000    F
constrained gradient rms            0.00985829     0.00066667    F
gradient max                        0.04494150
gradient rms                        0.00985829
cart. step max                      0.05575705     0.01000000    F
cart. step rms                      0.01409570     0.00666667    F
 
 
--------
Geometry
--------
Formula: C10H11I2O
Atoms
  Index Symbol   x (angstrom)   y (angstrom)   z (angstrom)
      1      H     0.14812884    -1.67944262     0.21870575
      2      C    -1.13476593     0.00169618     0.98931832
      3      C     0.13884392    -0.59453455     0.37456100
      4      C     1.26331582    -0.02450571    -0.00862436
      5      O     3.64635156    -0.23887623    -1.06015593
      6      H    -0.99609743     1.08523157     1.01440708
      7      H    -2.19908888    -0.06912361     2.87542573
      8      H    -0.43712905    -0.18146016     3.04200405
      9      C    -1.29197156    -0.49745601     2.43777668
     10      H    -1.36736158    -1.58644471     2.50339584
     11      C    -4.50840014    -0.75435881    -1.63460005
     12      C    -3.96083192     0.52380662    -1.52675805
     13      C    -2.87594988     0.75234373    -0.68034698
     14      C    -2.32879451    -0.28482773     0.08808260
     15      C    -2.89540311    -1.56326163    -0.02219952
     16      C    -3.96957243    -1.79745671    -0.87975500
     17      H    -4.36572606     1.34346784    -2.11564088
     18      H    -2.44394598     1.74826195    -0.62118391
     19      H    -2.48818744    -2.39599126     0.54524506
     20      H    -4.38599505    -2.79896272    -0.95943060
     21      H    -5.34599781    -0.93810260    -2.30304579
     22      H     2.76068358    -0.69877538    -0.95597827
     23      I     2.64971972     1.45649998    -0.39561161
     24      I     1.00045469     3.67647688     0.77636706
 
Total System Charge             0.00000
 
 *** GOStep14 ***

 Energy gradients wrt nuclear displacements
 ==========================================

     Atom      Cartesian (a.u./angstrom)
                 X         Y         Z
 ----------------------------------------
     1 H     0.003239  0.000317 -0.001292
     2 C    -0.003090 -0.000176  0.001169
     3 C    -0.010677 -0.023788  0.002164
     4 C     0.003656  0.011686  0.000159
     5 O     0.032753  0.009732 -0.001235
     6 H    -0.000623  0.002371 -0.001401
     7 H     0.000037  0.000128 -0.000403
     8 H    -0.000059 -0.000037 -0.000067
     9 C     0.001320 -0.001539 -0.000736
    10 H    -0.000169 -0.000117  0.000747
    11 C     0.000348 -0.000240 -0.000624
    12 C    -0.001195  0.000646  0.001432
    13 C    -0.000232  0.000419 -0.000118
    14 C     0.000302  0.001117 -0.000097
    15 C    -0.001787  0.000432  0.003036
    16 C     0.000493 -0.000118 -0.000750
    17 H     0.000540 -0.000296 -0.000483
    18 H     0.000517 -0.000311 -0.000477
    19 H     0.000818 -0.000079 -0.000991
    20 H     0.000246  0.000122 -0.000251
    21 H     0.000156  0.000006 -0.000012
    22 H    -0.043754  0.020426  0.015897
    23 I     0.019535 -0.023543 -0.018549
    24 I    -0.002372  0.002842  0.002884
 ----------------------------------------
 Mulliken charges used for AMS results%charges...

 dE(predicted):    -0.95929E-03, dE(actual):    -0.16236E-02, Trust radius:    1.000000, all in a.u.
 Residual max backtransformation error   0.3241E-05
 
----------------------------------------------------------------------
Geometry Convergence after Step  14       (Hartree/Angstrom,Angstrom)
----------------------------------------------------------------------
current energy                               -4.75720258 Hartree
energy change                      -0.00162357     0.00024000    F
constrained gradient max            0.04375048     0.00100000    F
constrained gradient rms            0.00908979     0.00066667    F
gradient max                        0.04375048
gradient rms                        0.00908979
cart. step max                      0.18943465     0.01000000    F
cart. step rms                      0.05423433     0.00666667    F
 
 
--------
Geometry
--------
Formula: C10H11I2O
Atoms
  Index Symbol   x (angstrom)   y (angstrom)   z (angstrom)
      1      H     0.09098383    -1.68512805     0.17010770
      2      C    -1.13413512    -0.00921326     0.99471288
      3      C     0.11123930    -0.60408491     0.36663333
      4      C     1.25322240    -0.10283125    -0.04841444
      5      O     3.74259956    -0.11512821    -1.07311209
      6      H    -1.00117016     1.07537264     1.00028315
      7      H    -2.16802919    -0.10275907     2.90045100
      8      H    -0.40165165    -0.17366546     3.03823590
      9      C    -1.25915533    -0.51094446     2.44821494
     10      H    -1.30320545    -1.60099059     2.52091544
     11      C    -4.51451977    -0.73648908    -1.63655764
     12      C    -3.91995479     0.52297284    -1.56684504
     13      C    -2.84099109     0.74240913    -0.71053808
     14      C    -2.34483411    -0.28519034     0.10299846
     15      C    -2.95816410    -1.54464426     0.03121759
     16      C    -4.02478565    -1.77112961    -0.83820560
     17      H    -4.28500455     1.33509804    -2.19159639
     18      H    -2.36338508     1.71851452    -0.69286687
     19      H    -2.57666574    -2.37569599     0.61773413
     20      H    -4.47299786    -2.76071246    -0.89371492
     21      H    -5.35004837    -0.91226624    -2.30993006
     22      H     2.95011822    -0.70424740    -1.00457150
     23      I     2.54615177     1.49970822    -0.34165119
     24      I     0.83666231     3.58524956     0.81845747
 
Total System Charge             0.00000
 
 *** GOStep15 ***

 Energy gradients wrt nuclear displacements
 ==========================================

     Atom      Cartesian (a.u./angstrom)
                 X         Y         Z
 ----------------------------------------
     1 H     0.005199  0.000404 -0.004014
     2 C     0.007836 -0.005081 -0.001347
     3 C    -0.018695 -0.000357  0.015111
     4 C     0.003812 -0.005097 -0.004450
     5 O     0.033422 -0.002831 -0.007218
     6 H    -0.001809  0.003002 -0.006056
     7 H     0.000362  0.000180 -0.000668
     8 H     0.000550 -0.000179  0.000812
     9 C     0.002257 -0.004961 -0.000075
    10 H     0.000528  0.000116  0.002041
    11 C     0.000779 -0.000261 -0.000673
    12 C    -0.000405 -0.000125  0.000702
    13 C    -0.000614  0.000670  0.001661
    14 C    -0.002168  0.003429 -0.002584
    15 C    -0.004014  0.000844  0.005414
    16 C     0.001199 -0.000004 -0.001688
    17 H     0.000268 -0.000069 -0.000501
    18 H     0.001151 -0.000996 -0.001408
    19 H     0.001628 -0.000154 -0.002700
    20 H     0.000280 -0.000177 -0.000463
    21 H    -0.000205  0.000163  0.000153
    22 H    -0.032865  0.008970  0.012113
    23 I    -0.000882  0.006878 -0.003580
    24 I     0.002385 -0.004363 -0.000584
 ----------------------------------------
 Mulliken charges used for AMS results%charges...

 dE(predicted):    -0.45116E-02, dE(actual):    -0.58332E-02, Trust radius:    1.000000, all in a.u.
 
----------------------------------------------------------------------
Geometry Convergence after Step  15       (Hartree/Angstrom,Angstrom)
----------------------------------------------------------------------
current energy                               -4.76303580 Hartree
energy change                      -0.00583322     0.00024000    F
constrained gradient max            0.03342027     0.00100000    F
constrained gradient rms            0.00699174     0.00066667    F
gradient max                        0.03342027
gradient rms                        0.00699174
cart. step max                      0.16035312     0.01000000    F
cart. step rms                      0.03699635     0.00666667    F
 
 
--------
Geometry
--------
Formula: C10H11I2O
Atoms
  Index Symbol   x (angstrom)   y (angstrom)   z (angstrom)
      1      H     0.08135149    -1.69971166     0.14447241
      2      C    -1.11654722    -0.02067796     0.97877895
      3      C     0.12062946    -0.61801865     0.34262567
      4      C     1.27218776    -0.15073471    -0.07607049
      5      O     3.83466789    -0.03217805    -1.02120462
      6      H    -0.98014707     1.06128354     1.00819626
      7      H    -2.18162698    -0.12458093     2.86895803
      8      H    -0.41705493    -0.20180693     3.03063650
      9      C    -1.26737812    -0.53152580     2.42641244
     10      H    -1.31501852    -1.62220785     2.48708682
     11      C    -4.53655880    -0.71920415    -1.61022427
     12      C    -3.92030918     0.53104605    -1.56191447
     13      C    -2.81793585     0.73766250    -0.73253229
     14      C    -2.32864513    -0.28994126     0.08540363
     15      C    -2.96974979    -1.53645595     0.04295593
     16      C    -4.05734894    -1.75190329    -0.80285643
     17      H    -4.27621386     1.34066045    -2.19516041
     18      H    -2.33349027     1.71048404    -0.72105264
     19      H    -2.61354822    -2.35913027     0.65693576
     20      H    -4.53076138    -2.73084815    -0.83187441
     21      H    -5.38231467    -0.88876512    -2.27237503
     22      H     3.11047135    -0.69599041    -0.98715804
     23      I     2.50587536     1.51790336    -0.30549003
     24      I     0.73174501     3.55884551     0.74740894
 
Total System Charge             0.00000
 
 *** GOStep16 ***

 Energy gradients wrt nuclear displacements
 ==========================================

     Atom      Cartesian (a.u./angstrom)
                 X         Y         Z
 ----------------------------------------
     1 H     0.005593 -0.000205 -0.003432
     2 C     0.012436 -0.004010 -0.002910
     3 C    -0.015863  0.011387  0.012710
     4 C     0.002913 -0.015336 -0.005910
     5 O     0.030070 -0.006807 -0.008343
     6 H    -0.001814  0.001288 -0.002535
     7 H     0.000037 -0.000007  0.000106
     8 H     0.000338  0.000082  0.000176
     9 C    -0.001379 -0.002659  0.000187
    10 H     0.000326 -0.000172  0.000892
    11 C     0.000881 -0.000448 -0.000844
    12 C    -0.002974  0.001300  0.003644
    13 C     0.001349 -0.000160 -0.000366
    14 C    -0.001046  0.000535 -0.003619
    15 C    -0.001998  0.000731  0.003175
    16 C     0.000356  0.000081 -0.000622
    17 H     0.000907 -0.000345 -0.001215
    18 H     0.000166 -0.000226 -0.000326
    19 H     0.000584  0.000006 -0.000634
    20 H     0.000156 -0.000189 -0.000282
    21 H     0.000219 -0.000046 -0.000374
    22 H    -0.025257  0.005889  0.009155
    23 I    -0.011787  0.017844  0.004207
    24 I     0.005788 -0.008533 -0.002841
 ----------------------------------------
 Mulliken charges used for AMS results%charges...

 dE(predicted):    -0.13293E-02, dE(actual):    -0.16903E-02, Trust radius:    1.000000, all in a.u.
 
----------------------------------------------------------------------
Geometry Convergence after Step  16       (Hartree/Angstrom,Angstrom)
----------------------------------------------------------------------
current energy                               -4.76472605 Hartree
energy change                      -0.00169025     0.00024000    F
constrained gradient max            0.03006645     0.00100000    F
constrained gradient rms            0.00696417     0.00066667    F
gradient max                        0.03006645
gradient rms                        0.00696417
cart. step max                      0.09590058     0.01000000    F
cart. step rms                      0.02315951     0.00666667    F
 
 
--------
Geometry
--------
Formula: C10H11I2O
Atoms
  Index Symbol   x (angstrom)   y (angstrom)   z (angstrom)
      1      H     0.05941155    -1.71309094     0.12080118
      2      C    -1.11195936    -0.02627621     0.96102789
      3      C     0.12399279    -0.63197439     0.31725841
      4      C     1.28290546    -0.17935256    -0.08896082
      5      O     3.88658354     0.01410070    -0.96112001
      6      H    -0.96559782     1.05347576     0.99662714
      7      H    -2.16918148    -0.12003291     2.85485247
      8      H    -0.40409475    -0.20639941     3.00976457
      9      C    -1.25861148    -0.53223069     2.40976251
     10      H    -1.31227416    -1.62258521     2.46954998
     11      C    -4.56092626    -0.71274463    -1.59292838
     12      C    -3.91903808     0.52532778    -1.57625759
     13      C    -2.81774981     0.73309863    -0.74574011
     14      C    -2.32872375    -0.29323782     0.07460914
     15      C    -2.97097213    -1.53923934     0.03335516
     16      C    -4.07930317    -1.74568301    -0.78729443
     17      H    -4.28901033     1.34130730    -2.19294731
     18      H    -2.33157309     1.70512300    -0.73767911
     19      H    -2.61909664    -2.36045352     0.65196657
     20      H    -4.56981031    -2.71651570    -0.79449676
     21      H    -5.42793596    -0.87301480    -2.22937799
     22      H     3.20637193    -0.68995962    -0.96076780
     23      I     2.49464698     1.51727021    -0.25614441
     24      I     0.69422571     3.55729173     0.72609789
 
Total System Charge             0.00000
 
 *** GOStep17 ***

 Energy gradients wrt nuclear displacements
 ==========================================

     Atom      Cartesian (a.u./angstrom)
                 X         Y         Z
 ----------------------------------------
     1 H     0.003819 -0.001035 -0.001833
     2 C     0.009069 -0.003735 -0.002750
     3 C    -0.007144  0.015936  0.008268
     4 C     0.000880 -0.019704 -0.005910
     5 O     0.025245 -0.007768 -0.007999
     6 H    -0.000789  0.000269 -0.000420
     7 H     0.000069 -0.000056  0.000078
     8 H     0.000217  0.000142  0.000035
     9 C    -0.001584 -0.000777  0.000618
    10 H     0.000316 -0.000016 -0.000026
    11 C    -0.000732  0.000339  0.001030
    12 C     0.002387 -0.001322 -0.003069
    13 C    -0.000612  0.000497  0.001554
    14 C    -0.002827  0.000099 -0.000972
    15 C     0.000666 -0.000175 -0.000531
    16 C    -0.000133  0.000190 -0.000084
    17 H    -0.000624  0.000359  0.000697
    18 H     0.000040 -0.000018 -0.000191
    19 H    -0.000058  0.000137  0.000104
    20 H    -0.000096 -0.000016  0.000056
    21 H    -0.000233  0.000149  0.000199
    22 H    -0.019983  0.005401  0.007410
    23 I    -0.015086  0.020631  0.007356
    24 I     0.007191 -0.009528 -0.003621
 ----------------------------------------
 Mulliken charges used for AMS results%charges...

 dE(predicted):    -0.64089E-03, dE(actual):    -0.90842E-03, Trust radius:    1.000000, all in a.u.
 
----------------------------------------------------------------------
Geometry Convergence after Step  17       (Hartree/Angstrom,Angstrom)
----------------------------------------------------------------------
current energy                               -4.76563447 Hartree
energy change                      -0.00090842     0.00024000    F
constrained gradient max            0.02524197     0.00100000    F
constrained gradient rms            0.00652468     0.00066667    F
gradient max                        0.02524197
gradient rms                        0.00652468
cart. step max                      0.12612492     0.01000000    F
cart. step rms                      0.03346582     0.00666667    F
 
 
--------
Geometry
--------
Formula: C10H11I2O
Atoms
  Index Symbol   x (angstrom)   y (angstrom)   z (angstrom)
      1      H     0.02712163    -1.74224080     0.08517451
      2      C    -1.10311532    -0.03697338     0.92886003
      3      C     0.13195099    -0.66349794     0.27285720
      4      C     1.30012269    -0.21762880    -0.10336578
      5      O     3.95050233     0.06382511    -0.85264864
      6      H    -0.93190138     1.03598797     0.97534093
      7      H    -2.14504739    -0.09147061     2.82944205
      8      H    -0.38072458    -0.21251790     2.97250024
      9      C    -1.24585260    -0.52535515     2.38177237
     10      H    -1.32324250    -1.61384973     2.44739927
     11      C    -4.59397021    -0.70490191    -1.56866895
     12      C    -3.95489809     0.53458964    -1.55061213
     13      C    -2.82732141     0.73058607    -0.75345546
     14      C    -2.32451816    -0.30039368     0.05370666
     15      C    -2.97140313    -1.54440698     0.01828848
     16      C    -4.09883417    -1.74286304    -0.77760895
     17      H    -4.33462751     1.35466601    -2.15560336
     18      H    -2.34611984     1.70512356    -0.74084525
     19      H    -2.61934126    -2.36625759     0.63638006
     20      H    -4.59526327    -2.71056559    -0.77468005
     21      H    -5.47397077    -0.86023806    -2.18819216
     22      H     3.33249685    -0.69005265    -0.89914041
     23      I     2.49108621     1.50567994    -0.19273887
     24      I     0.64915026     3.57695981     0.65779643
 
Total System Charge             0.00000
 
 *** GOStep18 ***

 Energy gradients wrt nuclear displacements
 ==========================================

     Atom      Cartesian (a.u./angstrom)
                 X         Y         Z
 ----------------------------------------
     1 H    -0.000003 -0.001954  0.001461
     2 C    -0.000159 -0.000589 -0.001756
     3 C     0.007216  0.016451 -0.001851
     4 C    -0.002919 -0.022136 -0.004175
     5 O     0.017768 -0.005406 -0.006620
     6 H     0.001353 -0.003555  0.004321
     7 H     0.000061 -0.000165  0.000111
     8 H    -0.000146  0.000117 -0.000133
     9 C    -0.001183  0.003609  0.001064
    10 H     0.000143  0.000250 -0.001554
    11 C     0.000315 -0.000161 -0.000472
    12 C    -0.000628  0.000416  0.000651
    13 C     0.001335 -0.001178 -0.001930
    14 C    -0.001467 -0.002365  0.000131
    15 C     0.001683 -0.000252 -0.002795
    16 C    -0.000750  0.000197  0.000803
    17 H    -0.000127  0.000066  0.000254
    18 H    -0.000490  0.000548  0.000581
    19 H    -0.000721  0.000176  0.000915
    20 H    -0.000330  0.000236  0.000451
    21 H     0.000028  0.000010 -0.000002
    22 H    -0.014665  0.003595  0.005150
    23 I    -0.013371  0.020275  0.008877
    24 I     0.007058 -0.008187 -0.003482
 ----------------------------------------
 Mulliken charges used for AMS results%charges...

 dE(predicted):    -0.83536E-03, dE(actual):    -0.11368E-02, Trust radius:    1.000000, all in a.u.
 
----------------------------------------------------------------------
Geometry Convergence after Step  18       (Hartree/Angstrom,Angstrom)
----------------------------------------------------------------------
current energy                               -4.76677132 Hartree
energy change                      -0.00113685     0.00024000    F
constrained gradient max            0.02210684     0.00100000    F
constrained gradient rms            0.00574251     0.00066667    F
gradient max                        0.02210684
gradient rms                        0.00574251
cart. step max                      0.11383273     0.01000000    F
cart. step rms                      0.03431610     0.00666667    F
 
 
--------
Geometry
--------
Formula: C10H11I2O
Atoms
  Index Symbol   x (angstrom)   y (angstrom)   z (angstrom)
      1      H    -0.01778183    -1.75532104     0.01634970
      2      C    -1.09933492    -0.03220715     0.88681679
      3      C     0.13025840    -0.68629024     0.21713516
      4      C     1.31020859    -0.23840782    -0.11599055
      5      O     3.99498005     0.07693354    -0.73881591
      6      H    -0.91668248     1.04147404     0.90549864
      7      H    -2.10995426    -0.05183495     2.80202937
      8      H    -0.34629706    -0.20237538     2.91913450
      9      C    -1.22522120    -0.50576870     2.34491469
     10      H    -1.32303200    -1.59194984     2.42290526
     11      C    -4.63105142    -0.71340455    -1.54037235
     12      C    -3.99366336     0.52716595    -1.54054623
     13      C    -2.86071858     0.73324702    -0.75384883
     14      C    -2.33026378    -0.29871945     0.03493915
     15      C    -2.96862075    -1.54765337     0.00746276
     16      C    -4.11208814    -1.75073998    -0.76355558
     17      H    -4.39201047     1.34682024    -2.13389362
     18      H    -2.38832828     1.71210047    -0.74433458
     19      H    -2.60302393    -2.36731673     0.62096249
     20      H    -4.60101340    -2.72213541    -0.75412038
     21      H    -5.52225837    -0.87335859    -2.14239591
     22      H     3.42006661    -0.69982809    -0.83719491
     23      I     2.51845728     1.48010343    -0.10978127
     24      I     0.67965269     3.60367094     0.69865980
 
Total System Charge             0.00000
 
 *** GOStep19 ***

 Energy gradients wrt nuclear displacements
 ==========================================

     Atom      Cartesian (a.u./angstrom)
                 X         Y         Z
 ----------------------------------------
     1 H    -0.003654 -0.001646  0.003862
     2 C    -0.006907  0.000846  0.001934
     3 C     0.015494  0.008537 -0.008557
     4 C    -0.004576 -0.019560 -0.003094
     5 O     0.006668 -0.005420 -0.004659
     6 H     0.001156 -0.001070  0.001881
     7 H    -0.000050 -0.000168 -0.000065
     8 H    -0.000399  0.000138 -0.000544
     9 C    -0.000791  0.001957  0.000295
    10 H    -0.000307 -0.000086 -0.001068
    11 C    -0.001432  0.000712  0.001758
    12 C     0.002431 -0.000909 -0.003111
    13 C    -0.001253  0.000539  0.000592
    14 C     0.001934 -0.002150  0.000899
    15 C     0.002631 -0.000442 -0.003200
    16 C    -0.000600  0.000046  0.000772
    17 H    -0.000278  0.000161  0.000665
    18 H    -0.000615  0.000391  0.000700
    19 H    -0.001246  0.000251  0.001764
    20 H     0.000085  0.000125  0.000110
    21 H     0.000034 -0.000027  0.000073
    22 H    -0.007916  0.006511  0.004176
    23 I    -0.005636  0.015792  0.007066
    24 I     0.005228 -0.004527 -0.002249
 ----------------------------------------
 Mulliken charges used for AMS results%charges...

 dE(predicted):    -0.67321E-03, dE(actual):    -0.89093E-03, Trust radius:    1.000000, all in a.u.
 
----------------------------------------------------------------------
Geometry Convergence after Step  19       (Hartree/Angstrom,Angstrom)
----------------------------------------------------------------------
current energy                               -4.76766225 Hartree
energy change                      -0.00089093     0.00024000    F
constrained gradient max            0.01953317     0.00100000    F
constrained gradient rms            0.00464701     0.00066667    F
gradient max                        0.01953317
gradient rms                        0.00464701
cart. step max                      0.08408664     0.01000000    F
cart. step rms                      0.02433892     0.00666667    F
 
 
--------
Geometry
--------
Formula: C10H11I2O
Atoms
  Index Symbol   x (angstrom)   y (angstrom)   z (angstrom)
      1      H    -0.04548067    -1.77454670    -0.01567471
      2      C    -1.09770665    -0.03848719     0.87795168
      3      C     0.12063811    -0.71298351     0.19674996
      4      C     1.30463951    -0.25691847    -0.11745763
      5      O     4.00236277     0.07956707    -0.66756549
      6      H    -0.90011214     1.03075566     0.89160619
      7      H    -2.07149991    -0.01718623     2.81079418
      8      H    -0.30983861    -0.20063079     2.89843906
      9      C    -1.20419470    -0.49401825     2.34310718
     10      H    -1.32201651    -1.57675850     2.43899065
     11      C    -4.63762892    -0.70793487    -1.53845399
     12      C    -4.01742090     0.54094594    -1.51112388
     13      C    -2.87763700     0.74101873    -0.73264854
     14      C    -2.33993464    -0.29668194     0.04363707
     15      C    -2.97069766    -1.54958968     0.00034746
     16      C    -4.10802422    -1.75312235    -0.77942786
     17      H    -4.42400467     1.36642356    -2.09071355
     18      H    -2.40183333     1.71822449    -0.72328416
     19      H    -2.57895513    -2.38417894     0.57629762
     20      H    -4.58403489    -2.73092535    -0.79105135
     21      H    -5.52822790    -0.86609555    -2.14187137
     22      H     3.46293272    -0.72299093    -0.78205773
     23      I     2.51261181     1.46656985    -0.09920574
     24      I     0.62834291     3.62374825     0.61457317
 
Total System Charge             0.00000
 
 *** GOStep20 ***

 Energy gradients wrt nuclear displacements
 ==========================================

     Atom      Cartesian (a.u./angstrom)
                 X         Y         Z
 ----------------------------------------
     1 H    -0.004788 -0.000188  0.004455
     2 C    -0.009582  0.004262  0.000618
     3 C     0.014768 -0.000484 -0.010617
     4 C    -0.003509 -0.016538 -0.001391
     5 O     0.002803  0.001596 -0.002624
     6 H     0.001126 -0.003251  0.003383
     7 H    -0.000068 -0.000067 -0.000061
     8 H    -0.000433 -0.000045 -0.000214
     9 C     0.000846  0.002979 -0.000407
    10 H    -0.000142  0.000241 -0.000537
    11 C     0.000340 -0.000286 -0.000704
    12 C     0.000584 -0.000017 -0.000743
    13 C    -0.000227 -0.000382 -0.000570
    14 C     0.001693 -0.001089  0.002865
    15 C    -0.000324  0.000531  0.000142
    16 C    -0.000139 -0.000168 -0.000040
    17 H    -0.000351  0.000164  0.000649
    18 H     0.000279  0.000164 -0.000170
    19 H     0.000233 -0.000349 -0.000707
    20 H    -0.000118  0.000165  0.000257
    21 H    -0.000135  0.000066  0.000286
    22 H    -0.007856  0.000619  0.002416
    23 I     0.002968  0.013056  0.004694
    24 I     0.002029 -0.000980 -0.000979
 ----------------------------------------
 Mulliken charges used for AMS results%charges...

 dE(predicted):    -0.43709E-03, dE(actual):    -0.51103E-03, Trust radius:    1.000000, all in a.u.
 
----------------------------------------------------------------------
Geometry Convergence after Step  20       (Hartree/Angstrom,Angstrom)
----------------------------------------------------------------------
current energy                               -4.76817328 Hartree
energy change                      -0.00051103     0.00024000    F
[...]
    22     H      -0.004179  -0.003598  -0.012107
    23     I      -0.000853  -0.001381  -0.000477
    24     I       0.000016  -0.000224   0.000160
 
 Mode:    62      Frequency (cm-1):     3005.0406     Intensity (km/mol):       18.5837
 Index  Atom      ---- Displacements (x/y/z) ----
     1     H      -0.005263  -0.023088  -0.008935
     2     C      -0.000034   0.001277  -0.000136
     3     C       0.000797   0.001792   0.000427
     4     C      -0.000185   0.000068   0.000116
     5     O       0.000024   0.000001  -0.000024
     6     H      -0.002570  -0.011549  -0.001391
     7     H       0.455717  -0.217922  -0.400942
     8     H      -0.463799  -0.082565  -0.202268
     9     C      -0.005095  -0.021343   0.043832
    10     H       0.072376   0.551455   0.091100
    11     C      -0.000009  -0.000007   0.000011
    12     C       0.000009  -0.000075   0.000002
    13     C       0.000199   0.000033   0.000101
    14     C      -0.000510  -0.000136  -0.000319
    15     C      -0.000683   0.001607  -0.000612
    16     C       0.000046  -0.000041   0.000026
    17     H      -0.000128   0.000591  -0.000139
    18     H      -0.000474  -0.000439  -0.000130
    19     H       0.007797  -0.017652   0.005378
    20     H       0.000784   0.001303   0.000204
    21     H       0.000090   0.000114   0.000034
    22     H      -0.000094   0.000130   0.000091
    23     I       0.000002   0.000001  -0.000001
    24     I       0.000000  -0.000002   0.000002
 
 Mode:    63      Frequency (cm-1):     3037.7491     Intensity (km/mol):        1.2167
 Index  Atom      ---- Displacements (x/y/z) ----
     1     H      -0.057807  -0.297182  -0.122213
     2     C      -0.015889  -0.073425  -0.016011
     3     C       0.005153   0.024144   0.009740
     4     C      -0.000833   0.000127   0.000537
     5     O       0.000005  -0.000008   0.000029
     6     H       0.187594   0.885434   0.186354
     7     H       0.061883  -0.024963  -0.050032
     8     H      -0.056444  -0.005256  -0.020732
     9     C       0.001227   0.014308   0.007780
    10     H      -0.020036  -0.141261  -0.022043
    11     C       0.000029   0.000103   0.000011
    12     C      -0.000109  -0.000108   0.000011
    13     C       0.001621   0.002428   0.000585
    14     C       0.000373  -0.001028   0.000088
    15     C       0.000762  -0.000969   0.000438
    16     C       0.000100  -0.000049   0.000050
    17     H      -0.001754   0.003257  -0.001235
    18     H      -0.015895  -0.024801  -0.005365
    19     H      -0.006136   0.013986  -0.004449
    20     H      -0.000729  -0.000994  -0.000379
    21     H       0.000050   0.000206  -0.000148
    22     H       0.000084  -0.000225   0.000115
    23     I      -0.000003   0.000019   0.000010
    24     I      -0.000003  -0.000000  -0.000000
 
 Mode:    64      Frequency (cm-1):     3057.0145     Intensity (km/mol):        0.1917
 Index  Atom      ---- Displacements (x/y/z) ----
     1     H      -0.160762  -0.853617  -0.358126
     2     C       0.005887   0.025302   0.005202
     3     C       0.014903   0.071313   0.028758
     4     C      -0.001955   0.000209   0.001422
     5     O      -0.000012  -0.000033   0.000018
     6     H      -0.061025  -0.292516  -0.062339
     7     H      -0.055565   0.022378   0.047250
     8     H       0.052054   0.006129   0.020925
     9     C      -0.000725  -0.009797  -0.006955
    10     H       0.011905   0.086195   0.014588
    11     C      -0.000013  -0.000092   0.000008
    12     C       0.000112   0.000176   0.000011
    13     C      -0.000942  -0.001054  -0.000399
    14     C       0.000378   0.000184   0.000170
    15     C       0.000061  -0.000736   0.000021
    16     C      -0.000003   0.000115  -0.000032
    17     H       0.001020  -0.002191   0.000843
    18     H       0.007954   0.012661   0.002604
    19     H      -0.002450   0.005827  -0.002172
    20     H      -0.000605  -0.001234  -0.000209
    21     H      -0.000274  -0.000120  -0.000035
    22     H       0.000061   0.000003  -0.000117
    23     I      -0.000021  -0.000015   0.000008
    24     I      -0.000002  -0.000004  -0.000003
 
 Mode:    65      Frequency (cm-1):     3083.0356     Intensity (km/mol):       12.5385
 Index  Atom      ---- Displacements (x/y/z) ----
     1     H       0.007644   0.045259   0.020488
     2     C      -0.002084  -0.014229  -0.003491
     3     C      -0.000786  -0.003565  -0.001365
     4     C      -0.000082  -0.000016  -0.000034
     5     O       0.000011   0.000025   0.000004
     6     H       0.032902   0.161527   0.032391
     7     H      -0.507607   0.225682   0.451450
     8     H      -0.196059  -0.051774  -0.102056
     9     C       0.050773  -0.065949  -0.036104
    10     H       0.097003   0.613265   0.085927
    11     C       0.000021  -0.000022   0.000022
    12     C       0.000011  -0.000083   0.000006
    13     C       0.000577   0.000996   0.000244
    14     C      -0.000359  -0.000146   0.000027
    15     C      -0.002177   0.004549  -0.001537
    16     C      -0.000273  -0.000775  -0.000073
    17     H      -0.000715   0.001504  -0.000561
    18     H      -0.006498  -0.010894  -0.002074
    19     H       0.024607  -0.052253   0.016904
    20     H       0.005519   0.010266   0.001533
    21     H      -0.000597   0.000205  -0.000290
    22     H       0.000026  -0.000106   0.000035
    23     I       0.000004   0.000002  -0.000000
    24     I      -0.000001   0.000001  -0.000000
 
 Mode:    66      Frequency (cm-1):     3093.3687     Intensity (km/mol):       12.7159
 Index  Atom      ---- Displacements (x/y/z) ----
     1     H      -0.005334  -0.034251  -0.015212
     2     C       0.003141   0.010545   0.002214
     3     C       0.000477   0.002888   0.001192
     4     C      -0.000177  -0.000023   0.000030
     5     O       0.000057   0.000034  -0.000036
     6     H      -0.026755  -0.122311  -0.024016
     7     H      -0.137970   0.083002   0.142070
     8     H      -0.741074  -0.116818  -0.336035
     9     C       0.077509   0.043878   0.022343
    10     H      -0.050009  -0.490563  -0.071258
    11     C      -0.000004  -0.000040  -0.000007
    12     C       0.000010   0.000215  -0.000024
    13     C      -0.000874  -0.001119  -0.000238
    14     C      -0.000028   0.000287  -0.000193
    15     C       0.001909  -0.004349   0.001422
    16     C       0.000374   0.001031   0.000113
    17     H       0.001338  -0.002706   0.000842
    18     H       0.008007   0.013500   0.002371
    19     H      -0.022778   0.048599  -0.016301
    20     H      -0.006806  -0.012762  -0.002022
    21     H       0.000360  -0.000190   0.000176
    22     H      -0.000037   0.000261  -0.000185
    23     I      -0.000001  -0.000009   0.000005
    24     I      -0.000001   0.000001  -0.000002
 
 Mode:    67      Frequency (cm-1):     3122.4082     Intensity (km/mol):        2.8439
 Index  Atom      ---- Displacements (x/y/z) ----
     1     H      -0.000678  -0.004565  -0.001958
     2     C      -0.000193  -0.000633  -0.000197
     3     C       0.000068   0.000346   0.000151
     4     C       0.000019   0.000019  -0.000003
     5     O       0.000002  -0.000004  -0.000003
     6     H       0.003302   0.009567   0.002747
     7     H       0.006581  -0.002335  -0.005337
     8     H      -0.009358  -0.001178  -0.003677
     9     C       0.000559   0.002948   0.001164
    10     H      -0.004520  -0.032600  -0.005138
    11     C       0.036648   0.000561   0.017506
    12     C      -0.015287   0.031806  -0.010564
    13     C      -0.011642  -0.023193  -0.002982
    14     C      -0.001372   0.000011  -0.000712
    15     C      -0.011029   0.026439  -0.007917
    16     C      -0.023076  -0.042244  -0.006903
    17     H       0.182706  -0.381009   0.126334
    18     H       0.147420   0.270427   0.040140
    19     H       0.143928  -0.310146   0.100732
    20     H       0.273690   0.502575   0.081680
    21     H      -0.441417  -0.003685  -0.211107
    22     H      -0.000055   0.000024   0.000032
    23     I      -0.000001   0.000000  -0.000001
    24     I      -0.000001  -0.000001   0.000001
 
 Mode:    68      Frequency (cm-1):     3129.8555     Intensity (km/mol):        0.3476
 Index  Atom      ---- Displacements (x/y/z) ----
     1     H       0.001441   0.011025   0.005001
     2     C      -0.000482  -0.002183  -0.000479
     3     C      -0.000124  -0.000886  -0.000386
     4     C       0.000002  -0.000002  -0.000013
     5     O      -0.000001   0.000005  -0.000003
     6     H       0.006690   0.025374   0.005898
     7     H      -0.007937   0.002446   0.006313
     8     H       0.016602   0.002192   0.007136
     9     C      -0.001123  -0.004170  -0.001586
    10     H       0.006161   0.047195   0.006732
    11     C       0.002892  -0.001633   0.001560
    12     C      -0.017543   0.038477  -0.012314
    13     C      -0.022260  -0.042375  -0.005943
    14     C      -0.000444   0.000993  -0.000312
    15     C       0.013799  -0.031101   0.009707
    16     C       0.018580   0.035251   0.005437
    17     H       0.214454  -0.447927   0.148307
    18     H       0.269999   0.493058   0.073752
    19     H      -0.170521   0.365102  -0.119030
    20     H      -0.222396  -0.408983  -0.066380
    21     H      -0.034318   0.001167  -0.016555
    22     H      -0.000031  -0.000015   0.000007
    23     I       0.000002   0.000001   0.000003
    24     I      -0.000004  -0.000000   0.000001
 
 Mode:    69      Frequency (cm-1):     3138.4070     Intensity (km/mol):       11.4255
 Index  Atom      ---- Displacements (x/y/z) ----
     1     H      -0.000835  -0.005310  -0.002287
     2     C      -0.000450  -0.001165  -0.000371
     3     C       0.000127   0.000432   0.000225
     4     C       0.000042   0.000007  -0.000034
     5     O       0.000002   0.000002  -0.000005
     6     H       0.006249   0.016612   0.004928
     7     H       0.006369  -0.002238  -0.005225
     8     H      -0.007498  -0.001209  -0.002409
     9     C       0.000517   0.003218   0.001122
    10     H      -0.005100  -0.036007  -0.005901
    11     C      -0.047053  -0.000027  -0.022532
    12     C       0.007514  -0.009447   0.004570
    13     C      -0.022890  -0.042961  -0.006192
    14     C      -0.002371   0.000089  -0.001218
    15     C      -0.018278   0.041022  -0.012841
    16     C       0.002689  -0.000088   0.001293
    17     H      -0.062959   0.124117  -0.042831
    18     H       0.267102   0.488499   0.072906
    19     H       0.218209  -0.468946   0.152447
    20     H      -0.010089  -0.013036  -0.003453
    21     H       0.543592   0.003895   0.259950
    22     H      -0.000051   0.000011   0.000007
    23     I      -0.000002  -0.000001   0.000002
    24     I      -0.000004  -0.000000   0.000001
 
 Mode:    70      Frequency (cm-1):     3145.0320     Intensity (km/mol):       23.5097
 Index  Atom      ---- Displacements (x/y/z) ----
     1     H      -0.001125  -0.008889  -0.003975
     2     C       0.000224   0.001484   0.000224
     3     C       0.000088   0.000704   0.000314
     4     C       0.000022   0.000013   0.000004
     5     O       0.000000  -0.000009   0.000009
     6     H      -0.002961  -0.013958  -0.002922
     7     H       0.006930  -0.002209  -0.005569
     8     H      -0.010067  -0.001254  -0.004121
     9     C       0.000585   0.003507   0.001211
    10     H      -0.005509  -0.040523  -0.006084
    11     C      -0.000347  -0.003279   0.000144
    12     C      -0.019290   0.037098  -0.013010
    13     C       0.019682   0.032705   0.005775
    14     C      -0.000200  -0.002607   0.000146
    15     C      -0.021522   0.042402  -0.014530
    16     C       0.022013   0.037288   0.006869
    17     H       0.205746  -0.424478   0.141862
    18     H      -0.208810  -0.376142  -0.057632
    19     H       0.231379  -0.489408   0.160824
    20     H      -0.233526  -0.424883  -0.069936
    21     H       0.002749   0.004106   0.000923
    22     H       0.000061   0.000003  -0.000012
    23     I      -0.000002  -0.000000  -0.000004
    24     I       0.000003  -0.000001   0.000000
 
 Mode:    71      Frequency (cm-1):     3152.6406     Intensity (km/mol):       12.4021
 Index  Atom      ---- Displacements (x/y/z) ----
     1     H       0.000358   0.002011   0.000867
     2     C       0.000255   0.000441   0.000146
     3     C      -0.000052  -0.000168  -0.000104
     4     C      -0.000029   0.000010   0.000031
     5     O      -0.000002  -0.000007  -0.000004
     6     H      -0.002962  -0.006828  -0.002114
     7     H      -0.002019   0.000670   0.001757
     8     H       0.001290   0.000290   0.000046
     9     C      -0.000132  -0.001128  -0.000336
    10     H       0.001976   0.013136   0.002241
    11     C      -0.050981  -0.000608  -0.024353
    12     C      -0.018350   0.041088  -0.012965
    13     C       0.012570   0.020066   0.003795
    14     C       0.001285  -0.000006   0.000664
    15     C       0.011013  -0.020468   0.007319
    16     C      -0.018088  -0.035854  -0.005138
    17     H       0.212438  -0.445675   0.147140
    18     H      -0.126657  -0.226983  -0.035134
    19     H      -0.111155   0.233415  -0.077057
    20     H       0.208040   0.385307   0.061685
    21     H       0.562665   0.004493   0.269088
    22     H      -0.000056   0.000044   0.000066
    23     I       0.000002   0.000001  -0.000002
    24     I       0.000002  -0.000001   0.000001
 
 Mode:    72      Frequency (cm-1):     3736.8080     Intensity (km/mol):       94.2036
 Index  Atom      ---- Displacements (x/y/z) ----
     1     H      -0.000223  -0.000132   0.000074
     2     C       0.000024  -0.000043  -0.000016
     3     C      -0.000021  -0.000016  -0.000008
     4     C      -0.000010   0.000024  -0.000094
     5     O       0.057537  -0.022588  -0.011898
     6     H      -0.000046   0.000121  -0.000107
     7     H      -0.000055  -0.000071   0.000205
     8     H       0.000156  -0.000090   0.000047
     9     C      -0.000046   0.000020  -0.000015
    10     H       0.000078  -0.000016   0.000032
    11     C      -0.000000  -0.000001   0.000001
    12     C       0.000002  -0.000006   0.000001
    13     C      -0.000004   0.000003   0.000004
    14     C       0.000002   0.000006   0.000022
    15     C      -0.000003   0.000005   0.000001
    16     C       0.000001   0.000007  -0.000001
    17     H      -0.000018   0.000035  -0.000022
    18     H       0.000007  -0.000077  -0.000051
    19     H       0.000023   0.000001   0.000001
    20     H      -0.000043  -0.000069  -0.000017
    21     H      -0.000050  -0.000006  -0.000009
    22     H      -0.911131   0.357247   0.195582
    23     I       0.000002  -0.000000  -0.000025
    24     I      -0.000012   0.000013  -0.000020

PES point character: Geometry corresponds to a local minimum on the PES.




 ============================
 Statistical Thermal Analysis  ***  ideal gas assumed  ***
 ============================
  
 Pressure:                  1.000000 atm.
 Temperature:             298.150000 K



 Moments of Inertia [amu*bohr^2] and principal axis
 ==================================================

        4035.5443       8838.0315      12228.6953
 ------------------------------------------------
           0.8510         -0.4357         -0.2930
           0.4879          0.4498          0.7481
          -0.1942         -0.7796          0.5954


 The rotational contribution to the molecular entropy includes
 a term, dependent on the symmetry number sigma. The results 
 reported below were computed using sigma = 1, determined from
 the point group symmetry of the input geometry (NOSYM). 
 If this is not the correct symmetry, try symmetrizing the molecule before
 running the calculation (note: linear molecules should be aligned along one
 of the Cartesian axes).
 Contributions from frequencies below 20 1/cm are not included in vibrational sums.
 Their contributions, if any, are reported separately.


     Temp                                                        Transl      Rotat     Vibrat     Total
     ----                                                        ------      -----     ------     -----

     298.15   Entropy (cal/mol-K):                               43.857     34.433     51.391    129.681
              Nuclear Internal Energy (kcal/mol):                 0.889      0.889    118.421    120.199
              Constant Volume Heat Capacity (cal/mol-K):          2.981      2.981     46.086     52.047
          (c) Constant Volume Heat Capacity (cal/mol-K):          2.981      2.981     42.226     48.188

 Contributions from frequencies below 20 1/cm
 Frequency (1/cm):                                   15.463
 Entropy (cal/mol-K):                                 7.145
 Nuclear Internal Energy (kcal/mol):                  0.593
 Constant Volume Heat Capacity (cal/mol-K):           1.986

       Summary of energy terms
                                                   hartree              eV         kcal/mol           kJ/mol
                                      --------------------     -----------       ----------      -----------
      Energy from Engine:               -4.777103089049624       -129.9916         -2997.68        -12542.28
      Nuclear Internal Energy:           0.191548518531234          5.2123           120.20           502.91
  (c) Nuclear Internal Energy:           0.189569089094186          5.1584           118.96           497.71
      Internal Energy U:                -4.585554570518390       -124.7793         -2877.48        -12039.37
      pV/n = RT:                         0.000944186013486          0.0257             0.59             2.48
      Enthalpy H:                       -4.584610384504904       -124.7536         -2876.89        -12036.89
      -T*S:                             -0.061615700829641         -1.6766           -38.66          -161.77
  (c) -T*S:                             -0.060968641130178         -1.6590           -38.26          -160.07
      Gibbs free energy:                -4.646226085334545       -126.4302         -2915.55        -12198.66
 
 
 
  (c) The properties marked with this symbol have been corrected using 'low vibrational frequency free rotor
      interpolation corrections'. For those terms all positive frequencies are used (also ones below 20 1/cm),
      but the contribution to the partition function of small vibrational frequencies is modified as described
      in the following paper:
      S. Grimme, 'Supramolecular Binding Thermodynamics by Dispersion-Corrected Density Functional Theory'
      (Chem. Eur. J. 2012, 18, 9955-9964)
      Configuration: Dampener Frequency          :   100.000 1/cm
                     Dampener Alpha              :     4.000
                     Averaging Moment of Inertia : 1.000E-44 kg m2

--------------
Atomic charges
--------------
  Index   Atom    Charge
      1      H   -0.1598
      2      C    0.1416
      3      C    0.3211
      4      C   -0.1052
      5      O   -0.5758
      6      H   -0.1665
      7      H   -0.2268
      8      H   -0.2072
      9      C    0.6767
     10      H   -0.2237
     11      C    0.2414
     12      C    0.2446
     13      C    0.2889
     14      C    0.0347
     15      C    0.2898
     16      C    0.2481
     17      H   -0.2474
     18      H   -0.2553
     19      H   -0.2600
     20      H   -0.2510
     21      H   -0.2451
     22      H    0.2166
     23      I    0.5501
     24      I   -0.3301


Dipole moment vector    (Debye):    -0.86944472   -2.47726254    1.87489005
              magnitude (Debye):     3.22613957


Final PES point is a local minimum. Geometry optimization successful!


AMS application finished. Exiting.
NORMAL TERMINATION
     Total cpu time:  183221.91
  Total system time:     797.97
 Total elapsed time:  331501.44
