

 Parallel Execution: Process Information
 ==============================================================================
 Rank   Node Name                              NodeID   MyNodeRank  NodeMaster
    0   node117                                   0          0          0
    1   node117                                   0          1         -1
    2   node117                                   0          2         -1
    3   node117                                   0          3         -1
 ==============================================================================


May use up to 122928MB of RAM as shared memory on node 0

 *******************************************************************************
 *                                                                             *
 *  --------------------------------                                           *
 *   Amsterdam Modeling Suite (AMS)              2021.102                      *
 *  --------------------------------                                           *
 *                                               r95042 2021-06-07             *
 *                                                                             *
 *                                                                             *
 *                              =================                              *
 *                              |               |                              *
 *                              |     A M S     |                              *
 *                              |               |                              *
 *                              =================                              *
 *                                                                             *
 *                                                                             *
 *   Online information and documentation:  https://www.scm.com/support/       *
 *   E-mail:  support@scm.com   info@scm.com                                   *
 *                                                                             *
 *   Scientific publications using AMS results must be properly referenced     *
 *   See the User Manuals (or the web site) for recommended citations          *
 *   The terms and conditions of the End User License Agreement apply to       *
 *   the use of AMS, https://www.scm.com/license-terms/                        *
 *                                                                             *
 **********************  x86_64_linux_intel / intelmpi  ************************
 
 Licensed to: VU/FEW (+ SARA) / ALGEMEEN / Amsterdam / THE NETHERLANDS
 SCM User ID: u7668
  
 AMS 2021.102  RunTime: Jan27-2022 12:31:26  ShM Nodes: 1  Procs: 4

 AMS jobname: 11.achiral_catalyst.H_Ph_TiCl4.Rcat
 AMS jobid  : 717267877

 Start   directory: /scistor/tc/yhk800/MasterProject/calculations/achiral_catalyst_H_Ph_TiCl4/11.achiral_catalyst.H_Ph_TiCl4.Rcat/
 Results directory: /scistor/tc/yhk800/MasterProject/calculations/achiral_catalyst_H_Ph_TiCl4/11.achiral_catalyst.H_Ph_TiCl4.Rcat/
 Scratch directory: /scratch/5296/amstmp_11.achiral_catalyst.H_Ph_TiCl4.Rcat_kid0.717267877/


 Communication costs MPI_COMM_WORLD:      1.415 usec per message,   0.0178 usec per 8-byte item
 Communication costs for intra-node:      1.788 usec per message,   0.0145 usec per 8-byte item

 RNG seed: -1420836258 -1742941984 -342923255 -892864394 1480744461 1192522440 1591109697 1870668283



                      ************************************************************************
                      *  ADF 2021.102  RunTime: Jan27-2022 12:31:27  ShM Nodes: 1  Procs: 4  *
                      ************************************************************************
  
       ***************************
       *  GEOMETRY OPTIMIZATION  *
       ***************************

Optimization Method                    Quasi Newton
Optimization Coordinates               Delocalized Coordinates
Optimize lattice                       F
 
 ------------------------------------------------------
 Convergence criteria (Hartree,Angstrom)
 ------------------------------------------------------
 Maximum gradient               0.001000000000
 Maximum rms gradient           0.000666666667
 Maximum step allowed           0.010000000000
 Maximum rms step allowed       0.006666666667
 Maximum energy change allowe   0.000050000000
 Maximum stress energy allowe   0.000500000000
 
Initial model Hessian                  Automatic Hessian
 
------------------------------------
Quasi-Newton Optimizer Parameters
------------------------------------
Hessian Update Method                  BFGS
Maximum number of steps                  250
First GDIIS cycle                          0
Maximum GDIIS vectors                      0
Trust radius (bohr)                        0.200000
Trust radius varies                        T
Constraints converged at all steps         T
Use projector                              T
 
 Rigid motions settings for: old optimizer
 Atomic rotations (x,y,z):     T T T
 Atomic translations (x,y,z):  T T T
 Tolerance:                   1.000000000000000E-006
 
--------
Geometry
--------
Formula: Cl4Ti
Atoms
  Index Symbol   x (angstrom)   y (angstrom)   z (angstrom)
      1     Ti     3.41934693    -0.05999265    -0.05790763
      2     Cl     1.29000000     0.00000000     0.00000000
      3     Cl     4.12181292    -1.60367667     1.23230628
      4     Cl     4.20057232     1.81488691     0.58675066
      5     Cl     4.06500249    -0.45118083    -2.05068747
 
Total System Charge             0.00000
 
 
----------------
ADF Engine Input
----------------
 
 NumericalQuality VeryGood
 SCF
 Converge 1.0e-6
 Iterations 99
 End
 SYMMETRY NOSYM
 XC
 GGA OLYP
 End
 basis
 core None
 type TZ2P
 End
 

 Title: *** (NO TITLE) ***

 Using automatic Hessian for delocalized coordinates.
 *** GOStep1 ***

 Energy gradients wrt nuclear displacements
 ==========================================

     Atom      Cartesian (a.u./angstrom)
                 X         Y         Z
 ----------------------------------------
     1 Ti    0.000001  0.000032 -0.000009
     2 Cl    0.038794 -0.001082 -0.001037
     3 Cl   -0.012771  0.028092 -0.023537
     4 Cl   -0.014275 -0.034154 -0.011712
     5 Cl   -0.011748  0.007111  0.036295
 ----------------------------------------
 Mulliken charges used for AMS results%charges...
 
----------------------------------------------------------------------
Geometry Convergence after Step   1       (Hartree/Angstrom,Angstrom)
----------------------------------------------------------------------
current energy                               -0.76659905 Hartree
energy change                      -0.76659905     0.00005000    F
constrained gradient max            0.03879394     0.00100000    F
constrained gradient rms            0.02004457     0.00066667    F
gradient max                        0.03879394
gradient rms                        0.02004457
cart. step max                      0.02012831     0.01000000    F
cart. step rms                      0.01038954     0.00666667    F
 
 
--------
Geometry
--------
Formula: Cl4Ti
Atoms
  Index Symbol   x (angstrom)   y (angstrom)   z (angstrom)
      1     Ti     3.41933161    -0.06002742    -0.05787518
      2     Cl     1.26987169     0.00039207     0.00046930
      3     Cl     4.12837387    -1.61819130     1.24465703
      4     Cl     4.20813986     1.83251416     0.59274510
      5     Cl     4.07101763    -0.45465075    -2.06953441
 
Total System Charge             0.00000
 
 *** GOStep2 ***

 Energy gradients wrt nuclear displacements
 ==========================================

     Atom      Cartesian (a.u./angstrom)
                 X         Y         Z
 ----------------------------------------
     1 Ti    0.000001  0.000022 -0.000002
     2 Cl    0.023282 -0.000654 -0.000619
     3 Cl   -0.007662  0.016855 -0.014132
     4 Cl   -0.008570 -0.020499 -0.007026
     5 Cl   -0.007051  0.004276  0.021779
 ----------------------------------------
 Mulliken charges used for AMS results%charges...

 dE(predicted):    -0.15618E-02, dE(actual):    -0.24975E-02, Trust radius:    0.200000, all in a.u.
 
----------------------------------------------------------------------
Geometry Convergence after Step   2       (Hartree/Angstrom,Angstrom)
----------------------------------------------------------------------
current energy                               -0.76909658 Hartree
energy change                      -0.00249753     0.00005000    F
constrained gradient max            0.02328198     0.00100000    F
constrained gradient rms            0.01202964     0.00066667    F
gradient max                        0.02328198
gradient rms                        0.01202964
cart. step max                      0.03020859     0.01000000    F
cart. step rms                      0.01559350     0.00666667    F
 
 
--------
Geometry
--------
Formula: Cl4Ti
Atoms
  Index Symbol   x (angstrom)   y (angstrom)   z (angstrom)
      1     Ti     3.41930942    -0.06007701    -0.05784361
      2     Cl     1.23966310     0.00101433     0.00116903
      3     Cl     4.13825055    -1.63995998     1.26317730
      4     Cl     4.21947035     1.85896598     0.60178823
      5     Cl     4.08004123    -0.45990657    -2.09782911
 
Total System Charge             0.00000
 
 *** GOStep3 ***

 Energy gradients wrt nuclear displacements
 ==========================================

     Atom      Cartesian (a.u./angstrom)
                 X         Y         Z
 ----------------------------------------
     1 Ti    0.000001 -0.000001  0.000001
     2 Cl    0.002333 -0.000073 -0.000057
     3 Cl   -0.000757  0.001686 -0.001427
     4 Cl   -0.000866 -0.002062 -0.000694
     5 Cl   -0.000711  0.000450  0.002176
 ----------------------------------------
 Mulliken charges used for AMS results%charges...

 dE(predicted):    -0.14068E-02, dE(actual):    -0.15325E-02, Trust radius:    0.200000, all in a.u.
 
----------------------------------------------------------------------
Geometry Convergence after Step   3       (Hartree/Angstrom,Angstrom)
----------------------------------------------------------------------
current energy                               -0.77062909 Hartree
energy change                      -0.00153251     0.00005000    F
constrained gradient max            0.00233345     0.00100000    F
constrained gradient rms            0.00120647     0.00066667    F
gradient max                        0.00233345
gradient rms                        0.00120647
cart. step max                      0.00336364     0.01000000    T
cart. step rms                      0.00173818     0.00666667    T
 
 
--------
Geometry
--------
Formula: Cl4Ti
Atoms
  Index Symbol   x (angstrom)   y (angstrom)   z (angstrom)
      1     Ti     3.41931020    -0.06006352    -0.05783739
      2     Cl     1.23629946     0.00107939     0.00125819
      3     Cl     4.13934123    -1.64240135     1.26521045
      4     Cl     4.22072787     1.86194034     0.60279903
      5     Cl     4.08105590    -0.46051811    -2.10096844
 
Total System Charge             0.00000
 
 *** GOStep4 ***

 Energy gradients wrt nuclear displacements
 ==========================================

     Atom      Cartesian (a.u./angstrom)
                 X         Y         Z
 ----------------------------------------
     1 Ti    0.000002 -0.000002  0.000005
     2 Cl    0.000163 -0.000014  0.000000
     3 Cl   -0.000044  0.000115 -0.000114
     4 Cl   -0.000068 -0.000150 -0.000038
     5 Cl   -0.000054  0.000052  0.000146
 ----------------------------------------
 Mulliken charges used for AMS results%charges...

 dE(predicted):    -0.15728E-04, dE(actual):    -0.18198E-04, Trust radius:    0.200000, all in a.u.
 
---------------------------------------------------------
Geometry Convergence after Step   4       ** CONVERGED **
---------------------------------------------------------
current energy                               -0.77064729 Hartree
energy change                      -0.00001820     0.00005000    T
constrained gradient max            0.00016336     0.00100000    T
constrained gradient rms            0.00008534     0.00066667    T
gradient max                        0.00016336
gradient rms                        0.00008534
cart. step max                      0.00025485     0.01000000    T
cart. step rms                      0.00013246     0.00666667    T
 
Geometry optimization converged

Optimized geometry:
 
--------
Geometry
--------
Formula: Cl4Ti
Atoms
  Index Symbol   x (angstrom)   y (angstrom)   z (angstrom)
      1     Ti     3.41931020    -0.06006352    -0.05783739
      2     Cl     1.23629946     0.00107939     0.00125819
      3     Cl     4.13934123    -1.64240135     1.26521045
      4     Cl     4.22072787     1.86194034     0.60279903
      5     Cl     4.08105590    -0.46051811    -2.10096844
 
Total System Charge             0.00000
 
Performing a single point calculation on the final geometry ...

 *** adf ***



 ===========================
 A T T A C H E D   F I L E S
 ===========================
  
 Restart
 /scratch/5296/amstmp_11.achiral_catalyst.H_Ph_TiCl4.Rcat_kid0.717267877/GOStep4
 .rkf*** GOStep4 ***



 ===============================
 M O D E L   P A R A M E T E R S
 ===============================
  
 DENSITY FUNCTIONAL POTENTIAL (scf)
    LDA:                               Exchange only                           == Not Default ==
    Gradient Corrections:              OPTX LYP                                == Not Default ==

 SPIN  (restricted / unrestr.)
    Molecule:                          Restricted                               
    Fragments:                         Restricted                               

 OTHER ASPECTS
    Relativistic Corrections:          scalar (ZORA,MAPA)                       

    Nuclear Charge Density Model:      Point Charge Nuclei                      
    Core Treatment:                    Frozen Orbital(s)                        

    Hyperfine or Zeeman Interaction:   ---                                      



 ===============
 G E O M E T R Y  ***  3D  Molecule  ***
 ===============
  

 ATOMS
 =====                            X Y Z                    CHARGE
                                (Angstrom)             Nucl     +Core       At.Mass
                       --------------------------    ----------------       -------
    1  Ti              3.4193   -0.0601   -0.0578     22.00     22.00       47.9479
    2  Cl              1.2363    0.0011    0.0013     17.00     17.00       34.9689
    3  Cl              4.1393   -1.6424    1.2652     17.00     17.00       34.9689
    4  Cl              4.2207    1.8619    0.6028     17.00     17.00       34.9689
    5  Cl              4.0811   -0.4605   -2.1010     17.00     17.00       34.9689


 FRAGMENTS
 =========                                     Atoms in this Fragment     Cart. coord.s (Angstrom)
                                               -------------------------------------------------------
    1  Ti                                                1  Ti           3.4193   -0.0601   -0.0578
    2  Cl                                                2  Cl           1.2363    0.0011    0.0013
    3  Cl                                                3  Cl           4.1393   -1.6424    1.2652
    4  Cl                                                4  Cl           4.2207    1.8619    0.6028
    5  Cl                                                5  Cl           4.0811   -0.4605   -2.1010


 Interatomic Distance Matrix (Angstrom)
 --------------------------------------

   1)     0.000
   2)     2.185   0.000
   3)     2.185   3.567   0.000
   4)     2.185   3.568   3.567   0.000
   5)     2.185   3.567   3.568   3.567   0.000

 Min. Distance =    2.1846
 Max. Distance =    3.5681



 =====================================
 S Y M M E T R Y ,   E L E C T R O N S
 =====================================
  
 Symmetry: NOSYM

 Irreducible Representations, including subspecies
 -------------------------------------------------
 A


 Configuration of Valence Electrons
 ==================================
 ( determined in the SCF procedure )

 Total:   90

 Net Charge: 0 (Nuclei minus Electrons)

 Aufbau principle for MO occupations will be applied through SCF cycle no.      49
 Thereafter, the program will assign electrons to MOs that are spatially
 similar to the occupied MOs in a "reference" cycle ("KeepOrbitals").
 The reference cycle is always the PREVIOUS cycle: it will evolve with
 the SCF procedure.
1
 ***************************************************************************************************



                                      ****************************************
                                      *  B U I L D : (Fragments, Functions)  *
                                      ****************************************
  



 =======
 S F O s  ***  (Symmetrized Fragment Orbitals)  ***
 =======
  
 SFOs are linear combinations of (valence) Fragment Orbitals (FOs), such that the SFOs transform as the
 irreducible representations of the (molecular) symmetry group. Each SFO is therefore characterized by
 an irrep of the molecule and by a few (or only one) generating FOs.
 The SFOs constitute a symmetry-adapted basis for the Fock matrix. The MO eigenvector coefficients in
 this basis provide a direct interpretation of the MOs in terms of Frontier Orbital Theory.

 The SFOs are combined with auxiliary Core Functions (CFs) to ensure orthogonalization on the (frozen)
 Core Orbitals (COs). The Core-orthogonalized SFOs (CSFOs) constitute the true Fock basis.

 The FOs, and hence also the (C)SFOs are combinations of the elementary basis functions (BAS). The basis
 functions that participate in the description of the SFOs depend on the irrep. The indices of the
 involved functions are printed below for each irrep.
 (The complete list of primitive basis functions is printed in another section)

 Total nr. of (C)SFOs (summation over all irreps) :   185

 NOTE: a (C)SFO that is defined as a combination of more than one FO is usually NOT normalized.



                                       === A ===
 Nr. of SFOs :  185
 Cartesian basis functions that participate in this irrep (total number =   207) :
      1     2     3     4    11    12    40    41    42     5
      8    13    16    19    43     6     9    14    17    20
     44     7    10    15    18    21    45    22    28    34
     23    29    35    24    30    36    25    31    37    26
     32    38    27    33    39    46    47    48    49    50
     51    52    53    54    55    56    57    58    59    66
     67    68    60    63    69    72    75    61    64    70
     73    76    62    65    71    74    77    78    79    80
     81    82    83    84    85    86    87    88    89    90
     91    92    93    94    95    96    97   104   105   106
     98   101   107   110   113    99   102   108   111   114
    100   103   109   112   115   116   117   118   119   120
    121   122   123   124   125   126   127   128   129   130
    131   132   133   134   135   142   143   144   136   139
    145   148   151   137   140   146   149   152   138   141
    147   150   153   154   155   156   157   158   159   160
    161   162   163   164   165   166   167   168   169   170
    171   172   173   180   181   182   174   177   183   186
    189   175   178   184   187   190   176   179   185   188
    191   192   193   194   195   196   197   198   199   200
    201   202   203   204   205   206   207

    SFO  (index         Fragment          Generating    Expansion in Fragment Orbitals
  indx  incl.CFs)   Occup   Orb.Energy   FragmentType  Coeff.   Orbital     on Fragment
 --------------------------------------------------------------------------------------
     1       1      2.000    -178.789 au  Ti            1.00      1 S               1
                        (   -4865.092 eV)
     2       2      2.000     -19.762 au  Ti            1.00      2 S               1
                        (    -537.743 eV)
     3       3      2.000      -2.311 au  Ti            1.00      3 S               1
                        (     -62.883 eV)
     4       4      2.000      -0.153 au  Ti            1.00      4 S               1
                        (      -4.155 eV)
     5       5       --         0.024 au  Ti            1.00      5 S               1
                        (       0.661 eV)
     6       6       --         0.435 au  Ti            1.00      6 S               1
                        (      11.844 eV)
     7       7       --         2.749 au  Ti            1.00      7 S               1
                        (      74.796 eV)
     8       8       --        19.189 au  Ti            1.00      8 S               1
                        (     522.158 eV)
     9       9       --       338.974 au  Ti            1.00      9 S               1
                        (    9223.961 eV)
    10      10      2.000     -16.359 au  Ti            1.00      1 P:x             1
                        (    -445.160 eV)
    11      11      2.000      -1.435 au  Ti            1.00      2 P:x             1
                        (     -39.049 eV)
    12      12       --        -0.029 au  Ti            1.00      3 P:x             1
                        (      -0.776 eV)
    13      13       --         0.873 au  Ti            1.00      4 P:x             1
                        (      23.751 eV)
    14      14       --         6.360 au  Ti            1.00      5 P:x             1
                        (     173.077 eV)
    15      15       --        46.079 au  Ti            1.00      6 P:x             1
                        (    1253.887 eV)
    16      16      2.000     -16.359 au  Ti            1.00      1 P:y             1
                        (    -445.160 eV)
    17      17      2.000      -1.435 au  Ti            1.00      2 P:y             1
                        (     -39.049 eV)
    18      18       --        -0.029 au  Ti            1.00      3 P:y             1
                        (      -0.776 eV)
    19      19       --         0.873 au  Ti            1.00      4 P:y             1
                        (      23.751 eV)
    20      20       --         6.360 au  Ti            1.00      5 P:y             1
                        (     173.077 eV)
    21      21       --        46.079 au  Ti            1.00      6 P:y             1
                        (    1253.887 eV)
    22      22      2.000     -16.359 au  Ti            1.00      1 P:z             1
                        (    -445.160 eV)
    23      23      2.000      -1.435 au  Ti            1.00      2 P:z             1
                        (     -39.049 eV)
    24      24       --        -0.029 au  Ti            1.00      3 P:z             1
                        (      -0.776 eV)
    25      25       --         0.873 au  Ti            1.00      4 P:z             1
                        (      23.751 eV)
    26      26       --         6.360 au  Ti            1.00      5 P:z             1
                        (     173.077 eV)
    27      27       --        46.079 au  Ti            1.00      6 P:z             1
                        (    1253.887 eV)
    28      28      0.400      -0.151 au  Ti            1.00      1 D:z2            1
                        (      -4.102 eV)
    29      29       --         0.243 au  Ti            1.00      2 D:z2            1
                        (       6.621 eV)
    30      30       --         2.817 au  Ti            1.00      3 D:z2            1
                        (      76.661 eV)
    31      31      0.400      -0.151 au  Ti            1.00      1 D:x2-y2         1
                        (      -4.102 eV)
    32      32       --         0.243 au  Ti            1.00      2 D:x2-y2         1
                        (       6.621 eV)
    33      33       --         2.817 au  Ti            1.00      3 D:x2-y2         1
                        (      76.661 eV)
    34      34      0.400      -0.151 au  Ti            1.00      1 D:xy            1
                        (      -4.102 eV)
    35      35       --         0.243 au  Ti            1.00      2 D:xy            1
                        (       6.621 eV)
    36      36       --         2.817 au  Ti            1.00      3 D:xy            1
                        (      76.661 eV)
    37      37      0.400      -0.151 au  Ti            1.00      1 D:xz            1
                        (      -4.102 eV)
    38      38       --         0.243 au  Ti            1.00      2 D:xz            1
                        (       6.621 eV)
    39      39       --         2.817 au  Ti            1.00      3 D:xz            1
                        (      76.661 eV)
    40      40      0.400      -0.151 au  Ti            1.00      1 D:yz            1
                        (      -4.102 eV)
    41      41       --         0.243 au  Ti            1.00      2 D:yz            1
                        (       6.621 eV)
    42      42       --         2.817 au  Ti            1.00      3 D:yz            1
                        (      76.661 eV)
    43      43       --         1.309 au  Ti            1.00      1 F:z3            1
                        (      35.616 eV)
    44      44       --         1.309 au  Ti            1.00      1 F:z             1
                        (      35.616 eV)
    45      45       --         1.309 au  Ti            1.00      1 F:xyz           1
                        (      35.616 eV)
    46      46       --         1.309 au  Ti            1.00      1 F:z2x           1
                        (      35.616 eV)
    47      47       --         1.309 au  Ti            1.00      1 F:z2y           1
                        (      35.616 eV)
    48      48       --         1.309 au  Ti            1.00      1 F:x             1
                        (      35.616 eV)
    49      49       --         1.309 au  Ti            1.00      1 F:y             1
                        (      35.616 eV)
    50      50      2.000    -101.052 au  Cl            1.00      1 S               2
                        (   -2749.765 eV)
    51      51      2.000      -9.313 au  Cl            1.00      2 S               2
                        (    -253.406 eV)
    52      52      2.000      -0.758 au  Cl            1.00      3 S               2
                        (     -20.633 eV)
    53      53       --         0.208 au  Cl            1.00      4 S               2
                        (       5.658 eV)
    54      54       --         2.007 au  Cl            1.00      5 S               2
                        (      54.621 eV)
    55      55       --        12.626 au  Cl            1.00      6 S               2
                        (     343.574 eV)
    56      56       --       205.598 au  Cl            1.00      7 S               2
                        (    5594.614 eV)
    57      57      2.000      -7.061 au  Cl            1.00      1 P:x             2
                        (    -192.151 eV)
    58      58      1.667      -0.312 au  Cl            1.00      2 P:x             2
                        (      -8.486 eV)
    59      59       --         0.227 au  Cl            1.00      3 P:x             2
                        (       6.179 eV)
    60      60       --         2.122 au  Cl            1.00      4 P:x             2
                        (      57.749 eV)
    61      61       --        18.691 au  Cl            1.00      5 P:x             2
                        (     508.605 eV)
    62      62      2.000      -7.061 au  Cl            1.00      1 P:y             2
                        (    -192.151 eV)
    63      63      1.667      -0.312 au  Cl            1.00      2 P:y             2
                        (      -8.486 eV)
    64      64       --         0.227 au  Cl            1.00      3 P:y             2
                        (       6.179 eV)
    65      65       --         2.122 au  Cl            1.00      4 P:y             2
                        (      57.749 eV)
    66      66       --        18.691 au  Cl            1.00      5 P:y             2
                        (     508.605 eV)
    67      67      2.000      -7.061 au  Cl            1.00      1 P:z             2
                        (    -192.151 eV)
    68      68      1.667      -0.312 au  Cl            1.00      2 P:z             2
                        (      -8.486 eV)
    69      69       --         0.227 au  Cl            1.00      3 P:z             2
                        (       6.179 eV)
    70      70       --         2.122 au  Cl            1.00      4 P:z             2
                        (      57.749 eV)
    71      71       --        18.691 au  Cl            1.00      5 P:z             2
                        (     508.605 eV)
    72      72       --         0.387 au  Cl            1.00      1 D:z2            2
                        (      10.541 eV)
    73      73       --         0.387 au  Cl            1.00      1 D:x2-y2         2
                        (      10.541 eV)
    74      74       --         0.387 au  Cl            1.00      1 D:xy            2
                        (      10.541 eV)
    75      75       --         0.387 au  Cl            1.00      1 D:xz            2
                        (      10.541 eV)
    76      76       --         0.387 au  Cl            1.00      1 D:yz            2
                        (      10.541 eV)
    77      77       --         1.191 au  Cl            1.00      1 F:z3            2
                        (      32.402 eV)
    78      78       --         1.191 au  Cl            1.00      1 F:z             2
                        (      32.402 eV)
    79      79       --         1.191 au  Cl            1.00      1 F:xyz           2
                        (      32.402 eV)
    80      80       --         1.191 au  Cl            1.00      1 F:z2x           2
                        (      32.402 eV)
    81      81       --         1.191 au  Cl            1.00      1 F:z2y           2
                        (      32.402 eV)
    82      82       --         1.191 au  Cl            1.00      1 F:x             2
                        (      32.402 eV)
    83      83       --         1.191 au  Cl            1.00      1 F:y             2
                        (      32.402 eV)
    84      84      2.000    -101.052 au  Cl            1.00      1 S               3
                        (   -2749.765 eV)
    85      85      2.000      -9.313 au  Cl            1.00      2 S               3
                        (    -253.406 eV)
    86      86      2.000      -0.758 au  Cl            1.00      3 S               3
                        (     -20.633 eV)
    87      87       --         0.208 au  Cl            1.00      4 S               3
                        (       5.658 eV)
    88      88       --         2.007 au  Cl            1.00      5 S               3
                        (      54.621 eV)
    89      89       --        12.626 au  Cl            1.00      6 S               3
                        (     343.574 eV)
    90      90       --       205.598 au  Cl            1.00      7 S               3
                        (    5594.614 eV)
    91      91      2.000      -7.061 au  Cl            1.00      1 P:x             3
                        (    -192.151 eV)
    92      92      1.667      -0.312 au  Cl            1.00      2 P:x             3
                        (      -8.486 eV)
    93      93       --         0.227 au  Cl            1.00      3 P:x             3
                        (       6.179 eV)
    94      94       --         2.122 au  Cl            1.00      4 P:x             3
                        (      57.749 eV)
    95      95       --        18.691 au  Cl            1.00      5 P:x             3
                        (     508.605 eV)
    96      96      2.000      -7.061 au  Cl            1.00      1 P:y             3
                        (    -192.151 eV)
    97      97      1.667      -0.312 au  Cl            1.00      2 P:y             3
                        (      -8.486 eV)
    98      98       --         0.227 au  Cl            1.00      3 P:y             3
                        (       6.179 eV)
    99      99       --         2.122 au  Cl            1.00      4 P:y             3
                        (      57.749 eV)
   100     100       --        18.691 au  Cl            1.00      5 P:y             3
                        (     508.605 eV)
   101     101      2.000      -7.061 au  Cl            1.00      1 P:z             3
                        (    -192.151 eV)
   102     102      1.667      -0.312 au  Cl            1.00      2 P:z             3
                        (      -8.486 eV)
   103     103       --         0.227 au  Cl            1.00      3 P:z             3
                        (       6.179 eV)
   104     104       --         2.122 au  Cl            1.00      4 P:z             3
                        (      57.749 eV)
   105     105       --        18.691 au  Cl            1.00      5 P:z             3
                        (     508.605 eV)
   106     106       --         0.387 au  Cl            1.00      1 D:z2            3
                        (      10.541 eV)
   107     107       --         0.387 au  Cl            1.00      1 D:x2-y2         3
                        (      10.541 eV)
   108     108       --         0.387 au  Cl            1.00      1 D:xy            3
                        (      10.541 eV)
   109     109       --         0.387 au  Cl            1.00      1 D:xz            3
                        (      10.541 eV)
   110     110       --         0.387 au  Cl            1.00      1 D:yz            3
                        (      10.541 eV)
   111     111       --         1.191 au  Cl            1.00      1 F:z3            3
                        (      32.402 eV)
   112     112       --         1.191 au  Cl            1.00      1 F:z             3
                        (      32.402 eV)
   113     113       --         1.191 au  Cl            1.00      1 F:xyz           3
                        (      32.402 eV)
   114     114       --         1.191 au  Cl            1.00      1 F:z2x           3
                        (      32.402 eV)
   115     115       --         1.191 au  Cl            1.00      1 F:z2y           3
                        (      32.402 eV)
   116     116       --         1.191 au  Cl            1.00      1 F:x             3
                        (      32.402 eV)
   117     117       --         1.191 au  Cl            1.00      1 F:y             3
                        (      32.402 eV)
   118     118      2.000    -101.052 au  Cl            1.00      1 S               4
                        (   -2749.765 eV)
   119     119      2.000      -9.313 au  Cl            1.00      2 S               4
                        (    -253.406 eV)
   120     120      2.000      -0.758 au  Cl            1.00      3 S               4
                        (     -20.633 eV)
   121     121       --         0.208 au  Cl            1.00      4 S               4
                        (       5.658 eV)
   122     122       --         2.007 au  Cl            1.00      5 S               4
                        (      54.621 eV)
   123     123       --        12.626 au  Cl            1.00      6 S               4
                        (     343.574 eV)
   124     124       --       205.598 au  Cl            1.00      7 S               4
                        (    5594.614 eV)
   125     125      2.000      -7.061 au  Cl            1.00      1 P:x             4
                        (    -192.151 eV)
   126     126      1.667      -0.312 au  Cl            1.00      2 P:x             4
                        (      -8.486 eV)
   127     127       --         0.227 au  Cl            1.00      3 P:x             4
                        (       6.179 eV)
   128     128       --         2.122 au  Cl            1.00      4 P:x             4
                        (      57.749 eV)
   129     129       --        18.691 au  Cl            1.00      5 P:x             4
                        (     508.605 eV)
   130     130      2.000      -7.061 au  Cl            1.00      1 P:y             4
                        (    -192.151 eV)
   131     131      1.667      -0.312 au  Cl            1.00      2 P:y             4
                        (      -8.486 eV)
   132     132       --         0.227 au  Cl            1.00      3 P:y             4
                        (       6.179 eV)
   133     133       --         2.122 au  Cl            1.00      4 P:y             4
                        (      57.749 eV)
   134     134       --        18.691 au  Cl            1.00      5 P:y             4
                        (     508.605 eV)
   135     135      2.000      -7.061 au  Cl            1.00      1 P:z             4
                        (    -192.151 eV)
   136     136      1.667      -0.312 au  Cl            1.00      2 P:z             4
                        (      -8.486 eV)
   137     137       --         0.227 au  Cl            1.00      3 P:z             4
                        (       6.179 eV)
   138     138       --         2.122 au  Cl            1.00      4 P:z             4
                        (      57.749 eV)
   139     139       --        18.691 au  Cl            1.00      5 P:z             4
                        (     508.605 eV)
   140     140       --         0.387 au  Cl            1.00      1 D:z2            4
                        (      10.541 eV)
   141     141       --         0.387 au  Cl            1.00      1 D:x2-y2         4
                        (      10.541 eV)
   142     142       --         0.387 au  Cl            1.00      1 D:xy            4
                        (      10.541 eV)
   143     143       --         0.387 au  Cl            1.00      1 D:xz            4
                        (      10.541 eV)
   144     144       --         0.387 au  Cl            1.00      1 D:yz            4
                        (      10.541 eV)
   145     145       --         1.191 au  Cl            1.00      1 F:z3            4
                        (      32.402 eV)
   146     146       --         1.191 au  Cl            1.00      1 F:z             4
                        (      32.402 eV)
   147     147       --         1.191 au  Cl            1.00      1 F:xyz           4
                        (      32.402 eV)
   148     148       --         1.191 au  Cl            1.00      1 F:z2x           4
                        (      32.402 eV)
   149     149       --         1.191 au  Cl            1.00      1 F:z2y           4
                        (      32.402 eV)
   150     150       --         1.191 au  Cl            1.00      1 F:x             4
                        (      32.402 eV)
   151     151       --         1.191 au  Cl            1.00      1 F:y             4
                        (      32.402 eV)
   152     152      2.000    -101.052 au  Cl            1.00      1 S               5
                        (   -2749.765 eV)
   153     153      2.000      -9.313 au  Cl            1.00      2 S               5
                        (    -253.406 eV)
   154     154      2.000      -0.758 au  Cl            1.00      3 S               5
                        (     -20.633 eV)
   155     155       --         0.208 au  Cl            1.00      4 S               5
                        (       5.658 eV)
   156     156       --         2.007 au  Cl            1.00      5 S               5
                        (      54.621 eV)
   157     157       --        12.626 au  Cl            1.00      6 S               5
                        (     343.574 eV)
   158     158       --       205.598 au  Cl            1.00      7 S               5
                        (    5594.614 eV)
   159     159      2.000      -7.061 au  Cl            1.00      1 P:x             5
                        (    -192.151 eV)
   160     160      1.667      -0.312 au  Cl            1.00      2 P:x             5
                        (      -8.486 eV)
   161     161       --         0.227 au  Cl            1.00      3 P:x             5
                        (       6.179 eV)
   162     162       --         2.122 au  Cl            1.00      4 P:x             5
                        (      57.749 eV)
   163     163       --        18.691 au  Cl            1.00      5 P:x             5
                        (     508.605 eV)
   164     164      2.000      -7.061 au  Cl            1.00      1 P:y             5
                        (    -192.151 eV)
   165     165      1.667      -0.312 au  Cl            1.00      2 P:y             5
                        (      -8.486 eV)
   166     166       --         0.227 au  Cl            1.00      3 P:y             5
                        (       6.179 eV)
   167     167       --         2.122 au  Cl            1.00      4 P:y             5
                        (      57.749 eV)
   168     168       --        18.691 au  Cl            1.00      5 P:y             5
                        (     508.605 eV)
   169     169      2.000      -7.061 au  Cl            1.00      1 P:z             5
                        (    -192.151 eV)
   170     170      1.667      -0.312 au  Cl            1.00      2 P:z             5
                        (      -8.486 eV)
   171     171       --         0.227 au  Cl            1.00      3 P:z             5
                        (       6.179 eV)
   172     172       --         2.122 au  Cl            1.00      4 P:z             5
                        (      57.749 eV)
   173     173       --        18.691 au  Cl            1.00      5 P:z             5
                        (     508.605 eV)
   174     174       --         0.387 au  Cl            1.00      1 D:z2            5
                        (      10.541 eV)
   175     175       --         0.387 au  Cl            1.00      1 D:x2-y2         5
                        (      10.541 eV)
   176     176       --         0.387 au  Cl            1.00      1 D:xy            5
                        (      10.541 eV)
   177     177       --         0.387 au  Cl            1.00      1 D:xz            5
                        (      10.541 eV)
   178     178       --         0.387 au  Cl            1.00      1 D:yz            5
                        (      10.541 eV)
   179     179       --         1.191 au  Cl            1.00      1 F:z3            5
                        (      32.402 eV)
   180     180       --         1.191 au  Cl            1.00      1 F:z             5
                        (      32.402 eV)
   181     181       --         1.191 au  Cl            1.00      1 F:xyz           5
                        (      32.402 eV)
   182     182       --         1.191 au  Cl            1.00      1 F:z2x           5
                        (      32.402 eV)
   183     183       --         1.191 au  Cl            1.00      1 F:z2y           5
                        (      32.402 eV)
   184     184       --         1.191 au  Cl            1.00      1 F:x             5
                        (      32.402 eV)
   185     185       --         1.191 au  Cl            1.00      1 F:y             5
                        (      32.402 eV)



 ================================
 (Slater-type)  F U N C T I O N S  ***  (Basis and Fit)  ***
 ================================
  

 Atom Type    1  (Ti)
 ==============

 Valence Basis Sets:  19
 -----------------------
   1 S   26.300000
   1 S   20.100000
   2 S    8.300000
   2 S    5.600000
   2 P   12.000000
   2 P    7.350000
   3 S    4.650000
   3 S    2.950000
   3 P    3.550000
   3 P    5.400000
   3 P    2.300000
   3 D    4.950000
   3 D    2.300000
   3 D    1.040000
   4 S    1.900000
   4 S    1.200000
   4 S    0.800000
   4 P    1.200000
   4 F    2.300000

 Atom Type    2  (Cl)
 ==============

 Valence Basis Sets:  14
 -----------------------
   1 S   20.300000
   1 S   15.250000
   2 S    6.250000
   2 S    4.450000
   2 P    8.850000
   2 P    5.050000
   3 S    3.450000
   3 S    2.300000
   3 S    1.600000
   3 P    3.350000
   3 P    2.050000
   3 P    1.200000
   3 D    2.000000
   4 F    2.000000


 BAS: List of all Elementary Cartesian Basis Functions
 =====================================================

 The numbering in the list below (to the right of the function characteristics) is referred
 to in print-outs of MO eigenvectors and Mulliken populations in the BAS representation
 (as contrasted to the SFO representation).

 Notes:
 1. The functions are characterized by a polynomial prefactor (powers of x,y,z and r) and
    an exponential decay factor alpha.
 2. Since the basis sets are specific for an atom TYPE, the individual functions occur on
    all atoms of that type.
 3. The word 'Core' in the left margin signals that it is a Core Function (CF) : not a
    degree of freedom in the valence set, but only used to ensure orthogonalization of
    the other valence basis functions on the frozen Core Orbitals.


 (power of) X  Y  Z  R     Alpha  on Atom
            ==========     =====     ==========

 Ti                                   1
                                  ---------------------------------------------------------------------------
            0  0  0  0    26.300      1
            0  0  0  0    20.100      2
            0  0  0  1     8.300      3
            0  0  0  1     5.600      4
            1  0  0  0    12.000      5
            0  1  0  0    12.000      6
            0  0  1  0    12.000      7
            1  0  0  0     7.350      8
            0  1  0  0     7.350      9
            0  0  1  0     7.350     10
            0  0  0  2     4.650     11
            0  0  0  2     2.950     12
            1  0  0  1     3.550     13
            0  1  0  1     3.550     14
            0  0  1  1     3.550     15
            1  0  0  1     5.400     16
            0  1  0  1     5.400     17
            0  0  1  1     5.400     18
            1  0  0  1     2.300     19
            0  1  0  1     2.300     20
            0  0  1  1     2.300     21
            2  0  0  0     4.950     22
            1  1  0  0     4.950     23
            1  0  1  0     4.950     24
            0  2  0  0     4.950     25
            0  1  1  0     4.950     26
            0  0  2  0     4.950     27
            2  0  0  0     2.300     28
            1  1  0  0     2.300     29
            1  0  1  0     2.300     30
            0  2  0  0     2.300     31
            0  1  1  0     2.300     32
            0  0  2  0     2.300     33
            2  0  0  0     1.040     34
            1  1  0  0     1.040     35
            1  0  1  0     1.040     36
            0  2  0  0     1.040     37
            0  1  1  0     1.040     38
            0  0  2  0     1.040     39
            0  0  0  3     1.900     40
            0  0  0  3     1.200     41
            0  0  0  3     0.800     42
            1  0  0  2     1.200     43
            0  1  0  2     1.200     44
            0  0  1  2     1.200     45
            3  0  0  0     2.300     46
            2  1  0  0     2.300     47
            2  0  1  0     2.300     48
            1  2  0  0     2.300     49
            1  1  1  0     2.300     50
            1  0  2  0     2.300     51
            0  3  0  0     2.300     52
            0  2  1  0     2.300     53
            0  1  2  0     2.300     54
            0  0  3  0     2.300     55

 Cl                                   2    3    4    5
                                  ---------------------------------------------------------------------------
            0  0  0  0    20.300     56   94  132  170
            0  0  0  0    15.250     57   95  133  171
            0  0  0  1     6.250     58   96  134  172
            0  0  0  1     4.450     59   97  135  173
            1  0  0  0     8.850     60   98  136  174
            0  1  0  0     8.850     61   99  137  175
            0  0  1  0     8.850     62  100  138  176
            1  0  0  0     5.050     63  101  139  177
            0  1  0  0     5.050     64  102  140  178
            0  0  1  0     5.050     65  103  141  179
            0  0  0  2     3.450     66  104  142  180
            0  0  0  2     2.300     67  105  143  181
            0  0  0  2     1.600     68  106  144  182
            1  0  0  1     3.350     69  107  145  183
            0  1  0  1     3.350     70  108  146  184
            0  0  1  1     3.350     71  109  147  185
            1  0  0  1     2.050     72  110  148  186
            0  1  0  1     2.050     73  111  149  187
            0  0  1  1     2.050     74  112  150  188
            1  0  0  1     1.200     75  113  151  189
            0  1  0  1     1.200     76  114  152  190
            0  0  1  1     1.200     77  115  153  191
            2  0  0  0     2.000     78  116  154  192
            1  1  0  0     2.000     79  117  155  193
            1  0  1  0     2.000     80  118  156  194
            0  2  0  0     2.000     81  119  157  195
            0  1  1  0     2.000     82  120  158  196
            0  0  2  0     2.000     83  121  159  197
            3  0  0  0     2.000     84  122  160  198
            2  1  0  0     2.000     85  123  161  199
            2  0  1  0     2.000     86  124  162  200
            1  2  0  0     2.000     87  125  163  201
            1  1  1  0     2.000     88  126  164  202
            1  0  2  0     2.000     89  127  165  203
            0  3  0  0     2.000     90  128  166  204
            0  2  1  0     2.000     91  129  167  205
            0  1  2  0     2.000     92  130  168  206
            0  0  3  0     2.000     93  131  169  207

 Total number of charge fitting functions (nprimf)       594
 Total number of Cartesian basis functions (naos)        207
 Total number of Cartesian core functions  (ncos)          0

1
 ***************************************************************************************************



                                              ***********************
                                              *  T E C H N I C A L  *
                                              ***********************
  



 =============================================================
 P A R A L L E L I Z A T I O N  and  V E C T O R I Z A T I O N
 =============================================================
  
 Nr of parallel processes:                                4
 Maximum vector length in NumInt loops:                 128



 =====================
 S C F   U P D A T E S
 =====================
  
 Max. nr. of cycles:                                99
 Convergence criterion:                              0.0000010000
   secondary criterion:                              0.0010000000

 Mix parameter (when DIIS does not apply):           0.2000000000
 Mixed ADIIS+SDIIS will be used                  
    Max number of expansion vectors:                10
    Pure ADIIS when Max([F,P]) is above              0.1000000000
    Pure SDIIS when Max([F,P]) is below              0.0010000000
 Automatic ElectronSmearing (in case of problematic SCF convergence) disabled



 =================
 P R E C I S I O N  ***  (General: NumInt, NeglectFunctionTails, ...)  ***
 =================
  

 NumInt:           Target precision:                 8.0000000000
 -------           Initial precision:                8.0000000000
                   Min. precision (optimization):    8.0000000000

 Neglect Functions:          Basis functions:        0.1000000000E-09
 ------------------          Fit functions:          0.1000000000E-09



 ===========================
 L I N E A R   S C A L I N G
 ===========================
  

 Cut-off radii density fit:                        0.1000000000E-11
 Overlap cut-off criterion AO matrix elements:     0.1000000000E-09
 Cut-offs for Coulomb potential and fitted density:0.1000000000E-11
 Cut-off criterion for Coulomb multipole terms:    0.1000000000E-11
 Progressive Convergence parameter:                 0.000000000    

 Number of elements of the density matrix on this node (used, total):      5815     21528



 ===========================================
 Numerical Integration : Fuzzy Cells (Becke)
 ===========================================
  
 Becke grid quality: VERYGOOD       
  
 Lebedev angular grid order:             min:  13 max:  41
 Nr. of radial points:                   min:  93 max: 102

 Total nr. of points:     167477
 Nr. of blocks:             1309
 Block length:               128
 Nr. of dummy points:         75


 Test of Precision of the Numerical Integration Grid
 ===================================================

 Integral of the Total Core Density:                   0.00000000000000



 ========================
 Density Fitting (zlmFit)
 ========================
  
 ZlmFit Fit Quality: VERYGOOD       
  
 Max L-expansion:                        min:  11 max:  11
 Nr. of radial interpolation points:     min: 200 max: 230



 =====
 S C F  ***  ScaSCF  ***
 =====
  
 Initial density matrix is taken from previous geometry

 CYCLE    1
  ***********************************************************
  ** : orbital data taken from :/scratch/5296/amstmp_11.achiral_catalyst.H_Ph_TiCl4.Rcat_kid0.717267877/GOStep4.rkf
  ***********************************************************
 SCF Error: norm([F,P])=      0.000000074932, max([F,P])=      0.000000014400
 orbitals (Q,E):
 ---------------
 A :36...55          ( 2.00    -0.3569)  ( 2.00    -0.3569)  ( 2.00    -0.3412)  ( 2.00    -0.3412)
                     ( 2.00    -0.3279)  ( 2.00    -0.3279)  ( 2.00    -0.3279)  ( 2.00    -0.3004)
                     ( 2.00    -0.3004)  ( 2.00    -0.3004)  ( 0.00    -0.1669)  ( 0.00    -0.1669)
                     ( 0.00    -0.1369)  ( 0.00    -0.1369)  ( 0.00    -0.1368)  ( 0.00    -0.0295)
                     ( 0.00     0.0865)  ( 0.00     0.0866)  ( 0.00     0.0866)  ( 0.00     0.1208)

 CYCLE    2
  SDIIS (wt  0.000):  0.8609  0.1391
 A-DIIS (wt  1.000):  0.0000  1.0000
  DIIS coefficients:  0.0000  1.0000
 SCF Error: norm([F,P])=      0.000000426517, max([F,P])=      0.000000090572
 orbitals (Q,E):
 ---------------
 A :36...46          ( 2.00    -0.3569)  ( 2.00    -0.3569)  ( 2.00    -0.3412)  ( 2.00    -0.3412)
                     ( 2.00    -0.3279)  ( 2.00    -0.3279)  ( 2.00    -0.3279)  ( 2.00    -0.3004)
                     ( 2.00    -0.3004)  ( 2.00    -0.3004)  ( 0.00    -0.1669)

 SCF CONVERGED

 CYCLE    3
1
 ***************************************************************************************************



                                                *******************
                                                *  R E S U L T S  *
                                                *******************
  
 *** Using FIT density in Focky
  SDIIS (wt  0.000):  1.0242 -0.0242
 A-DIIS (wt  1.000):  0.9743  0.0257
  DIIS coefficients:  0.9743  0.0257
 SCF Error: norm([F,P])=      0.000002659337, max([F,P])=      0.000000567318

 Scaled ZORA Orbital Energies, per Irrep and Spin:
 =================================================
                        Occup              E (au)              E (eV)       Diff (eV) with prev. cycle
                        -----      --------------------        ------       --------------------------
 A
              36        2.000     -0.35692263554509E+00        -9.712               1.26E-06
              37        2.000     -0.35691728877640E+00        -9.712               1.16E-06
              38        2.000     -0.34119763025157E+00        -9.284               8.31E-07
              39        2.000     -0.34116912585740E+00        -9.284               8.30E-07
              40        2.000     -0.32793538196995E+00        -8.924               2.37E-07
              41        2.000     -0.32793213557400E+00        -8.923               2.17E-07
              42        2.000     -0.32792086572771E+00        -8.923               2.22E-07
              43        2.000     -0.30040635717774E+00        -8.174              -3.43E-08
              44        2.000     -0.30040366150661E+00        -8.174              -1.16E-07
              45        2.000     -0.30039391702359E+00        -8.174              -8.06E-08
              46        0.000     -0.16687873652177E+00        -4.541
              47        0.000     -0.16686886259558E+00        -4.541
              48        0.000     -0.13689847917419E+00        -3.725
              49        0.000     -0.13689321296027E+00        -3.725
              50        0.000     -0.13684964362022E+00        -3.724
              51        0.000     -0.29509971689061E-01        -0.803
              52        0.000      0.86523563358915E-01         2.354
              53        0.000      0.86553325144626E-01         2.355
              54        0.000      0.86558194852702E-01         2.355
              55        0.000      0.12083933070930E+00         3.288
  
 HOMO :       45 A                -0.30039391702359E+00
 LUMO :       46 A                -0.16687873652177E+00
  


 All Electron Calculation, thus no Orbital Energies of the Core Orbitals are calculated


 Fit test: (difference of exact and fit density, squared integrated, result summed over spins)
         Sum-of-Fragments:                             0.00000003036243
         Orthogonalized Fragments:                     0.00000247721699
         SCF:                                          0.00000179212924



 ==========================
 Electron Density at Nuclei
 ==========================
  
 The electron density is calculated at points on a small sphere around the center of a nucleus.
 The printed electron density is the average electron density on these points.
 The radius of the sphere is the printed approximate finite nuclear radius.
 Note: ZORA-4 density is used, which includes small component density

         Atom        Nuclear Radius (Angstrom)             Electron Density (a.u.)
         ----        -------------------------             -----------------------
     1)   Ti                0.0000465820                             7488.57433
     2)   Cl                0.0000426624                             3310.24103
     3)   Cl                0.0000426624                             3310.24104
     4)   Cl                0.0000426624                             3310.24098
     5)   Cl                0.0000426624                             3310.24111



 =======================================
 M U L L I K E N   P O P U L A T I O N S
 =======================================
  
 The survey below gives for each atom:
 a) the total charge (Z minus electrons)
 b) the net spin polarization (nr of electrons spin-A minus spin-B)
 c) for each spin the atomic electron valence density (integrated) per L-value.

 Atom              Charge    Spin density          S         P         D         F
 ----              ------    ------------       ------    ------    ------    ------
 1 Ti              0.9049                       6.2327   12.4557    2.3608    0.0459
 2 Cl             -0.2262                       5.9450   11.2515    0.0234    0.0063
 3 Cl             -0.2262                       5.9450   11.2516    0.0234    0.0063
 4 Cl             -0.2262                       5.9450   11.2516    0.0234    0.0063
 5 Cl             -0.2262                       5.9450   11.2515    0.0234    0.0063

 Populations of individual BAS functions
 ----------------------------------------
 1 Ti           0.5896  1.3541  1.9951 -0.1557  0.7059  0.7059  0.7059  1.2792  1.2792  1.2792
                1.3614  0.8497  1.4027  1.4027  1.4027  0.2060  0.2060  0.2060  0.4335  0.4336
                0.4335  0.0530  0.0613  0.0592  0.0478  0.0697  0.0489  0.2120  0.2352  0.2258
                0.1882  0.2732  0.1930  0.0739  0.1548  0.1599  0.0865  0.1346  0.0840  0.2407
               -0.0085  0.0062  0.1245  0.1245  0.1245  0.0052  0.0050  0.0044  0.0035  0.0048
                0.0032  0.0037  0.0057  0.0064  0.0039
 2 Cl           0.5861  1.3688  1.7628  0.2239  0.7341  0.7361  0.7361  1.2704  1.2676  1.2676
                0.5045  1.2341  0.2649  0.2120  0.2329  0.2329  1.1388  1.2062  1.2063  0.2915
                0.3594  0.3594  0.0238  0.0062  0.0062 -0.0066  0.0004 -0.0066  0.0176  0.0171
                0.0172 -0.0076  0.0003 -0.0075 -0.0115 -0.0038 -0.0038 -0.0115
 3 Cl           0.5861  1.3688  1.7628  0.2239  0.7359  0.7351  0.7354  1.2679  1.2691  1.2686
                0.5045  1.2341  0.2649  0.2307  0.2219  0.2252  1.1990  1.1709  1.1815  0.3520
                0.3237  0.3345 -0.0035  0.0043  0.0032  0.0087  0.0067  0.0039 -0.0071 -0.0043
               -0.0034  0.0057  0.0011  0.0027  0.0076  0.0027 -0.0011  0.0026
 4 Cl           0.5861  1.3688  1.7628  0.2239  0.7359  0.7346  0.7360  1.2680  1.2698  1.2679
                0.5045  1.2341  0.2649  0.2301  0.2167  0.2310  1.1972  1.1540  1.2001  0.3503
                0.3068  0.3532 -0.0027  0.0062  0.0016  0.0164  0.0059 -0.0040 -0.0061 -0.0054
               -0.0014  0.0102  0.0008 -0.0026  0.0139  0.0106 -0.0059 -0.0077
 5 Cl           0.5861  1.3688  1.7628  0.2239  0.7360  0.7361  0.7344  1.2679  1.2677  1.2701
                0.5045  1.2341  0.2649  0.2310  0.2322  0.2146  1.2001  1.2040  1.1472  0.3532
                0.3571  0.2999 -0.0040  0.0010  0.0064 -0.0057  0.0059  0.0197 -0.0078 -0.0020
               -0.0063 -0.0035  0.0006  0.0130 -0.0101 -0.0069  0.0136  0.0158

 Gross Charges per Atom (Z minus electrons)
 ==========================================
             0.9049   -0.2262   -0.2262   -0.2262   -0.2262
 Net Total: -0.00000000


 Atom-Atom Population Matrix (off-diagonal elements not doubled)
 ===============================================================

     1 :    19.8578
     2 :     0.3093   16.9410
     3 :     0.3093   -0.0081   16.9411
     4 :     0.3093   -0.0080   -0.0081   16.9411
     5 :     0.3093   -0.0081   -0.0080   -0.0081   16.9410



 =================================================
 H I R S H F E L D   C H A R G E   A N A L Y S I S
 =================================================
  
 For each fragment: the (numerical) integral of rho(scf) * rho(fragment)/rho(sum-of-fragments)
 (nuclear charges are included, electrons are counted negative)

 The fragments and their ordering are defined in the early G E O M E T R Y output section.
 If you use single-atom fragments, this usually implies that all atoms of the same
 chemical type are grouped together. This may not be the order in which you listed them
 in the input file!

    1  Ti                        0.4241
    2  Cl                       -0.1060
    3  Cl                       -0.1060
    4  Cl                       -0.1060
    5  Cl                       -0.1060

 Sum of these charges (accuracy NumInt/Tails) =          -0.00000053



 =============================
 V O R O N O I   C H A R G E S
 =============================
  
 For each atom: the (numerical) integral of the total electronic charge density in its Voronoi cell,
 i.e. the region of space that is closer to that atom than to any other atom.
 (cf. Wigner-Seitz cells in crystals)

 Within the Voronoi cell the subintegrals over the atomic sphere and the remaining part are evaluated
 separately to give the numbers of electrons (negative charge) in these regions.
 The net total charge in the cell (including the nuclear charge) is also given.

 Values are provided for
    a) the Initial (sum-of-fragments) density
    b) the Orthogonalized-Fragments density
    c) the SCF density
    d) the Voronoi Deformation Density (VDD): the difference SCF-Initial for the complete atomic cell


  Atom                Initial                    OrthFrag                   SCF
             Sphere RestCell NetTotal   Sphere RestCell NetTotal   Sphere RestCell NetTotal      VDD
 -----       ------------------------   ------------------------   ------------------------    -----
    1 Ti    -15.612   -5.555    0.833  -15.778   -5.359    0.863  -15.551   -5.239    1.210    0.377
    2 Cl    -11.307   -5.901   -0.208  -11.362   -5.854   -0.215  -11.308   -5.994   -0.303   -0.095
    3 Cl    -11.307   -5.903   -0.210  -11.362   -5.856   -0.217  -11.309   -5.995   -0.304   -0.094
    4 Cl    -11.307   -5.902   -0.209  -11.362   -5.855   -0.216  -11.308   -5.995   -0.304   -0.095
    5 Cl    -11.307   -5.899   -0.206  -11.362   -5.853   -0.214  -11.308   -5.991   -0.300   -0.094
 ---------------------------------------------------------------------------------------------------
 Total NetCharge:              -0.000                     -0.000                     -0.000    0.000
 (accuracy NumInt/Tails)

 Remark: the 'NetTotal' Voronoi charges often do not match the Mulliken and/or Hirshfeld charges very
 well. This is caused by the fact that chemically different atoms are not treated in accordance with
 their relative sizes. (Voronoi cells are defined by boundary planes halfway between the atoms.)
 However, the CHANGES in charge, comparing 'Initial' to 'SCF' for instance, do give a fair indication
 of the flow of charge caused by the relaxation from sum-of-fragments to self-consistency.

 Warning: the absolute accuracy of the VDD charges obtained using the Fuzzy Cells (Becke) integration
 scheme is much poorer than the one obtained with an 'equivalent' Voronoi integration grid. 



 =================================================================
 M U L T I P O L E   D E R I V E D   C H A R G E   A N A L Y S I S
 =================================================================

 This charge analysis uses the atomic multipoles (obtained from the fitted density) up to some level X,
 and reconstructs these multipoles exactly (up to level X) by distributing charges over all atoms.
 This is achieved by using Lagrange multipliers and a weight function to keep the multipoles local.

 Dummy atoms can be included (by setting INCDUM in MDC-block to 1) to obtain a fractional charge.
 This is generally useful and necessary only for small symmetrical molecules, when there are not
 enough degrees of freedom to reconstruct the multipoles.

 Since the atomic multipoles are reconstructed up to level X,
 the molecular multipoles are represented also up to level X.
 The recommended level is to reconstruct up to quadrupole : -> MDC-q charges.

 See: M. Swart, P.Th. van Duijnen, J.G. Snijders, J.Comput.Chem., (2001), p. 79-88.

 ------------------------------------------------------------- 
 Atomic electronic multipole moments from SCF equations (a.u.)
 ------------------------------------------------------------- 

   atom        charge        dip-x     dip-y     dip-z      quad-xx   quad-xy   quad-xz   quad-yy   quad-yz   quad-zz
 --------------------------------------------------------------------------------------------------------------------
    1 Ti     1.038014    -0.000032 -0.000002  0.000027    -0.000099 -0.000021  0.000015  0.000095 -0.000014  0.000004
    2 Cl    -0.259511    -0.084162  0.002297  0.002242     0.917923 -0.025754 -0.024882 -0.459001  0.000659 -0.458921
    3 Cl    -0.259506     0.027743 -0.060958  0.051061    -0.310050 -0.219594  0.183657  0.264000 -0.403569  0.046050
    4 Cl    -0.259514     0.030972  0.074067  0.025416    -0.274398  0.296906  0.102062  0.608097  0.244755 -0.333700
    5 Cl    -0.259483     0.025481 -0.015337 -0.078794    -0.333312 -0.051016 -0.260638 -0.413621  0.157774  0.746934

 --------------------------------------- 
 Multipole derived atomic charges (a.u.)
 --------------------------------------- 

 The MDC-m charges are just the Monopole terms in the multipole expansion, while for the MDC-d charges
 also the Dipoles are reconstructed. The usually preferred charges are the MDC-q charges.
 These reconstruct the Monopoles, Dipoles and Quadrupoles (both atomic AND molecular).

        Atom    Level:     MDC-m        MDC-d        MDC-q
 ---------------------------------------------------------
     1     Ti           1.038014     0.814931    19.609812
     2     Cl          -0.259511    -0.203737    -4.925184
     3     Cl          -0.259506    -0.203742    -4.881696
     4     Cl          -0.259514    -0.203740    -4.894300
     5     Cl          -0.259483    -0.203713    -4.908632

 ------------------------------------------------ 
 Average absolute deviations in atomic multipoles
 ------------------------------------------------ 

 Stated here are the average differences between the atomic multipoles
 and the reconstructed atomic multipoles (from the distributed charges).
 If these values are not zero, this means there are not enough degrees of freedom,
 to be able to reconstruct the atomic multipoles. (This usually happens only
 for small and/or highly symmetric molecules). If this is the case, one could add
 dummy atoms as extra point charges (and setting INCDUM in MDC-block to 1).

 Level:                                 MDC-d        MDC-q
 ---------------------------------------------------------
 Charge   (a.u.)                       0.0000       0.0000
 Dipole   (Debye)                      0.0000       0.2095
 Quad.    (a.u.)                       0.3074       0.0217

 --------------------------------------- 
 Represented molecular multipole moments
 --------------------------------------- 

 Given here are the Molecular multipole moments from the atomic charges, and from the Fit Density.
 Note that the atomic charges represent the latter, NOT the ones from the Exact density.

            Q (a.u.)             Dipole moment (Debye)                                          Quadrupole moment (a.u.)
                                 x         y         z              xx        xy        xz        yy        yz        zz
------------------------------------------------------------------------------------------------------------------------
MDC-m        -0.0000       -0.0001   -0.0006    0.0002         -0.0016   -0.0057   -0.0009    0.0025    0.0028   -0.0009
MDC-d        -0.0000       -0.0001   -0.0004    0.0001         -0.0014   -0.0042   -0.0011    0.0019    0.0023   -0.0006
MDC-q        -0.0000        0.3175   -0.0856    0.2202          1.0976   -0.4484    0.9815   -0.3129   -0.1624   -0.7846
 
Fit.Dens.    -0.0000       -0.0001   -0.0004    0.0001         -0.0011   -0.0029   -0.0005    0.0008    0.0010    0.0004



 =============
 Dipole Moment  ***  (Debye)  ***
 =============
  
 Vector   :        -0.00010940     -0.00037989      0.00004217
 Magnitude:         0.00039758

 This molecular dipole moment is calculated with analytic integration



 =========================================
 Quadrupole Moment (Buckingham convention)  ***  (a.u.)  ***
 =========================================
  
      quad-xx        quad-xy        quad-xz        quad-yy        quad-yz        quad-zz
     -0.00097993    -0.00257868    -0.00051224     0.00065016     0.00078309     0.00032977

 This molecular quadrupole moment is calculated with analytic integration
1



 ===========================
 B O N D I N G   E N E R G Y  ***  (decomposition)  ***
 ===========================
  
*** IMPORTANT NOTE ***

The bond energy is computed as an energy difference between molecule and
fragments. In particular when the fragments are single atoms, they are usually
computed as SPHERICALLY SYMMETRIC and SPIN-RESTRICTED. Obviously, this usually
does NOT represent the true atomic groundstate.

To obtain the 'real' bond energy, (atomic) correction terms must be applied
for the true (multiplet) fragment ground state. See ref: E.J.Baerends,
V.Branchadell, M.Sodupe, Chem.Phys.Lett.265 (1997) 481

General theoretical background on the bond energy decomposition scheme used
here (Morokuma-Ziegler) can be found in the review paper:
F.M. Bickelhaupt and E.J. Baerends,
"Kohn-Sham Density Functional Theory: Predicting and Understanding Chemistry"
In: Rev. Comput. Chem.; Lipkowitz, K. B. and Boyd, D. B., Eds.;
Wiley-VCH: New York, 2000, Vol. 15, 1-86.

Symbols used in the Bickelhaupt-Baerends (BB) paper are given below to make
the direct connection to that paper, where detailed explanations can be found
on the meaning of the various terms.


                                                   hartree              eV         kcal/mol           kJ/mol
                                      --------------------     -----------       ----------      -----------

Pauli Repulsion
  Kinetic (Delta T^0):                   6.874551526705138        187.0661          4313.85         18049.13
  Delta V^Pauli Coulomb:                -4.519868447874311       -122.9919         -2836.26        -11866.91
  Delta V^Pauli LDA-XC:                 -0.775433212575438        -21.1006          -486.59         -2035.90
  Delta V^Pauli GGA-Exchange:            0.128150334737782          3.4871            80.42           336.46
  Delta V^Pauli GGA-Correlation:        -0.074989679098818         -2.0406           -47.06          -196.89
                                      --------------------     -----------       ----------      -----------
  Total Pauli Repulsion:                 1.632410521894352         44.4202          1024.35          4285.89
 (Total Pauli Repulsion =
  Delta E^Pauli in BB paper)

Steric Interaction
  Pauli Repulsion (Delta E^Pauli):       1.632410521894352         44.4202          1024.35          4285.89
  Electrostatic Interaction:            -0.682842321346180        -18.5811          -428.49         -1792.80
 (Electrostatic Interaction =
  Delta V_elstat in the BB paper)
                                      --------------------     -----------       ----------      -----------
  Total Steric Interaction:              0.949568200548173         25.8391           595.86          2493.09
 (Total Steric Interaction =
  Delta E^0 in the BB paper)

Orbital Interactions
  A:                                    -1.720215444558967        -46.8094         -1079.45         -4516.43
                                      --------------------     -----------       ----------      -----------
  Total Orbital Interactions:           -1.720215444558967        -46.8094         -1079.45         -4516.43

Alternative Decomposition Orb.Int.
  Kinetic:                              -6.116343265476843       -166.4342         -3838.06        -16058.46
  Coulomb:                               4.265440776920967        116.0685          2676.60         11198.91
  XC:                                    0.130687043996908          3.5562            82.01           343.12
                                      --------------------     -----------       ----------      -----------
  Total Orbital Interactions:           -1.720215444558968        -46.8094         -1079.45         -4516.43

  Residu (E=Steric+OrbInt+Res):         -0.000000043785749         -0.0000            -0.00            -0.00

Total Bonding Energy:                   -0.770647287796543        -20.9704          -483.59         -2023.33


Summary of Bonding Energy (energy terms are taken from the energy decomposition above)
======================================================================================

  Electrostatic Energy:                 -0.682842321346180        -18.5811          -428.49         -1792.80
  Kinetic Energy:                        0.758208261228295         20.6319           475.78          1990.68
  Coulomb (Steric+OrbInt) Energy:       -0.254427714739093         -6.9233          -159.66          -668.00
  XC Energy:                            -0.591585512939566        -16.0979          -371.23         -1553.21
                                      --------------------     -----------       ----------      -----------
  Total Bonding Energy:                 -0.770647287796544        -20.9704          -483.59         -2023.33


Correction terms (incorporated in energies above; only for test purposes):

1. Indication of fit-quality: 1st-order fit-correction used in the energy (hartree):   0.0000039999
2. Electrostatic (Fit correction):   0.0000000000

Scaled ZORA energy correction, not included in bonding energy (hartree):           -0.0001966640
 NOTE: This scaled ZORA energy correction should only be used to compare two calculations
 in which the only difference in the calculation is the electron configuration.
 Then the difference in energy of this term should be added to the difference in energy of
 the two electron configurations.
 This term should not be used otherwise.
 In practice it is useful only for core excitation energy calculations.



 =========================================
 F R A G M E N T   E N E R G Y   T E R M S  ***  (summed over all fragments)  ***
 =========================================
  

The energy terms below are (parts of) the Total Energy of the fragments from which the molecule
 is built.

Exchange and Correlation
  Exchange LDA:                       -140.322069242387556      -3818.3578        -88053.44       -368415.54
  Exchange GGA:                        -11.675992334181686       -317.7199         -7326.80        -30655.31
  Correlation LDA:                       0.000000000000000          0.0000             0.00             0.00
  Correlation GGA:                      -3.736035730338634       -101.6627         -2344.40         -9808.96
                                      --------------------     -----------       ----------      -----------
  Total XC:                           -155.734097306907870      -4237.7404        -97724.63       -408879.81
1



 =======================================================
 S F O   P O P U L A T I O N S ,   M O   A N A L Y S I S
 =======================================================
  
 A Mulliken population analysis is performed on (input-)selected MOs. All populations refer to SFOs.
 BAS populations may have been printed directly after the SCF part.


                                       === A ===


 SFO contributions (%) per orbital
 (multiplication by the orbital occupation yields the SFO Gross Populations)

 Orb.:       36     37     38     39     40     41     42     43     44     45     46     47     48     49
 occup:     2.00   2.00   2.00   2.00   2.00   2.00   2.00   2.00   2.00   2.00   0.00   0.00   0.00   0.00
 CF+SFO     ----   ----   ----   ----   ----   ----   ----   ----   ----   ----   ----   ----   ----   ----
 ------
     12:    0.01   0.15   0.00   0.00   3.82   0.08   1.20   0.00   0.00   0.00   0.00   0.00   1.84   0.38
     18:    0.02   0.10   0.00   0.00   1.21   0.95   2.93   0.00   0.00   0.00  -0.00  -0.00   1.00   0.04
     24:    0.23   0.00   0.00   0.00   0.06   4.06   0.97   0.00   0.00   0.00   0.00   0.00   0.16   2.56
     28:    3.93   0.18   1.45   2.93   0.05   0.30   1.65   0.00   0.00   0.00  12.37   4.38   5.70   9.65
     31:    3.01  13.00   0.66   1.56   1.95   0.26   0.08   0.00   0.00   0.00   6.53   1.96  33.95  22.63
     34:    0.41   3.79   1.59  11.00   0.32   0.16   0.48   0.00   0.00   0.00  39.51   8.70  10.82   0.12
     37:    5.68   0.12  12.39   1.63   0.04   0.62   0.11   0.00   0.00  -0.00   9.06  44.64   0.36  18.63
     40:    7.42   3.37   3.94   2.91   0.21   1.23   0.25   0.00   0.00   0.00   9.21  16.98  16.68  16.46
     58:    0.99  31.86   0.00   0.03   2.83   0.03   1.61   0.01   0.04   0.01   0.01   0.00   7.38   1.46
     63:    0.08   0.25   2.38  17.25   8.76   5.89  17.63   1.51  35.52   0.32   4.06   0.86   1.01   0.05
     68:    0.89   0.01  17.27   2.38   0.67  25.98   5.60  16.29   1.56  19.54   0.86   4.06   0.20   2.75
[...]


-----------------------------------------------
*** RESTART ***
*** CHECKING FOR HESSIAN ON RESTART FILE ***
@@@ WARNING: Cannot find section: Hessian                                                                                                                                                         
*** NO HESSIAN EXISTS ON RESTART FILE ***
*** HESSIAN FROM RESTART FILE IS NOT COMPLETE ***
*** FURTHER CALCULATIONS WILL BE DONE         ***
-----------------------------------------------
                  ------------------------------------------------
                  
                  This Analytical Second Derivatives Progam    
                            was written for ADF by             
                  
                                Stephen K. Wolff               
                  
                         Scientific Computing & Modelling      
                  
                                Vrije University
                              Theoretical Chemistry
                                De Boelelaan 1083
                                1081 HV Amsterdam
                                 The Netherlands
                  
                  ------------------------------------------------
                  
                                    References:                
                                    ===========                
                  
                   Attila Berces, Ross M. Dickson, Liangyou Fan
                   Heiko Jacobsen, David Swerhone, Tom Ziegler,
                   Computer Physics Communications 100 (1997) 247.
                  
                   Heiko Jacobsen, Attila Berces
                   David Swerhone, Tom Ziegler,
                   Computer Physics Communications 100 (1997) 263.
                  
                   Stephen K. Wolff
                   Int. J. Quantum Chem. 104 (2005) 645.
                  
                  ------------------------------------------------
                  
              <><><><><><><><><><><><><><><><><><><><><><><><><>
 
                 SECOND DERIVATIVES INFORMATION:
                 -------------------------------
 
                 === PRINT
 
                   EIGS,  lprint_eigbas =  F
                   U1,    lprint_u1     =  F
                   PARTS, lprint_parts  =  F
 
                 === DEBUG
 
                   ALL        =  F
                   B1         =  F
                   DENSITIES  =  F
                   FIT        =  F
                   HESSIAN    =  F
                   NUMBERS    =  F
                   SYMMETRY   =  F
                   U1         =  F
 
                 === CPKS
 
                   MAX_CPKS_ITERATIONS    =    20
                   U1_ACCURACY PARAMETER  =     5.00
                   U1 ACCURACY            =     0.0000100
 

                 Estimated peak private memory usage    104 MB per process
                                 shared memory usage    193 MB per node

              <><><><><><><><><><><><><><><><><><><><><><><><><>

######## LOOPING OVER NUCLEI ########

==========================
###### NUCLEUS:     1  Ti 
==========================

====================  solving CPKS equations  ====================

NUCLEUS  COORD.    ITERATION   ACCURACY
-------  ------    ---------   --------
    1       1          1       0.11069790D-01
    1       1          2       0.28886868D-02
    1       1          3       0.79728637D-03
    1       1          4       0.16624862D-03
    1       1          5       0.12424230D-03
    1       1          6       0.45764995D-04
    1       1          7       0.42571399D-05
*** CPKS converged.
----------------------------------------------
    1       2          1       0.10452525D-01
    1       2          2       0.31179540D-02
    1       2          3       0.79847536D-03
    1       2          4       0.18649331D-03
    1       2          5       0.15209920D-03
    1       2          6       0.47125653D-04
    1       2          7       0.36248673D-05
*** CPKS converged.
----------------------------------------------
    1       3          1       0.13557470D-01
    1       3          2       0.32070208D-02
    1       3          3       0.97300290D-03
    1       3          4       0.21822094D-03
    1       3          5       0.63283302D-04
    1       3          6       0.53750113D-04
    1       3          7       0.39881522D-05
*** CPKS converged.
----------------------------------------------

====================  end of solving CPKS equations  ====================

==========================
###### NUCLEUS:     2  Cl 
==========================

====================  solving CPKS equations  ====================

NUCLEUS  COORD.    ITERATION   ACCURACY
-------  ------    ---------   --------
    2       1          1       0.17204706D-01
    2       1          2       0.69482196D-02
    2       1          3       0.11111734D-02
    2       1          4       0.42727546D-03
    2       1          5       0.88765690D-04
    2       1          6       0.18712882D-04
    2       1          7       0.35222052D-05
*** CPKS converged.
----------------------------------------------
    2       2          1       0.50044694D-02
    2       2          2       0.65785183D-03
    2       2          3       0.36344486D-03
    2       2          4       0.23453128D-03
    2       2          5       0.42203359D-04
    2       2          6       0.12846427D-04
    2       2          7       0.10922861D-05
*** CPKS converged.
----------------------------------------------
    2       3          1       0.54047338D-02
    2       3          2       0.57351203D-03
    2       3          3       0.32053094D-03
    2       3          4       0.23429385D-03
    2       3          5       0.45080406D-04
    2       3          6       0.12551783D-04
    2       3          7       0.10835719D-05
*** CPKS converged.
----------------------------------------------

====================  end of solving CPKS equations  ====================

==========================
###### NUCLEUS:     3  Cl 
==========================

====================  solving CPKS equations  ====================

NUCLEUS  COORD.    ITERATION   ACCURACY
-------  ------    ---------   --------
    3       1          1       0.45908068D-02
    3       1          2       0.23246565D-02
    3       1          3       0.72557098D-03
    3       1          4       0.23538465D-03
    3       1          5       0.38011798D-04
    3       1          6       0.12601896D-04
    3       1          7       0.29879164D-05
*** CPKS converged.
----------------------------------------------
    3       2          1       0.90318582D-02
    3       2          2       0.48060041D-02
    3       2          3       0.88023416D-03
    3       2          4       0.41288932D-03
    3       2          5       0.65676160D-04
    3       2          6       0.17005925D-04
    3       2          7       0.34029431D-05
*** CPKS converged.
----------------------------------------------
    3       3          1       0.84632505D-02
    3       3          2       0.48638605D-02
    3       3          3       0.96350045D-03
    3       3          4       0.29783264D-03
    3       3          5       0.68241386D-04
    3       3          6       0.17562805D-04
    3       3          7       0.35969242D-05
*** CPKS converged.
----------------------------------------------

====================  end of solving CPKS equations  ====================

==========================
###### NUCLEUS:     4  Cl 
==========================

====================  solving CPKS equations  ====================

NUCLEUS  COORD.    ITERATION   ACCURACY
-------  ------    ---------   --------
    4       1          1       0.62994049D-02
    4       1          2       0.33739722D-02
    4       1          3       0.65019319D-03
    4       1          4       0.25626000D-03
    4       1          5       0.52371121D-04
    4       1          6       0.15788415D-04
    4       1          7       0.31409587D-05
*** CPKS converged.
----------------------------------------------
    4       2          1       0.13355019D-01
    4       2          2       0.55518372D-02
    4       2          3       0.10737799D-02
    4       2          4       0.42120676D-03
    4       2          5       0.75600601D-04
    4       2          6       0.19663930D-04
    4       2          7       0.33696568D-05
*** CPKS converged.
----------------------------------------------
    4       3          1       0.42493199D-02
    4       3          2       0.19103755D-02
    4       3          3       0.78744532D-03
    4       3          4       0.25224103D-03
    4       3          5       0.42298729D-04
    4       3          6       0.13483640D-04
    4       3          7       0.28154083D-05
*** CPKS converged.
----------------------------------------------

====================  end of solving CPKS equations  ====================

==========================
###### NUCLEUS:     5  Cl 
==========================

====================  solving CPKS equations  ====================

NUCLEUS  COORD.    ITERATION   ACCURACY
-------  ------    ---------   --------
    5       1          1       0.42789441D-02
    5       1          2       0.17798161D-02
    5       1          3       0.69638367D-03
    5       1          4       0.20992951D-03
    5       1          5       0.46538043D-04
    5       1          6       0.11832713D-04
    5       1          7       0.27011113D-05
*** CPKS converged.
----------------------------------------------
    5       2          1       0.42116137D-02
    5       2          2       0.15336630D-02
    5       2          3       0.70383028D-03
    5       2          4       0.19916857D-03
    5       2          5       0.35306788D-04
    5       2          6       0.11182151D-04
    5       2          7       0.21879426D-05
*** CPKS converged.
----------------------------------------------
    5       3          1       0.15445211D-01
    5       3          2       0.60999041D-02
    5       3          3       0.11305364D-02
    5       3          4       0.38062471D-03
    5       3          5       0.88569621D-04
    5       3          6       0.17940522D-04
    5       3          7       0.31166155D-05
*** CPKS converged.
----------------------------------------------

====================  end of solving CPKS equations  ====================


====================================================================
*** DONE CALCULATING ANALYTICAL SECOND DERIVATIVES OF THE ENERGY ***
====================================================================

 Mulliken charges used for AMS results%charges...
Scanning modes in range provided by user.


    =====================
     CALCULATION RESULTS
    =====================

Energy (hartree)            -0.77064729

Gradients (hartree/bohr)
  Index   Atom            d/dx            d/dy            d/dz
      1     Ti    0.0000011377   -0.0000009599    0.0000028280
      2     Cl    0.0000863686   -0.0000076087    0.0000001441
      3     Cl   -0.0000230277    0.0000607286   -0.0000603452
      4     Cl   -0.0000357643   -0.0000794237   -0.0000199026
      5     Cl   -0.0000287143    0.0000272637    0.0000772757

 -----------------------
 Normal Mode Frequencies
 -----------------------

 Index   Frequency (cm-1)   Intensity (km/mol)
     7           111.5527               0.0000
     8           111.6371               0.0000
     9           133.2303               0.5148
    10           133.3109               0.5129
    11           133.3272               0.5131
    12           368.1223               0.0000
    13           478.4207             132.4321
    14           478.4996             132.5896
    15           478.5237             132.6018

 Zero-point energy (Hartree):     0.0055

 ------------
 Normal Modes
 ------------

 Number of removed rigid normal modes: 6
 
 Mode:     7      Frequency (cm-1):      111.5527     Intensity (km/mol):        0.0000
 Index  Atom      ---- Displacements (x/y/z) ----
     1    Ti      -0.000515  -0.000006   0.000210
     2    Cl       0.017403   0.464512   0.183995
     3    Cl       0.202396  -0.235777  -0.392214
     4    Cl      -0.464595   0.176852   0.048395
     5    Cl       0.245501  -0.405580   0.159536
 
 Mode:     8      Frequency (cm-1):      111.6371     Intensity (km/mol):        0.0000
 Index  Atom      ---- Displacements (x/y/z) ----
     1    Ti      -0.000115  -0.000127   0.000336
     2    Cl      -0.007564   0.184704  -0.464998
     3    Cl       0.427033   0.251106   0.068438
     4    Cl      -0.010576  -0.158459   0.473684
     5    Cl      -0.408736  -0.277178  -0.077583
 
 Mode:     9      Frequency (cm-1):      133.2303     Intensity (km/mol):        0.5148
 Index  Atom      ---- Displacements (x/y/z) ----
     1    Ti      -0.198893   0.311364   0.134083
     2    Cl      -0.275128  -0.339290  -0.138429
     3    Cl       0.061023   0.007974  -0.453216
     4    Cl       0.436000   0.151205   0.021229
     5    Cl       0.050819  -0.246820   0.386568
 
 Mode:    10      Frequency (cm-1):      133.3109     Intensity (km/mol):        0.5129
 Index  Atom      ---- Displacements (x/y/z) ----
     1    Ti      -0.274961  -0.057373  -0.274659
     2    Cl      -0.318409   0.082524   0.328347
     3    Cl       0.143452   0.435661   0.002124
     4    Cl       0.108026  -0.424573   0.143417
     5    Cl       0.443947  -0.014944  -0.097285
 
 Mode:    11      Frequency (cm-1):      133.3272     Intensity (km/mol):        0.5131
 Index  Atom      ---- Displacements (x/y/z) ----
     1    Ti       0.198000   0.232768  -0.246861
     2    Cl       0.245116  -0.276534   0.267052
     3    Cl      -0.421802   0.170635  -0.083839
     4    Cl      -0.048525   0.159483   0.426073
     5    Cl      -0.046279  -0.372747  -0.270800
 
 Mode:    12      Frequency (cm-1):      368.1223     Intensity (km/mol):        0.0000
 Index  Atom      ---- Displacements (x/y/z) ----
     1    Ti      -0.000037   0.000067   0.000022
     2    Cl       0.499669  -0.014038  -0.013538
     3    Cl      -0.164814   0.362186  -0.302798
     4    Cl      -0.183373  -0.439910  -0.151214
     5    Cl      -0.151431   0.091670   0.467519
 
 Mode:    13      Frequency (cm-1):      478.4207     Intensity (km/mol):      132.4321
 Index  Atom      ---- Displacements (x/y/z) ----
     1    Ti       0.308073  -0.537768  -0.285546
     2    Cl      -0.304442   0.036003   0.022638
     3    Cl      -0.107570   0.229156  -0.153453
     4    Cl       0.126983   0.370812   0.132661
     5    Cl      -0.137388   0.101395   0.389684
 
 Mode:    14      Frequency (cm-1):      478.4996     Intensity (km/mol):      132.5896
 Index  Atom      ---- Displacements (x/y/z) ----
     1    Ti      -0.608644  -0.282905  -0.123902
     2    Cl       0.551967   0.000097  -0.007659
     3    Cl       0.051929  -0.030036   0.043816
     4    Cl       0.194681   0.405818   0.140861
     5    Cl       0.035972   0.012028  -0.007128
 
 Mode:    15      Frequency (cm-1):      478.5237     Intensity (km/mol):      132.6018
 Index  Atom      ---- Displacements (x/y/z) ----
     1    Ti      -0.020728   0.310624  -0.607377
     2    Cl       0.012400  -0.016439   0.031206
     3    Cl       0.173504  -0.395051   0.348372
     4    Cl      -0.025159  -0.079059   0.009863
     5    Cl      -0.132323   0.064634   0.443371

PES point character: Geometry corresponds to a local minimum on the PES.




 ============================
 Statistical Thermal Analysis  ***  ideal gas assumed  ***
 ============================
  
 Pressure:                  1.000000 atm.
 Temperature:             298.150000 K



 Moments of Inertia [amu*bohr^2] and principal axis
 ==================================================

        1589.0429       1589.0947       1589.8606
 ------------------------------------------------
          -0.5586          0.6635         -0.4977
          -0.6252          0.0575          0.7784
           0.5451          0.7459          0.3827


 The rotational contribution to the molecular entropy includes
 a term, dependent on the symmetry number sigma. The results 
 reported below were computed using sigma = 1, determined from
 the point group symmetry of the input geometry (NOSYM). 
 If this is not the correct symmetry, try symmetrizing the molecule before
 running the calculation (note: linear molecules should be aligned along one
 of the Cartesian axes).
 Contributions from frequencies below 20 1/cm are not included in vibrational sums.
 Their contributions, if any, are reported separately.


     Temp                                                        Transl      Rotat     Vibrat     Total
     ----                                                        ------      -----     ------     -----

     298.15   Entropy (cal/mol-K):                               41.597     29.775     18.406     89.778
              Nuclear Internal Energy (kcal/mol):                 0.889      0.889      6.297      8.075
              Constant Volume Heat Capacity (cal/mol-K):          2.981      2.981     15.071     21.033
          (c) Constant Volume Heat Capacity (cal/mol-K):          2.981      2.981     13.656     19.617

       Summary of energy terms
                                                   hartree              eV         kcal/mol           kJ/mol
                                      --------------------     -----------       ----------      -----------
      Energy from Engine:               -0.770647287796543        -20.9704          -483.59         -2023.33
      Nuclear Internal Energy:           0.012867965324505          0.3502             8.07            33.78
  (c) Nuclear Internal Energy:           0.012107191213564          0.3295             7.60            31.79
      Internal Energy U:                -0.757779322472038        -20.6202          -475.51         -1989.55
      pV/n = RT:                         0.000944186013486          0.0257             0.59             2.48
      Enthalpy H:                       -0.756835136458552        -20.5945          -474.92         -1987.07
      -T*S:                             -0.042656340022579         -1.1607           -26.77          -111.99
  (c) -T*S:                             -0.042361899345043         -1.1527           -26.58          -111.22
      Gibbs free energy:                -0.799491476481131        -21.7553          -501.69         -2099.06
 
 
 
  (c) The properties marked with this symbol have been corrected using 'low vibrational frequency free rotor
      interpolation corrections'. For those terms all positive frequencies are used (also ones below 20 1/cm),
      but the contribution to the partition function of small vibrational frequencies is modified as described
      in the following paper:
      S. Grimme, 'Supramolecular Binding Thermodynamics by Dispersion-Corrected Density Functional Theory'
      (Chem. Eur. J. 2012, 18, 9955-9964)
      Configuration: Dampener Frequency          :   100.000 1/cm
                     Dampener Alpha              :     4.000
                     Averaging Moment of Inertia : 1.000E-44 kg m2

--------------
Atomic charges
--------------
  Index   Atom    Charge
      1     Ti    0.9049
      2     Cl   -0.2262
      3     Cl   -0.2262
      4     Cl   -0.2262
      5     Cl   -0.2262


Dipole moment vector    (Debye):    -0.00010940   -0.00037989    0.00004217
              magnitude (Debye):     0.00039758


Final PES point is a local minimum. Geometry optimization successful!


AMS application finished. Exiting.
NORMAL TERMINATION
     Total cpu time:     681.38
  Total system time:       8.24
 Total elapsed time:    1386.74
 WARNING: total elapsed time is much higher than the (CPU+system) time. 
 Make sure the machine is not oversubscribed and has enough memory, SCM_TMPDIR p
 oints to a fast file system, and the network is fast enough.
