

 Parallel Execution: Process Information
 ==============================================================================
 Rank   Node Name                              NodeID   MyNodeRank  NodeMaster
    0   node117                                   0          0          0
    1   node117                                   0          1         -1
    2   node117                                   0          2         -1
    3   node117                                   0          3         -1
 ==============================================================================


May use up to 122928MB of RAM as shared memory on node 0

 *******************************************************************************
 *                                                                             *
 *  --------------------------------                                           *
 *   Amsterdam Modeling Suite (AMS)              2021.102                      *
 *  --------------------------------                                           *
 *                                               r95042 2021-06-07             *
 *                                                                             *
 *                                                                             *
 *                              =================                              *
 *                              |               |                              *
 *                              |     A M S     |                              *
 *                              |               |                              *
 *                              =================                              *
 *                                                                             *
 *                                                                             *
 *   Online information and documentation:  https://www.scm.com/support/       *
 *   E-mail:  support@scm.com   info@scm.com                                   *
 *                                                                             *
 *   Scientific publications using AMS results must be properly referenced     *
 *   See the User Manuals (or the web site) for recommended citations          *
 *   The terms and conditions of the End User License Agreement apply to       *
 *   the use of AMS, https://www.scm.com/license-terms/                        *
 *                                                                             *
 **********************  x86_64_linux_intel / intelmpi  ************************
 
 Licensed to: VU/FEW (+ SARA) / ALGEMEEN / Amsterdam / THE NETHERLANDS
 SCM User ID: u7668
  
 AMS 2021.102  RunTime: Jan30-2022 04:00:06  ShM Nodes: 1  Procs: 4

 AMS jobname: 21.achiral_catalyst.H_Ph_I2.P2
 AMS jobid  : 438506924

 Start   directory: /scistor/tc/yhk800/MasterProject/calculations/achiral_catalyst_H_Ph_I2/21.achiral_catalyst.H_Ph_I2.P2/
 Results directory: /scistor/tc/yhk800/MasterProject/calculations/achiral_catalyst_H_Ph_I2/21.achiral_catalyst.H_Ph_I2.P2/
 Scratch directory: /scratch/5297/amstmp_21.achiral_catalyst.H_Ph_I2.P2_kid0.438506924/


 Communication costs MPI_COMM_WORLD:      1.601 usec per message,   0.0064 usec per 8-byte item
 Communication costs for intra-node:      0.153 usec per message,   0.0180 usec per 8-byte item

 RNG seed: -1271603190 1871690843 -1416164606 -1461895557 -1894122628 -1767082566 -1870681569 768114935



                      ************************************************************************
                      *  ADF 2021.102  RunTime: Jan30-2022 04:00:07  ShM Nodes: 1  Procs: 4  *
                      ************************************************************************
  
       ***************************
       *  GEOMETRY OPTIMIZATION  *
       ***************************

Optimization Method                    Quasi Newton
Optimization Coordinates               Delocalized Coordinates
Optimize lattice                       F
 
 ------------------------------------------------------
 Convergence criteria (Hartree,Angstrom)
 ------------------------------------------------------
 Maximum gradient               0.001000000000
 Maximum rms gradient           0.000666666667
 Maximum step allowed           0.010000000000
 Maximum rms step allowed       0.006666666667
 Maximum energy change allowe   0.000250000000
 Maximum stress energy allowe   0.000500000000
 
Initial model Hessian                  Automatic Hessian
 
------------------------------------
Quasi-Newton Optimizer Parameters
------------------------------------
Hessian Update Method                  BFGS
Maximum number of steps                  250
First GDIIS cycle                          0
Maximum GDIIS vectors                      0
Trust radius (bohr)                        0.200000
Trust radius varies                        T
Constraints converged at all steps         T
Use projector                              T
 
 Rigid motions settings for: old optimizer
 Atomic rotations (x,y,z):     T T T
 Atomic translations (x,y,z):  T T T
 Tolerance:                   1.000000000000000E-006
 
--------
Geometry
--------
Formula: C10H12I2O
Atoms
  Index Symbol   x (angstrom)   y (angstrom)   z (angstrom)
      1      H     0.83345051    -1.35209109     1.20167740
      2      C    -0.83092072     0.03538951     0.93442801
      3      C     0.35139657    -0.78131674     0.40158875
      4      C     1.39689343     0.07225735    -0.26739819
      5      O     2.40703452    -0.34587328    -0.75774611
      6      H    -1.19392452     0.69150371     0.13740680
      7      H     0.00939092    -1.50634328    -0.34451216
      8      H    -0.05768346     0.24518214     2.94899716
      9      C    -0.44138171     0.87842746     2.14736270
     10      H     0.32560687     1.60312788     1.87585802
     11      H    -1.31355949     1.41759590     2.51749654
     12      C    -4.04067044    -2.67858482     2.01857462
     13      C    -4.31865374    -1.53007797     1.26695277
     14      C    -3.28313086    -0.65450113     0.91718762
     15      C    -1.96962468    -0.92743114     1.31904430
     16      C    -1.69164136    -2.07593799     2.07066615
     17      C    -2.72716424    -2.95151482     2.42043130
     18      H    -5.32378380    -1.32122463     0.95944130
     19      H    -3.49585113     0.22436701     0.34202649
     20      H    -0.68651131    -2.28479133     2.37817763
     21      H    -2.51444398    -3.83038297     2.99559244
     22      H    -4.83308023    -3.34859962     2.28622427
     23      H     1.16279025     1.11629180    -0.25802988
     24      I     3.62898812    -1.04016615    -1.71419100
     25      I     5.61933489    -2.17104671    -3.27207093
 
Total System Charge             0.00000
 
 
----------------
ADF Engine Input
----------------
 
 NumericalQuality VeryGood
 SCF
 Converge 1.0e-6
 Iterations 99
 End
 SYMMETRY NOSYM
 XC
 GGA OLYP
 End
 basis
 core None
 type TZ2P
 End
 

 Title: *** (NO TITLE) ***

Bad geometry: could not add a dihedral for atom   25
 Using automatic Hessian for delocalized coordinates.
 *** GOStep1 ***

 Energy gradients wrt nuclear displacements
 ==========================================

     Atom      Cartesian (a.u./angstrom)
                 X         Y         Z
 ----------------------------------------
     1 H    -0.001843  0.004662  0.000340
     2 C     0.015770  0.031016 -0.015335
     3 C    -0.018364 -0.012507  0.017344
     4 C     0.152498 -0.023211 -0.097361
     5 O     0.273274 -0.173523 -0.226655
     6 H     0.001430 -0.001223  0.001993
     7 H     0.001457  0.008816  0.001701
     8 H    -0.001145 -0.000842 -0.003826
     9 C     0.000101 -0.005396  0.004394
    10 H    -0.005160 -0.007395 -0.004840
    11 H     0.000205 -0.004056 -0.003973
    12 C    -0.018541 -0.016788  0.006806
    13 C    -0.025771  0.005806 -0.009280
    14 C    -0.000958  0.029476 -0.018692
    15 C    -0.011358 -0.015203  0.013209
    16 C     0.036014  0.000300  0.004064
    17 C     0.004593 -0.024229  0.014439
    18 H     0.019347 -0.004031  0.006155
    19 H     0.004320 -0.016724  0.011589
    20 H    -0.014222  0.007264 -0.007762
    21 H    -0.004282  0.016910 -0.010983
    22 H     0.014952  0.012848 -0.004857
    23 H    -0.007728 -0.044910  0.013123
    24 I    -0.386650  0.215843  0.281641
    25 I    -0.027938  0.017098  0.026768
 ----------------------------------------
 Mulliken charges used for AMS results%charges...
 
----------------------------------------------------------------------
Geometry Convergence after Step   1       (Hartree/Angstrom,Angstrom)
----------------------------------------------------------------------
current energy                               -4.90729313 Hartree
energy change                      -4.90729313     0.00025000    F
constrained gradient max            0.38666817     0.00100000    F
constrained gradient rms            0.07989930     0.00066667    F
gradient max                        0.38666817
gradient rms                        0.07989930
cart. step max                      0.10249832     0.01000000    F
cart. step rms                      0.02176942     0.00666667    F
 
 
--------
Geometry
--------
Formula: C10H12I2O
Atoms
  Index Symbol   x (angstrom)   y (angstrom)   z (angstrom)
      1      H     0.83683224    -1.34001915     1.20286270
      2      C    -0.84101982     0.03612322     0.94272610
      3      C     0.34849406    -0.77103025     0.40458621
      4      C     1.38821248     0.08834236    -0.26663518
      5      O     2.42190760    -0.34032489    -0.76990147
      6      H    -1.20963411     0.69047690     0.14618157
      7      H     0.00952416    -1.49880679    -0.34216837
      8      H    -0.06382049     0.25192467     2.95908307
      9      C    -0.45287683     0.88284985     2.15753920
     10      H     0.31038037     1.61417136     1.88805146
     11      H    -1.32684495     1.41789264     2.53128512
     12      C    -4.05326456    -2.68008445     2.02273754
     13      C    -4.32670845    -1.53197386     1.27239141
     14      C    -3.28975508    -0.65858751     0.92568481
     15      C    -1.97630409    -0.93028621     1.32793037
     16      C    -1.70532654    -2.08112863     2.07968185
     17      C    -2.74230765    -2.95419817     2.42625448
     18      H    -5.33416573    -1.32028030     0.96165825
     19      H    -3.50229175     0.22358212     0.34864444
     20      H    -0.69962172    -2.29554423     2.39196043
     21      H    -2.53117493    -3.83669513     3.00326791
     22      H    -4.84988483    -3.35135827     2.28917048
     23      H     1.15718831     1.14072997    -0.26330374
     24      I     3.72348952    -1.07360951    -1.77370685
     25      I     5.72183321    -2.19790665    -3.34079579
 
Total System Charge             0.00000
 
 *** GOStep2 ***

 Energy gradients wrt nuclear displacements
 ==========================================

     Atom      Cartesian (a.u./angstrom)
                 X         Y         Z
 ----------------------------------------
     1 H    -0.001940  0.004011  0.001140
     2 C     0.013233  0.028990 -0.016250
     3 C    -0.016302 -0.012808  0.016949
     4 C     0.067339  0.008906 -0.050405
     5 O     0.218132 -0.131797 -0.165227
     6 H     0.001192 -0.001121  0.001261
     7 H     0.000252  0.007093  0.000711
     8 H    -0.000900 -0.000769 -0.003187
     9 C     0.000148 -0.005145  0.005225
    10 H    -0.004093 -0.005981 -0.004341
    11 H    -0.000036 -0.003375 -0.003362
    12 C    -0.013437 -0.012231  0.004910
    13 C    -0.019356  0.003752 -0.006896
    14 C    -0.000374  0.023366 -0.014743
    15 C    -0.010338 -0.013643  0.012690
    16 C     0.028689 -0.000713  0.003601
    17 C     0.002769 -0.018527  0.010686
    18 H     0.014692 -0.003219  0.004838
    19 H     0.003382 -0.012760  0.009004
    20 H    -0.011047  0.006125 -0.006355
    21 H    -0.003422  0.012880 -0.008357
    22 H     0.011408  0.009837 -0.003637
    23 H    -0.009416 -0.034220  0.012881
    24 I    -0.252966  0.140385  0.181278
    25 I    -0.017608  0.010964  0.017586
 ----------------------------------------
 Mulliken charges used for AMS results%charges...

 dE(predicted):    -0.53220E-01, dE(actual):    -0.51023E-01, Trust radius:    0.400000, all in a.u.
 
----------------------------------------------------------------------
Geometry Convergence after Step   2       (Hartree/Angstrom,Angstrom)
----------------------------------------------------------------------
current energy                               -4.95831585 Hartree
energy change                      -0.05102272     0.00025000    F
constrained gradient max            0.25298319     0.00100000    F
constrained gradient rms            0.05475608     0.00066667    F
gradient max                        0.25298304
gradient rms                        0.05475608
cart. step max                      0.18723777     0.01000000    F
cart. step rms                      0.04851957     0.00666667    F
 
 
--------
Geometry
--------
Formula: C10H12I2O
Atoms
  Index Symbol   x (angstrom)   y (angstrom)   z (angstrom)
      1      H     0.91619588    -1.29839807     1.20869898
      2      C    -0.83660807     0.00308106     0.97788228
      3      C     0.39054699    -0.74668134     0.42036320
      4      C     1.39204731     0.13914856    -0.26601301
      5      O     2.42321323    -0.28481757    -0.77536591
      6      H    -1.22361799     0.64176120     0.17565081
      7      H     0.07968690    -1.49714008    -0.32064644
      8      H    -0.06147404     0.28952890     2.99848351
      9      C    -0.46854566     0.89105979     2.18137293
     10      H     0.27638959     1.64720070     1.91353854
     11      H    -1.35351310     1.41256279     2.55380410
     12      C    -4.10423840    -2.67734646     2.02332566
     13      C    -4.33447604    -1.53999695     1.25091232
     14      C    -3.27488691    -0.69287703     0.91979436
     15      C    -1.97062983    -0.96475877     1.35156782
     16      C    -1.75320142    -2.11130742     2.12950589
     17      C    -2.81057604    -2.95927299     2.46258121
     18      H    -5.33755801    -1.31281468     0.90424891
     19      H    -3.46610009     0.18948557     0.31709251
     20      H    -0.75829480    -2.34997034     2.48610718
     21      H    -2.62380702    -3.84228263     3.06529424
     22      H    -4.92498224    -3.33876867     2.28083520
     23      H     1.17250981     1.21232627    -0.32160507
     24      I     3.85466052    -1.09921121    -1.88420965
     25      I     5.81011985    -2.22625154    -3.52803355
 
Total System Charge             0.00000
 
 *** GOStep3 ***

 Energy gradients wrt nuclear displacements
 ==========================================

     Atom      Cartesian (a.u./angstrom)
                 X         Y         Z
 ----------------------------------------
     1 H    -0.001647  0.002482  0.000841
     2 C     0.005707  0.015170 -0.010917
     3 C     0.001347 -0.008497  0.004365
     4 C     0.030695  0.003192 -0.020697
     5 O     0.101323 -0.066249 -0.083039
     6 H     0.000144 -0.001992  0.000012
     7 H    -0.000908  0.002215 -0.000685
     8 H    -0.000293 -0.000036 -0.001697
     9 C     0.000279 -0.001963  0.003831
    10 H    -0.000995 -0.000939 -0.000961
    11 H    -0.000016 -0.000899 -0.001005
    12 C    -0.001499 -0.001219  0.000258
    13 C    -0.003275 -0.000680 -0.000736
    14 C     0.001147  0.005159 -0.002722
    15 C    -0.006283 -0.006431  0.007403
    16 C     0.005632 -0.002528  0.001130
    17 C    -0.000489 -0.002972  0.001571
    18 H     0.002441 -0.001051  0.001246
    19 H     0.000939 -0.002491  0.002195
    20 H    -0.003300  0.001949 -0.001713
    21 H    -0.001115  0.002287 -0.001557
    22 H     0.002023  0.001803 -0.000637
    23 H    -0.000757 -0.011237  0.004135
    24 I    -0.128591  0.072912  0.096098
    25 I    -0.002510  0.002015  0.003282
 ----------------------------------------
 Mulliken charges used for AMS results%charges...

 dE(predicted):    -0.39824E-01, dE(actual):    -0.52396E-01, Trust radius:    0.800000, all in a.u.
 
----------------------------------------------------------------------
Geometry Convergence after Step   3       (Hartree/Angstrom,Angstrom)
----------------------------------------------------------------------
current energy                               -5.01071147 Hartree
energy change                      -0.05239562     0.00025000    F
constrained gradient max            0.12860372     0.00100000    F
constrained gradient rms            0.02707922     0.00066667    F
gradient max                        0.12860370
gradient rms                        0.02707922
cart. step max                      0.12801854     0.01000000    F
cart. step rms                      0.03206637     0.00666667    F
 
 
--------
Geometry
--------
Formula: C10H12I2O
Atoms
  Index Symbol   x (angstrom)   y (angstrom)   z (angstrom)
      1      H     0.92973919    -1.26486293     1.20199027
      2      C    -0.85443665     0.01426593     1.01026825
      3      C     0.37879139    -0.71243388     0.42934703
      4      C     1.36477635     0.17117957    -0.27529731
      5      O     2.40824263    -0.24732306    -0.76803894
      6      H    -1.24705313     0.66538470     0.21884620
      7      H     0.07480577    -1.47170976    -0.30705642
      8      H    -0.07263939     0.29644076     3.03710879
      9      C    -0.48086905     0.89952229     2.21940524
     10      H     0.26735503     1.65740092     1.95821942
     11      H    -1.36154742     1.42457102     2.60026112
     12      C    -4.10627996    -2.68949201     2.01771537
     13      C    -4.33948549    -1.55314566     1.24488619
     14      C    -3.28409826    -0.70266779     0.91698699
     15      C    -1.97818641    -0.95949531     1.35678334
     16      C    -1.75948499    -2.10878207     2.12927163
     17      C    -2.81028811    -2.96518554     2.45389885
     18      H    -5.34522913    -1.32762105     0.89072849
     19      H    -3.48233053     0.17997966     0.30767518
     20      H    -0.75960834    -2.35526332     2.48426312
     21      H    -2.61326779    -3.85419646     3.05272314
     22      H    -4.92634469    -3.35971355     2.27317932
     23      H     1.14691694     1.25573648    -0.37649423
     24      I     3.96877828    -1.15405978    -1.96111031
     25      I     5.89460415    -2.35427008    -3.59037471
 
Total System Charge             0.00000
 
 *** GOStep4 ***

 Energy gradients wrt nuclear displacements
 ==========================================

     Atom      Cartesian (a.u./angstrom)
                 X         Y         Z
 ----------------------------------------
     1 H    -0.000172  0.000162  0.001122
     2 C    -0.001444  0.004782 -0.002947
     3 C     0.004069 -0.002938 -0.000266
     4 C    -0.000728 -0.004135 -0.000591
     5 O     0.063324 -0.040508 -0.050370
     6 H    -0.000914 -0.001635 -0.000625
     7 H     0.000380 -0.000176 -0.000895
     8 H     0.000400 -0.000094  0.000128
     9 C     0.000299 -0.000030  0.001455
    10 H     0.000570  0.001338  0.000574
    11 H    -0.000041  0.000351  0.000300
    12 C     0.002276  0.002544 -0.000550
    13 C     0.003132 -0.000159  0.001085
    14 C    -0.000572 -0.003598  0.001218
    15 C    -0.000709 -0.001856  0.001953
    16 C    -0.002910  0.000642 -0.000917
    17 C     0.000304  0.003225 -0.002629
    18 H    -0.002553  0.000633 -0.000850
    19 H    -0.000696  0.002069 -0.001621
    20 H     0.002808 -0.001267  0.000274
    21 H     0.000637 -0.002131  0.001467
    22 H    -0.002048 -0.001693  0.000574
    23 H     0.003713  0.002442 -0.000681
    24 I    -0.074483  0.045922  0.057203
    25 I     0.005361 -0.003891 -0.004413
 ----------------------------------------
 Mulliken charges used for AMS results%charges...

 dE(predicted):    -0.16621E-01, dE(actual):    -0.24356E-01, Trust radius:    0.800000, all in a.u.
 
----------------------------------------------------------------------
Geometry Convergence after Step   4       (Hartree/Angstrom,Angstrom)
----------------------------------------------------------------------
current energy                               -5.03506718 Hartree
energy change                      -0.02435571     0.00025000    F
constrained gradient max            0.07448916     0.00100000    F
constrained gradient rms            0.01608315     0.00066667    F
gradient max                        0.07448866
gradient rms                        0.01608315
cart. step max                      0.13601328     0.01000000    F
cart. step rms                      0.04250639     0.00666667    F
 
 
--------
Geometry
--------
Formula: C10H12I2O
Atoms
  Index Symbol   x (angstrom)   y (angstrom)   z (angstrom)
      1      H     0.95851902    -1.24422507     1.18174188
      2      C    -0.85891669     0.00446952     1.04191320
      3      C     0.37299308    -0.69812865     0.42996440
      4      C     1.32833834     0.19488661    -0.30368360
      5      O     2.38412279    -0.19332640    -0.77420519
      6      H    -1.25081621     0.67890801     0.26828508
      7      H     0.06807342    -1.46516044    -0.29798966
      8      H    -0.06672732     0.26107463     3.07119172
      9      C    -0.46980517     0.87409395     2.25725656
     10      H     0.28939252     1.62093282     1.99554342
     11      H    -1.34095075     1.41025803     2.64586518
     12      C    -4.12536591    -2.69456365     2.00021804
     13      C    -4.33984053    -1.56586837     1.21018473
     14      C    -3.28191030    -0.70698948     0.91413614
     15      C    -1.98335279    -0.95956025     1.37799083
     16      C    -1.78729502    -2.09496476     2.17822097
     17      C    -2.84413248    -2.94966107     2.48923017
     18      H    -5.33511613    -1.34688605     0.82277970
     19      H    -3.46909487     0.17137298     0.29373498
     20      H    -0.80278833    -2.32149299     2.58790291
     21      H    -2.66082371    -3.82346027     3.11506171
     22      H    -4.95043660    -3.36402845     2.24257004
     23      H     1.04979431     1.26457897    -0.47387494
     24      I     4.09838230    -1.20454852    -2.06135283
     25      I     6.03061743    -2.36345200    -3.68749946
 
Total System Charge             0.00000
 
 *** GOStep5 ***

 Energy gradients wrt nuclear displacements
 ==========================================

     Atom      Cartesian (a.u./angstrom)
                 X         Y         Z
 ----------------------------------------
     1 H     0.001363 -0.000177  0.000163
     2 C    -0.006253 -0.004478  0.000057
     3 C     0.004949  0.003807 -0.005921
     4 C     0.001666 -0.010834  0.008165
     5 O     0.025002 -0.019289 -0.024969
     6 H    -0.000075 -0.000064 -0.000862
     7 H     0.001438 -0.001294 -0.000051
     8 H     0.000433 -0.000497  0.001033
     9 C    -0.000492  0.000199 -0.000468
    10 H     0.000693  0.001151  0.000273
    11 H    -0.000289  0.000578  0.000652
    12 C     0.002699  0.000945 -0.001661
    13 C     0.004177 -0.000754 -0.000136
    14 C    -0.001233 -0.002015  0.006107
    15 C     0.004302  0.002542 -0.001870
    16 C    -0.004256  0.000028 -0.003567
    17 C    -0.000541  0.003619 -0.001065
    18 H    -0.002710  0.000922 -0.001392
    19 H    -0.000828  0.002865 -0.002147
    20 H     0.002457 -0.000911  0.002959
    21 H     0.000846 -0.002550  0.001868
    22 H    -0.002415 -0.001624  0.001319
    23 H     0.003568  0.006343 -0.004655
    24 I    -0.043792  0.026999  0.034269
    25 I     0.009292 -0.005513 -0.008102
 ----------------------------------------
 Mulliken charges used for AMS results%charges...
 Rebuilding optimization coordinates
Bad geometry: could not add a dihedral for atom   25

 dE(predicted):    -0.10291E-01, dE(actual):    -0.14781E-01, Trust radius:    1.000000, all in a.u.
 
----------------------------------------------------------------------
Geometry Convergence after Step   5       (Hartree/Angstrom,Angstrom)
----------------------------------------------------------------------
current energy                               -5.04984825 Hartree
energy change                      -0.01478107     0.00025000    F
constrained gradient max            0.04379223     0.00100000    F
constrained gradient rms            0.00911819     0.00066667    F
gradient max                        0.04379238
gradient rms                        0.00911819
cart. step max                      0.21226284     0.01000000    F
cart. step rms                      0.04641709     0.00666667    F
 
 
--------
Geometry
--------
Formula: C10H12I2O
Atoms
  Index Symbol   x (angstrom)   y (angstrom)   z (angstrom)
      1      H     0.93803510    -1.25130232     1.10924957
      2      C    -0.87532451     0.01077163     1.05480496
      3      C     0.32551251    -0.69281598     0.38923025
      4      C     1.25268740     0.20541259    -0.38130525
      5      O     2.34276082    -0.14027265    -0.79618890
      6      H    -1.27700099     0.71266197     0.31064156
      7      H    -0.01485658    -1.44945799    -0.33364880
      8      H    -0.02475934     0.21351977     3.06753821
      9      C    -0.43514167     0.84840795     2.27458291
     10      H     0.33481542     1.57971391     2.00231622
     11      H    -1.28287194     1.39812231     2.69455738
     12      C    -4.13869902    -2.68025329     2.03445103
     13      C    -4.35831804    -1.55124402     1.24617320
     14      C    -3.29616853    -0.70862014     0.91814278
     15      C    -1.99927227    -0.94804446     1.39389202
     16      C    -1.79602823    -2.08936859     2.18414043
     17      C    -2.84871153    -2.95075594     2.49202510
     18      H    -5.35613711    -1.32924368     0.87018792
     19      H    -3.48616543     0.16727178     0.29707764
     20      H    -0.80180460    -2.33425700     2.55558368
     21      H    -2.65755698    -3.83434338     3.09958397
     22      H    -4.95962125    -3.35430685     2.27321808
     23      H     0.93532395     1.26744390    -0.54658256
     24      I     4.24928296    -1.22187121    -2.08934048
     25      I     6.24288027    -2.38290922    -3.59514490
 
Total System Charge             0.00000
 
 *** GOStep6 ***

 Energy gradients wrt nuclear displacements
 ==========================================

     Atom      Cartesian (a.u./angstrom)
                 X         Y         Z
 ----------------------------------------
     1 H     0.000851 -0.001116  0.000863
     2 C    -0.006342 -0.006286  0.002516
     3 C     0.002943  0.006197  0.000048
     4 C    -0.006431 -0.014609 -0.009390
     5 O     0.015978 -0.010052 -0.007713
     6 H     0.000432  0.000674 -0.000801
     7 H     0.002691 -0.000813  0.000004
     8 H     0.000288 -0.000353  0.000920
     9 C    -0.000054  0.001107 -0.000636
    10 H     0.000620  0.000642  0.000094
    11 H    -0.000146  0.000416  0.000504
    12 C     0.000864  0.001908  0.001581
    13 C     0.001794  0.001497  0.002627
    14 C     0.000295 -0.005939 -0.002784
    15 C     0.005356  0.005879  0.000499
    16 C    -0.003187  0.002434  0.000149
    17 C    -0.000107  0.000342 -0.002860
    18 H    -0.001510  0.000761 -0.000821
    19 H    -0.000687  0.002037 -0.000950
    20 H     0.002251 -0.002118 -0.000148
    21 H     0.000676 -0.001346  0.001178
    22 H    -0.001038 -0.001734 -0.000541
    23 H     0.004198  0.008133  0.002201
    24 I    -0.028307  0.017490  0.020184
    25 I     0.008570 -0.005151 -0.006724
 ----------------------------------------
 Mulliken charges used for AMS results%charges...

 dE(predicted):    -0.61815E-02, dE(actual):    -0.68868E-02, Trust radius:    1.000000, all in a.u.
 
----------------------------------------------------------------------
Geometry Convergence after Step   6       (Hartree/Angstrom,Angstrom)
----------------------------------------------------------------------
current energy                               -5.05673505 Hartree
energy change                      -0.00688680     0.00025000    F
constrained gradient max            0.02831002     0.00100000    F
constrained gradient rms            0.00614606     0.00066667    F
gradient max                        0.02831000
gradient rms                        0.00614606
cart. step max                      0.09829948     0.01000000    F
cart. step rms                      0.03651459     0.00666667    F
 
 
--------
Geometry
--------
Formula: C10H12I2O
Atoms
  Index Symbol   x (angstrom)   y (angstrom)   z (angstrom)
      1      H     0.94738889    -1.23068323     1.11552432
      2      C    -0.87175523     0.02472685     1.08446765
      3      C     0.32970955    -0.66480431     0.40707738
      4      C     1.24971425     0.25417305    -0.35531578
      5      O     2.33390366    -0.07748242    -0.79308979
      6      H    -1.27305586     0.74238307     0.35538684
      7      H    -0.01547805    -1.41022370    -0.32541950
      8      H    -0.02692390     0.18702192     3.10296819
      9      C    -0.43311773     0.83713418     2.32079000
     10      H     0.34021728     1.56930801     2.06241219
     11      H    -1.28046853     1.38198701     2.74742059
     12      C    -4.12747442    -2.69977079     1.99475038
     13      C    -4.33938745    -1.58312108     1.18709145
     14      C    -3.28593112    -0.71278049     0.90481601
     15      C    -1.99584993    -0.94167095     1.40346918
     16      C    -1.79969748    -2.07170844     2.21184760
     17      C    -2.85211329    -2.93730558     2.50882635
     18      H    -5.32795511    -1.38033396     0.77966422
     19      H    -3.46887574     0.15370721     0.27042550
     20      H    -0.81785265    -2.28611418     2.62925442
     21      H    -2.67027105    -3.80468150     3.14049857
     22      H    -4.94806737    -3.37519349     2.22674964
     23      H     0.84055094     1.25834963    -0.63690222
     24      I     4.28309440    -1.26744901    -2.15982756
     25      I     6.22255637    -2.48120870    -3.65769962
 
Total System Charge             0.00000
 
 *** GOStep7 ***

 Energy gradients wrt nuclear displacements
 ==========================================

     Atom      Cartesian (a.u./angstrom)
                 X         Y         Z
 ----------------------------------------
     1 H     0.001892  0.000392 -0.000581
     2 C    -0.005557 -0.005778  0.000377
     3 C    -0.002768  0.002316 -0.008755
     4 C     0.010929  0.001397  0.021643
     5 O     0.005853 -0.011640 -0.014435
     6 H     0.000403  0.000909 -0.000340
     7 H     0.000522 -0.002700  0.001694
     8 H     0.000091 -0.000365  0.000693
     9 C     0.000136  0.000837 -0.000221
    10 H     0.000194 -0.000000  0.000086
    11 H    -0.000143  0.000150  0.000237
    12 C     0.000624 -0.000281 -0.000665
    13 C     0.001281 -0.000899 -0.001345
    14 C    -0.001571  0.000221  0.003429
    15 C     0.005383  0.003852 -0.002039
    16 C    -0.000833  0.000062 -0.002098
    17 C    -0.000677  0.001149  0.000718
    18 H    -0.000588  0.000548 -0.000259
    19 H    -0.000170  0.000489 -0.001068
    20 H     0.000852 -0.000525  0.001014
    21 H     0.000483 -0.000552  0.000347
    22 H    -0.000600 -0.000101  0.000613
    23 H    -0.002565  0.001622 -0.007858
    24 I    -0.019122  0.012644  0.013371
    25 I     0.005950 -0.003746 -0.004559
 ----------------------------------------
 Mulliken charges used for AMS results%charges...

 dE(predicted):    -0.24440E-02, dE(actual):    -0.29749E-02, Trust radius:    1.000000, all in a.u.
 
----------------------------------------------------------------------
Geometry Convergence after Step   7       (Hartree/Angstrom,Angstrom)
----------------------------------------------------------------------
current energy                               -5.05970998 Hartree
energy change                      -0.00297493     0.00025000    F
constrained gradient max            0.02164417     0.00100000    F
constrained gradient rms            0.00524726     0.00066667    F
gradient max                        0.02164418
gradient rms                        0.00524726
cart. step max                      0.21535218     0.01000000    F
cart. step rms                      0.05173395     0.00666667    F
 
 
--------
Geometry
--------
Formula: C10H12I2O
Atoms
  Index Symbol   x (angstrom)   y (angstrom)   z (angstrom)
      1      H     0.91791804    -1.26041407     1.00903747
      2      C    -0.88206028     0.02028261     1.08474133
      3      C     0.28095383    -0.66700688     0.34265454
      4      C     1.17800939     0.26470758    -0.44024047
      5      O     2.29251185    -0.01752057    -0.82838671
      6      H    -1.29747167     0.76700232     0.39382311
      7      H    -0.10915982    -1.38332280    -0.39631783
      8      H     0.03738357     0.11107856     3.07493839
      9      C    -0.38352100     0.78893310     2.32536146
     10      H     0.39527943     1.51086147     2.05602276
     11      H    -1.20354592     1.33928263     2.79580021
     12      C    -4.14356040    -2.68951511     2.01979976
     13      C    -4.35771492    -1.57133651     1.21504496
     14      C    -3.30450490    -0.70054490     0.93115718
     15      C    -2.01090114    -0.93772721     1.41597618
     16      C    -1.81334756    -2.06687186     2.22574840
     17      C    -2.86698696    -2.92816070     2.53083604
     18      H    -5.34761463    -1.36664263     0.81389894
     19      H    -3.48856995     0.16757786     0.30094867
     20      H    -0.83152592    -2.27717566     2.64281087
     21      H    -2.68581468    -3.79299169     3.16484049
     22      H    -4.96505406    -3.36002980     2.25924120
     23      H     0.73338463     1.25542920    -0.71572224
     24      I     4.43086493    -1.26334957    -2.16139280
     25      I     6.43790855    -2.45828629    -3.53543590
 
Total System Charge             0.00000
 
 *** GOStep8 ***

 Energy gradients wrt nuclear displacements
 ==========================================

     Atom      Cartesian (a.u./angstrom)
                 X         Y         Z
 ----------------------------------------
     1 H     0.001163  0.000156 -0.000193
     2 C    -0.003565 -0.006174  0.000019
     3 C    -0.004003  0.003132 -0.002277
     4 C     0.007677 -0.001052  0.004863
     5 O     0.004060 -0.007095 -0.005826
     6 H     0.000575  0.001142 -0.000042
     7 H     0.001245 -0.001844  0.001452
     8 H    -0.000143 -0.000318  0.000395
     9 C    -0.000052  0.000633  0.000142
    10 H     0.000006 -0.000369 -0.000224
    11 H    -0.000071  0.000083  0.000067
    12 C     0.000128 -0.001306 -0.001305
    13 C     0.000226 -0.001237 -0.002052
    14 C    -0.001901  0.002456  0.004372
    15 C     0.004686  0.002912 -0.003314
    16 C     0.000555 -0.000805 -0.001822
    17 C    -0.000743  0.000573  0.001807
    18 H     0.000287  0.000168  0.000008
    19 H     0.000135 -0.000416 -0.000421
    20 H    -0.000222  0.000445  0.001072
    21 H     0.000229  0.000218 -0.000241
    22 H    -0.000009  0.000783  0.000778
    23 H    -0.001958  0.002427 -0.001965
    24 I    -0.010133  0.006622  0.005881
    25 I     0.001828 -0.001132 -0.001173
 ----------------------------------------
 Mulliken charges used for AMS results%charges...

 dE(predicted):    -0.39720E-02, dE(actual):    -0.29618E-02, Trust radius:    1.000000, all in a.u.
 Residual max backtransformation error   0.3470E-04
 
----------------------------------------------------------------------
Geometry Convergence after Step   8       (Hartree/Angstrom,Angstrom)
----------------------------------------------------------------------
current energy                               -5.06267180 Hartree
energy change                      -0.00296182     0.00025000    F
constrained gradient max            0.01013470     0.00100000    F
constrained gradient rms            0.00275459     0.00066667    F
gradient max                        0.01013468
gradient rms                        0.00275459
cart. step max                      0.21351967     0.01000000    F
cart. step rms                      0.06137056     0.00666667    F
 
 
--------
Geometry
--------
Formula: C10H12I2O
Atoms
  Index Symbol   x (angstrom)   y (angstrom)   z (angstrom)
      1      H     0.87123592    -1.28768992     0.88417413
      2      C    -0.89547900     0.02569685     1.08641500
      3      C     0.22010256    -0.65630075     0.27007041
      4      C     1.09565196     0.29445755    -0.52115402
      5      O     2.23545084     0.06394994    -0.86141722
      6      H    -1.33029694     0.80062398     0.44028510
      7      H    -0.22358447    -1.32821186    -0.48085269
      8      H     0.11897459     0.04073813     3.03260612
      9      C    -0.32714076     0.74636143     2.32508902
     10      H     0.44950134     1.46442576     2.04001413
     11      H    -1.11517790     1.29386301     2.85014759
     12      C    -4.15403134    -2.67612613     2.06076644
     13      C    -4.37880525    -1.54705250     1.27455584
     14      C    -3.32098990    -0.69373881     0.95539189
     15      C    -2.02514013    -0.92935839     1.43371516
     16      C    -1.81688673    -2.06857047     2.22690658
     17      C    -2.86524669    -2.93709197     2.52886281
     18      H    -5.37552611    -1.33341918     0.89648014
     19      H    -3.51261149     0.18313100     0.34051522
     20      H    -0.82402437    -2.29669143     2.60518300
     21      H    -2.67474108    -3.81667848     3.13885941
     22      H    -4.97095229    -3.35321805     2.29606457
     23      H     0.59901894     1.24699072    -0.83687846
     24      I     4.58213049    -1.27675538    -2.11991051
     25      I     6.65142822    -2.47507597    -3.34070365
 
Total System Charge             0.00000
 
 *** GOStep9 ***

 Energy gradients wrt nuclear displacements
 ==========================================

     Atom      Cartesian (a.u./angstrom)
                 X         Y         Z
 ----------------------------------------
     1 H     0.000691  0.000135 -0.000184
     2 C    -0.001416 -0.004537 -0.000700
     3 C    -0.005430  0.001389  0.000972
     4 C     0.009804  0.002382 -0.000189
     5 O    -0.000316 -0.005117 -0.001801
     6 H     0.000513  0.001073  0.000204
     7 H     0.001238 -0.001737  0.001124
     8 H    -0.000221 -0.000033  0.000064
     9 C     0.000293  0.000574  0.000466
    10 H     0.000057 -0.000436 -0.000264
    11 H     0.000023  0.000052 -0.000128
    12 C    -0.000819  0.000359  0.001407
    13 C    -0.001234  0.001285  0.001855
    14 C     0.000568 -0.002101 -0.004115
    15 C     0.001922  0.003675 -0.000166
    16 C     0.000176  0.000665  0.002059
    17 C     0.000298 -0.001776 -0.001175
    18 H     0.000663 -0.000142  0.000038
    19 H     0.000080 -0.000164  0.000893
    20 H    -0.000263 -0.000266 -0.000980
    21 H    -0.000046  0.000662 -0.000243
    22 H     0.000641 -0.000004 -0.000869
    23 H    -0.002328  0.000827 -0.000412
    24 I    -0.001006  0.001027 -0.000194
    25 I    -0.003887  0.002209  0.002336
 ----------------------------------------
 Mulliken charges used for AMS results%charges...
 Rebuilding optimization coordinates
Bad geometry: could not add a dihedral for atom   25

 dE(predicted):    -0.19610E-02, dE(actual):    -0.18361E-02, Trust radius:    1.000000, all in a.u.
 
----------------------------------------------------------------------
Geometry Convergence after Step   9       (Hartree/Angstrom,Angstrom)
----------------------------------------------------------------------
current energy                               -5.06450794 Hartree
energy change                      -0.00183614     0.00025000    F
constrained gradient max            0.00979936     0.00100000    F
constrained gradient rms            0.00197002     0.00066667    F
gradient max                        0.00979937
gradient rms                        0.00197002
cart. step max                      0.20047058     0.01000000    F
cart. step rms                      0.05724317     0.00666667    F
 
 
--------
Geometry
--------
Formula: C10H12I2O
Atoms
  Index Symbol   x (angstrom)   y (angstrom)   z (angstrom)
      1      H     0.81665717    -1.32215187     0.75029219
      2      C    -0.90547953     0.02513234     1.07702818
      3      C     0.16099056    -0.64861161     0.18938203
      4      C     1.02619795     0.31834152    -0.59618865
      5      O     2.18524649     0.12902419    -0.89369302
      6      H    -1.35721734     0.82666324     0.47702405
      7      H    -0.33419269    -1.26860757    -0.57439217
      8      H     0.19944545    -0.03897015     2.97277795
      9      C    -0.27107174     0.69485631     2.31163149
     10      H     0.50032884     1.41389352     2.01503910
     11      H    -1.02684643     1.23245581     2.89146865
     12      C    -4.15978332    -2.66917844     2.09166387
     13      C    -4.39342368    -1.53369697     1.31751740
     14      C    -3.34033293    -0.67406914     0.99920939
     15      C    -2.03535372    -0.92641010     1.44215026
     16      C    -1.81668442    -2.07546540     2.21812245
     17      C    -2.86525540    -2.93609699     2.54046346
     18      H    -5.39663439    -1.31137510     0.96213553
     19      H    -3.53865556     0.20854730     0.39479588
     20      H    -0.81856474    -2.30818856     2.57906702
     21      H    -2.66926204    -3.81979476     3.14285105
     22      H    -4.97680060    -3.34074608     2.34231413
     23      H     0.50381917     1.24969097    -0.93062617
     24      I     4.69921860    -1.27242617    -2.05461500
     25      I     6.82651471    -2.46855717    -3.14023307
 
Total System Charge             0.00000
 
 *** GOStep10 ***

 Energy gradients wrt nuclear displacements
 ==========================================

     Atom      Cartesian (a.u./angstrom)
                 X         Y         Z
 ----------------------------------------
     1 H     0.000374  0.000141 -0.000191
     2 C     0.000178 -0.003360 -0.001725
     3 C    -0.005194  0.000768  0.004029
     4 C     0.007900  0.003188 -0.005192
     5 O    -0.000596 -0.003834  0.000565
     6 H     0.000315  0.000838  0.000385
     7 H     0.001302 -0.001262  0.000384
     8 H    -0.000259  0.000047 -0.000032
     9 C     0.000011  0.000101  0.000711
    10 H     0.000087 -0.000359 -0.000319
    11 H     0.000090  0.000106 -0.000133
    12 C    -0.000517 -0.000199  0.000210
    13 C    -0.000625 -0.000438 -0.000633
    14 C    -0.000060  0.000562 -0.000370
    15 C     0.000491  0.002077 -0.000511
    16 C     0.000592 -0.000936  0.000357
    17 C     0.000077 -0.000314  0.000745
    18 H     0.000504 -0.000007  0.000382
    19 H     0.000256 -0.000572  0.000276
    20 H    -0.000448  0.000268 -0.000419
    21 H    -0.000096  0.000473 -0.000378
    22 H     0.000412  0.000358 -0.000209
    23 H    -0.001845  0.000382  0.001142
    24 I     0.004713 -0.002313 -0.003050
    25 I    -0.007664  0.004284  0.003982
 ----------------------------------------
 Mulliken charges used for AMS results%charges...

 dE(predicted):    -0.11851E-02, dE(actual):    -0.88418E-03, Trust radius:    1.000000, all in a.u.
 
----------------------------------------------------------------------
Geometry Convergence after Step  10       (Hartree/Angstrom,Angstrom)
----------------------------------------------------------------------
current energy                               -5.06539212 Hartree
energy change                      -0.00088418     0.00025000    F
constrained gradient max            0.00789400     0.00100000    F
constrained gradient rms            0.00207764     0.00066667    F
gradient max                        0.00789400
gradient rms                        0.00207764
cart. step max                      0.20900304     0.01000000    F
cart. step rms                      0.05406674     0.00666667    F
 
 
--------
Geometry
--------
Formula: C10H12I2O
Atoms
  Index Symbol   x (angstrom)   y (angstrom)   z (angstrom)
      1      H     0.75961011    -1.35039668     0.62648992
      2      C    -0.91467745     0.02547644     1.06416513
      3      C     0.10480560    -0.63912299     0.11432978
      4      C     0.96457793     0.34105468    -0.66070972
      5      O     2.13754438     0.18544357    -0.92167238
      6      H    -1.38052653     0.84854966     0.50597308
      7      H    -0.43668372    -1.20885430    -0.65750046
      8      H     0.27165581    -0.10616990     2.90694324
      9      C    -0.22145179     0.65071850     2.28993418
     10      H     0.54235254     1.37337702     1.98273560
     11      H    -0.94692974     1.17522055     2.91844596
     12      C    -4.16061924    -2.66327452     2.12358234
     13      C    -4.40652162    -1.51470392     1.37298298
     14      C    -3.35640031    -0.65616555     1.04208619
     15      C    -2.04235194    -0.92430216     1.44684320
     16      C    -1.81173861    -2.08437795     2.20242946
     17      C    -2.85735515    -2.94345469     2.53786362
     18      H    -5.41688522    -1.28206819     1.04512942
     19      H    -3.56410250     0.23670824     0.45597903
     20      H    -0.80686004    -2.32570714     2.53820075
     21      H    -2.65295540    -3.83585669     3.12467409
     22      H    -4.97577411    -3.33258959     2.38661030
     23      H     0.42388903     1.25267780    -1.01795815
     24      I     4.79164138    -1.26964647    -1.97114155
     25      I     6.96861700    -2.46827661    -2.93123003
 
Total System Charge             0.00000
 
 *** GOStep11 ***

 Energy gradients wrt nuclear displacements
 ==========================================

     Atom      Cartesian (a.u./angstrom)
                 X         Y         Z
 ----------------------------------------
     1 H     0.000181  0.000133 -0.000309
     2 C     0.001173 -0.002251 -0.002345
     3 C    -0.004723  0.000086  0.005728
     4 C     0.006352  0.003831 -0.006488
     5 O    -0.000430 -0.003062  0.001261
     6 H     0.000154  0.000597  0.000493
     7 H     0.001109 -0.000892 -0.000284
     8 H    -0.000241  0.000121 -0.000059
     9 C    -0.000083 -0.000231  0.000765
    10 H     0.000145 -0.000226 -0.000314
    11 H     0.000131  0.000144 -0.000137
    12 C    -0.000354 -0.000259 -0.000302
    13 C    -0.000490 -0.000396 -0.000414
    14 C     0.000038  0.000908  0.000285
    15 C    -0.000478  0.000739 -0.000719
    16 C     0.000418 -0.000961  0.000445
    17 C     0.000279 -0.000145  0.000513
    18 H     0.000388 -0.000130  0.000182
    19 H     0.000232 -0.000483  0.000173
    20 H    -0.000399  0.000449 -0.000162
    21 H    -0.000141  0.000354 -0.000242
    22 H     0.000251  0.000393  0.000053
    23 H    -0.001389 -0.000144  0.001417
    24 I     0.007670 -0.003968 -0.003936
    25 I    -0.009791  0.005394  0.004396
 ----------------------------------------
 Mulliken charges used for AMS results%charges...

 dE(predicted):    -0.38424E-03, dE(actual):    -0.49013E-03, Trust radius:    1.000000, all in a.u.
 
----------------------------------------------------------------------
Geometry Convergence after Step  11       (Hartree/Angstrom,Angstrom)
----------------------------------------------------------------------
current energy                               -5.06588225 Hartree
energy change                      -0.00049013     0.00025000    F
constrained gradient max            0.00979702     0.00100000    F
constrained gradient rms            0.00237630     0.00066667    F
gradient max                        0.00979702
gradient rms                        0.00237630
cart. step max                      0.19882765     0.01000000    F
cart. step rms                      0.04833634     0.00666667    F
 
 
--------
Geometry
--------
Formula: C10H12I2O
Atoms
  Index Symbol   x (angstrom)   y (angstrom)   z (angstrom)
      1      H     0.70351601    -1.37052910     0.51893456
      2      C    -0.92361440     0.02834403     1.05041179
      3      C     0.05374802    -0.62698232     0.04861217
      4      C     0.91315811     0.36264280    -0.71214978
      5      O     2.09567282     0.23139841    -0.94321025
      6      H    -1.40103324     0.86795609     0.52809098
      7      H    -0.52720880    -1.15102755    -0.72697629
      8      H     0.33251484    -0.15772373     2.84181990
      9      C    -0.18102165     0.61695855     2.26489586
     10      H     0.57339779     1.34561607     1.94905208
     11      H    -0.88006050     1.12607653     2.93472893
     12      C    -4.15614463    -2.65973385     2.15429282
     13      C    -4.41536192    -1.49770661     1.42927600
     14      C    -3.36909695    -0.64099072     1.08196534
     15      C    -2.04667437    -0.92164515     1.44921043
     16      C    -1.80259438    -2.09480491     2.17957030
     17      C    -2.84373796    -2.95428880     2.52770276
     18      H    -5.43294338    -1.25421229     1.13262405
     19      H    -3.58745403     0.26303290     0.51691387
     20      H    -0.79026670    -2.34768551     2.48329903
     21      H    -2.62890759    -3.85805675     3.09328366
     22      H    -4.96762037    -3.33006423     2.42653180
     23      H     0.36299630     1.25988521    -1.09014489
     24      I     4.85745070    -1.27206428    -1.88114673
     25      I     7.07414670    -2.48013569    -2.73240238
 
Total System Charge             0.00000
 
 *** GOStep12 ***

 Energy gradients wrt nuclear displacements
 ==========================================

     Atom      Cartesian (a.u./angstrom)
                 X         Y         Z
 ----------------------------------------
     1 H     0.000085  0.000121 -0.000379
     2 C     0.001498 -0.001279 -0.002483
     3 C    -0.003918 -0.000345  0.005960
     4 C     0.004890  0.003725 -0.005319
     5 O    -0.000237 -0.002403  0.001153
     6 H     0.000028  0.000415  0.000498
     7 H     0.000722 -0.000576 -0.000700
     8 H    -0.000190  0.000145 -0.000046
     9 C    -0.000057 -0.000379  0.000626
    10 H     0.000170 -0.000112 -0.000255
    11 H     0.000113  0.000168 -0.000114
    12 C    -0.000339  0.000053  0.000005
    13 C    -0.000369 -0.000156 -0.000011
    14 C     0.000242  0.000254 -0.000466
    15 C    -0.000934  0.000259 -0.000127
    16 C     0.000203 -0.000618  0.000554
    17 C     0.000355 -0.000098  0.000135
    18 H     0.000212 -0.000108  0.000114
    19 H     0.000129 -0.000243  0.000211
    20 H    -0.000224  0.000328 -0.000226
    21 H    -0.000150  0.000201 -0.000148
    22 H     0.000156  0.000164 -0.000098
    23 H    -0.000992 -0.000504  0.000988
    24 I     0.008330 -0.004326 -0.003615
    25 I    -0.009723  0.005314  0.003744
 ----------------------------------------
 Mulliken charges used for AMS results%charges...

 dE(predicted):    -0.59483E-03, dE(actual):    -0.34188E-03, Trust radius:    1.000000, all in a.u.
 
----------------------------------------------------------------------
Geometry Convergence after Step  12       (Hartree/Angstrom,Angstrom)
----------------------------------------------------------------------
current energy                               -5.06622413 Hartree
energy change                      -0.00034188     0.00025000    F
constrained gradient max            0.00972746     0.00100000    F
constrained gradient rms            0.00225137     0.00066667    F
gradient max                        0.00972746
gradient rms                        0.00225137
cart. step max                      0.19667071     0.01000000    F
cart. step rms                      0.04500254     0.00666667    F
 
 
--------
Geometry
--------
Formula: C10H12I2O
Atoms
  Index Symbol   x (angstrom)   y (angstrom)   z (angstrom)
      1      H     0.65077136    -1.38312445     0.42007229
      2      C    -0.93147066     0.03156174     1.03570148
      3      C     0.00665149    -0.61249486    -0.01242984
      4      C     0.86661416     0.38518967    -0.75851969
      5      O     2.05603990     0.27235465    -0.96362758
      6      H    -1.41887455     0.88521340     0.54668729
      7      H    -0.60842281    -1.09590334    -0.78793378
      8      H     0.38669524    -0.20247474     2.77630272
      9      C    -0.14506467     0.58732220     2.23761534
     10      H     0.59951794     1.32288271     1.91486821
     11      H    -0.81937330     1.07982253     2.94425706
     12      C    -4.14760675    -2.65939422     2.18079048
     13      C    -4.41987284    -1.48383415     1.48278840
     14      C    -3.37867524    -0.62659370     1.12204077
     15      C    -2.04851149    -0.91982930     1.44935339
     16      C    -1.79128755    -2.10598590     2.15344699
     17      C    -2.82737452    -2.96640518     2.51430132
     18      H    -5.44372770    -1.23044684     1.21727528
     19      H    -3.60724026     0.28778943     0.57785296
     20      H    -0.77264600    -2.36897841     2.42621590
     21      H    -2.60244552    -3.88040152     3.05934773
     22      H    -4.95515671    -3.33022087     2.46364906
     23      H     0.31214304     1.27384622    -1.15011886
     24      I     4.90189409    -1.27510237    -1.78901924
     25      I     7.15028376    -2.50053361    -2.53573167
 
Total System Charge             0.00000
 
 *** GOStep13 ***

 Energy gradients wrt nuclear displacements
 ==========================================

     Atom      Cartesian (a.u./angstrom)
                 X         Y         Z
 ----------------------------------------
     1 H     0.000003  0.000091 -0.000375
     2 C     0.001552 -0.000650 -0.002397
     3 C    -0.002884 -0.000302  0.005603
     4 C     0.003561  0.003196 -0.004525
     5 O    -0.000539 -0.001895  0.001410
     6 H    -0.000018  0.000263  0.000432
     7 H     0.000442 -0.000285 -0.000940
     8 H    -0.000134  0.000121 -0.000030
     9 C    -0.000073 -0.000422  0.000435
    10 H     0.000179 -0.000037 -0.000210
    11 H     0.000102  0.000158 -0.000082
    12 C    -0.000228  0.000027 -0.000073
    13 C    -0.000234 -0.000051  0.000112
    14 C     0.000263  0.000161 -0.000348
    15 C    -0.001065 -0.000161  0.000086
    16 C     0.000090 -0.000396  0.000506
    17 C     0.000347 -0.000054 -0.000084
    18 H     0.000108 -0.000086  0.000048
    19 H     0.000076 -0.000147  0.000102
    20 H    -0.000113  0.000249 -0.000172
    21 H    -0.000140  0.000119 -0.000037
    22 H     0.000073  0.000107 -0.000026
    23 H    -0.000677 -0.000603  0.000687
    24 I     0.007868 -0.004085 -0.002997
    25 I    -0.008558  0.004683  0.002873
 ----------------------------------------
 Mulliken charges used for AMS results%charges...

 dE(predicted):    -0.55507E-03, dE(actual):    -0.23882E-03, Trust radius:    1.000000, all in a.u.
 
----------------------------------------------------------------------
Geometry Convergence after Step  13       (Hartree/Angstrom,Angstrom)
----------------------------------------------------------------------
current energy                               -5.06646295 Hartree
energy change                      -0.00023882     0.00025000    T
constrained gradient max            0.00856112     0.00100000    F
constrained gradient rms            0.00198085     0.00066667    F
gradient max                        0.00856112
gradient rms                        0.00198085
cart. step max                      0.20556573     0.01000000    F
cart. step rms                      0.04540096     0.00666667    F
 
 
--------
Geometry
--------
Formula: C10H12I2O
Atoms
  Index Symbol   x (angstrom)   y (angstrom)   z (angstrom)
      1      H     0.59791000    -1.39089979     0.32160763
      2      C    -0.93871657     0.03494431     1.01914538
      3      C    -0.03951449    -0.59531295    -0.07378549
      4      C     0.82177819     0.41060985    -0.80235790
      5      O     2.01682667     0.31344066    -0.98456141
      6      H    -1.43600539     0.90082713     0.56295173
      7      H    -0.68705367    -1.03887670    -0.84615487
      8      H     0.43897596    -0.24281415     2.70645945
      9      C    -0.11151124     0.55993021     2.20704857
     10      H     0.62099910     1.30510305     1.87931225
     11      H    -0.76209927     1.03217721     2.94891969
     12      C    -4.13539164    -2.66026763     2.20809499
     13      C    -4.42069462    -1.47136664     1.53836907
     14      C    -3.38529095    -0.61385509     1.16230590
     15      C    -2.04800596    -0.91939626     1.44684453
     16      C    -1.77758408    -2.11880305     2.12264547
     17      C    -2.80798259    -2.97999246     2.49804280
     18      H    -5.45025942    -1.20802128     1.30632188
     19      H    -3.62427532     0.31166323     0.64167202
     20      H    -0.75324387    -2.39209090     2.36235734
     21      H    -2.57263216    -3.90471683     3.02031937
     22      H    -4.93832293    -3.33220061     2.50162789
     23      H     0.26629075     1.29447555    -1.20335120
     24      I     4.93143647    -1.27997846    -1.68848315
     25      I     7.20722744    -2.53031931    -2.33016594
 
Total System Charge             0.00000
 
 *** GOStep14 ***

 Energy gradients wrt nuclear displacements
 ==========================================

     Atom      Cartesian (a.u./angstrom)
                 X         Y         Z
 ----------------------------------------
     1 H    -0.000022  0.000047 -0.000286
     2 C     0.001422 -0.000107 -0.001880
     3 C    -0.001669 -0.000148  0.004076
     4 C     0.001504  0.002243 -0.002810
     5 O    -0.000257 -0.001381  0.001348
     6 H    -0.000075  0.000084  0.000298
     7 H     0.000124 -0.000017 -0.000899
     8 H    -0.000068  0.000080 -0.000011
     9 C    -0.000068 -0.000293  0.000234
    10 H     0.000155  0.000014 -0.000119
    11 H     0.000082  0.000122 -0.000042
    12 C    -0.000102  0.000131  0.000060
    13 C    -0.000069  0.000059  0.000246
    14 C     0.000302 -0.000112 -0.000524
    15 C    -0.000907 -0.000473  0.000242
    16 C    -0.000006 -0.000141  0.000310
    17 C     0.000224  0.000015 -0.000154
    18 H     0.000011 -0.000059 -0.000033
    19 H     0.000010  0.000025  0.000112
    20 H    -0.000009  0.000139 -0.000076
    21 H    -0.000090  0.000000 -0.000001
    22 H     0.000011 -0.000020 -0.000077
    23 H    -0.000295 -0.000553  0.000231
    24 I     0.005744 -0.002947 -0.001969
    25 I    -0.005954  0.003291  0.001723
 ----------------------------------------
 Mulliken charges used for AMS results%charges...

 dE(predicted):    -0.25463E-03, dE(actual):    -0.19667E-03, Trust radius:    1.000000, all in a.u.
 
----------------------------------------------------------------------
Geometry Convergence after Step  14       (Hartree/Angstrom,Angstrom)
----------------------------------------------------------------------
current energy                               -5.06665961 Hartree
energy change                      -0.00019667     0.00025000    T
constrained gradient max            0.00595851     0.00100000    F
constrained gradient rms            0.00137729     0.00066667    F
gradient max                        0.00595851
gradient rms                        0.00137729
cart. step max                      0.20962081     0.01000000    F
cart. step rms                      0.04491081     0.00666667    F
 
 
--------
Geometry
--------
Formula: C10H12I2O
Atoms
  Index Symbol   x (angstrom)   y (angstrom)   z (angstrom)
      1      H     0.54884808    -1.39267047     0.22868644
      2      C    -0.94523079     0.03869620     1.00157525
      3      C    -0.08243071    -0.57625718    -0.13254629
      4      C     0.77942913     0.43718942    -0.84489979
      5      O     1.97856628     0.35328164    -1.00928854
      6      H    -1.45153187     0.91501965     0.57650440
      7      H    -0.75942803    -0.98473863    -0.89810956
      8      H     0.48698174    -0.27764328     2.63583261
      9      C    -0.08141663     0.53569922     2.17497043
     10      H     0.63796400     1.29200533     1.84435918
     11      H    -0.71000022     0.98566604     2.94900990
     12      C    -4.11992403    -2.66313170     2.23371700
     13      C    -4.41814589    -1.46050438     1.59471689
     14      C    -3.38949505    -0.60155981     1.20401794
     15      C    -2.04586646    -0.91928382     1.44246881
     16      C    -1.76250154    -2.13245188     2.08743983
     17      C    -2.78635375    -2.99508581     2.47761490
     18      H    -5.45267630    -1.18696732     1.39905557
     19      H    -3.63868521     0.33437511     0.70714217
     20      H    -0.73322229    -2.41641002     2.29125895
     21      H    -2.54060335    -3.93024408     2.97611889
     22      H    -4.91768813    -3.33564538     2.53997001
     23      H     0.22411974     1.31937658    -1.25016433
     24      I     4.94673791    -1.28735029    -1.58371952
     25      I     7.24541377    -2.56710607    -2.12054513
 
Total System Charge             0.00000
 
 *** GOStep15 ***

 Energy gradients wrt nuclear displacements
 ==========================================

     Atom      Cartesian (a.u./angstrom)
                 X         Y         Z
 ----------------------------------------
     1 H    -0.000037 -0.000003 -0.000126
     2 C     0.000971  0.000214 -0.000966
     3 C    -0.000318  0.000237  0.001744
     4 C    -0.000296  0.000704 -0.001129
     5 O     0.000204 -0.000760  0.001154
     6 H    -0.000135 -0.000065  0.000154
     7 H    -0.000150  0.000197 -0.000501
     8 H     0.000002  0.000028  0.000010
     9 C    -0.000053 -0.000143 -0.000022
    10 H     0.000085  0.000025 -0.000013
    11 H     0.000026  0.000066 -0.000014
    12 C     0.000034  0.000068 -0.000063
    13 C     0.000043  0.000051  0.000118
    14 C     0.000170 -0.000116 -0.000234
    15 C    -0.000486 -0.000540  0.000280
    16 C    -0.000055  0.000177  0.000253
    17 C     0.000031 -0.000012 -0.000225
    18 H    -0.000066  0.000011 -0.000010
    19 H    -0.000033  0.000054 -0.000040
    20 H     0.000052 -0.000022 -0.000064
    21 H    -0.000037 -0.000041  0.000084
    22 H    -0.000046 -0.000034  0.000027
    23 H     0.000088 -0.000340 -0.000142
    24 I     0.002495 -0.001143 -0.000880
    25 I    -0.002487  0.001387  0.000605
 ----------------------------------------
 Mulliken charges used for AMS results%charges...

 dE(predicted):    -0.11511E-03, dE(actual):    -0.12099E-03, Trust radius:    1.000000, all in a.u.
 
----------------------------------------------------------------------
Geometry Convergence after Step  15       (Hartree/Angstrom,Angstrom)
----------------------------------------------------------------------
current energy                               -5.06678060 Hartree
energy change                      -0.00012099     0.00025000    T
constrained gradient max            0.00249217     0.00100000    F
constrained gradient rms            0.00060202     0.00066667    T
gradient max                        0.00249217
gradient rms                        0.00060202
cart. step max                      0.18833234     0.01000000    F
cart. step rms                      0.03903306     0.00666667    F
 
 
--------
Geometry
--------
Formula: C10H12I2O
Atoms
  Index Symbol   x (angstrom)   y (angstrom)   z (angstrom)
      1      H     0.51129229    -1.38635828     0.15552530
      2      C    -0.95056864     0.04476558     0.98720402
      3      C    -0.11699077    -0.55641011    -0.17904372
      4      C     0.74268790     0.46311245    -0.88222926
      5      O     1.94367499     0.38752053    -1.03843524
      6      H    -1.46391852     0.92885823     0.58752070
      7      H    -0.81642445    -0.94107637    -0.93583605
      8      H     0.52409864    -0.30083227     2.57708645
      9      C    -0.05832744     0.51999093     2.14801219
     10      H     0.64982910     1.28590644     1.81588028
     11      H    -0.66895222     0.95069112     2.94700895
     12      C    -4.10144928    -2.66932370     2.25261481
     13      C    -4.41206972    -1.45452854     1.64310839
     14      C    -3.39109570    -0.59146425     1.24162917
     15      C    -2.04257592    -0.91772775     1.43810971
     16      C    -1.74681844    -2.14350917     2.05286194
     17      C    -2.76312088    -3.00947855     2.45537092
     18      H    -5.45037322    -1.17455597     1.47907197
     19      H    -3.65008188     0.35455575     0.76945617
     20      H    -0.71370492    -2.43431901     2.22527081
     21      H    -2.50726175    -3.95476555     2.92906028
     22      H    -4.89320483    -3.34545000     2.56641449
     23      H     0.18600374     1.34474438    -1.28737711
     24      I     4.94551756    -1.30227281    -1.49088638
     25      I     7.25669479    -2.61381399    -1.93221279
 
Total System Charge             0.00000
 
 *** GOStep16 ***

 Energy gradients wrt nuclear displacements
 ==========================================

     Atom      Cartesian (a.u./angstrom)
                 X         Y         Z
 ----------------------------------------
     1 H    -0.000087 -0.000068  0.000014
     2 C     0.000393  0.000395  0.000046
     3 C     0.000604  0.000367 -0.000372
     4 C    -0.000917 -0.000149 -0.000143
     5 O     0.000246 -0.000535  0.001096
     6 H    -0.000121 -0.000106  0.000038
     7 H    -0.000246  0.000272 -0.000000
     8 H     0.000041  0.000004  0.000010
     9 C    -0.000041 -0.000028 -0.000157
    10 H     0.000003  0.000004  0.000053
    11 H    -0.000019 -0.000003  0.000014
    12 C     0.000067  0.000097  0.000159
    13 C     0.000067  0.000035 -0.000032
    14 C    -0.000008 -0.000153 -0.000136
    15 C    -0.000047 -0.000355  0.000170
    16 C    -0.000033  0.000187 -0.000179
    17 C    -0.000114  0.000115  0.000133
    18 H    -0.000066  0.000002 -0.000052
    19 H    -0.000047  0.000093  0.000029
    20 H     0.000053 -0.000029  0.000075
    21 H     0.000010 -0.000097 -0.000054
    22 H    -0.000039 -0.000083 -0.000056
    23 H     0.000163 -0.000147 -0.000395
    24 I    -0.000173  0.000375 -0.000171
    25 I     0.000310 -0.000193 -0.000093
 ----------------------------------------
 Mulliken charges used for AMS results%charges...

 dE(predicted):    -0.37379E-04, dE(actual):    -0.40716E-04, Trust radius:    1.000000, all in a.u.
 
----------------------------------------------------------------------
Geometry Convergence after Step  16       (Hartree/Angstrom,Angstrom)
----------------------------------------------------------------------
current energy                               -5.06682132 Hartree
energy change                      -0.00004072     0.00025000    T
constrained gradient max            0.00109246     0.00100000    F
constrained gradient rms            0.00024612     0.00066667    T
gradient max                        0.00109246
gradient rms                        0.00024612
cart. step max                      0.12849895     0.01000000    F
cart. step rms                      0.02560875     0.00666667    F
 
 
--------
Geometry
--------
Formula: C10H12I2O
Atoms
  Index Symbol   x (angstrom)   y (angstrom)   z (angstrom)
      1      H     0.49411856    -1.37721928     0.11398342
      2      C    -0.95301802     0.04912046     0.97888494
      3      C    -0.13607763    -0.54278352    -0.20540744
      4      C     0.71766158     0.48191439    -0.90770969
      5      O     1.91863852     0.41126075    -1.06635366
      6      H    -1.47060602     0.93733020     0.59405302
      7      H    -0.84737573    -0.91843117    -0.95514631
      8      H     0.54564581    -0.31184483     2.54263505
      9      C    -0.04444200     0.51274253     2.13161219
     10      H     0.65723686     1.28385415     1.79801989
     11      H    -0.64421632     0.93283160     2.94435658
     12      C    -4.08763826    -2.67565218     2.26074185
     13      C    -4.40597202    -1.45161356     1.67410872
     14      C    -3.39018378    -0.58514914     1.26686632
     15      C    -2.03916516    -0.91667471     1.43561159
     16      C    -1.73568210    -2.15106365     2.02914601
     17      C    -2.74677479    -3.02095657     2.43621770
     18      H    -5.44628161    -1.16682203     1.53285418
     19      H    -3.65510312     0.36712471     0.81090260
     20      H    -0.70047082    -2.44643253     2.17964560
     21      H    -2.48476230    -3.97209008     2.89451807
     22      H    -4.87540989    -3.35348283     2.58073016
     23      H     0.15677277     1.36290454    -1.30881752
     24      I     4.93585496    -1.31435838    -1.43255342
     25      I     7.25011090    -2.65024977    -1.80371384
 
Total System Charge             0.00000
 
 *** GOStep17 ***

 Energy gradients wrt nuclear displacements
 ==========================================

     Atom      Cartesian (a.u./angstrom)
                 X         Y         Z
 ----------------------------------------
     1 H    -0.000126 -0.000106  0.000077
     2 C    -0.000079  0.000372  0.000711
     3 C     0.000913  0.000244 -0.001384
     4 C    -0.000809 -0.000130  0.000055
     5 O     0.000104 -0.000607  0.001161
     6 H    -0.000056 -0.000082 -0.000042
     7 H    -0.000222  0.000249  0.000300
     8 H     0.000056  0.000015 -0.000005
     9 C    -0.000009  0.000052 -0.000209
    10 H    -0.000045 -0.000010  0.000068
    11 H    -0.000036 -0.000044  0.000016
    12 C     0.000040 -0.000131 -0.000198
    13 C     0.000052  0.000064 -0.000021
    14 C    -0.000094 -0.000056  0.000043
    15 C     0.000172 -0.000121  0.000061
    16 C    -0.000022  0.000292  0.000122
    17 C    -0.000098 -0.000089 -0.000152
    18 H    -0.000030  0.000039  0.000023
    19 H    -0.000025  0.000009 -0.000074
    20 H     0.000016 -0.000084 -0.000019
    21 H     0.000022  0.000026  0.000103
    22 H    -0.000018  0.000027  0.000105
    23 H     0.000052 -0.000057 -0.000488
    24 I    -0.001343  0.001078  0.000043
    25 I     0.001588 -0.000950 -0.000295
 ----------------------------------------
 Mulliken charges used for AMS results%charges...

 dE(predicted):    -0.15943E-04, dE(actual):    -0.17412E-04, Trust radius:    1.000000, all in a.u.
 
----------------------------------------------------------------------
Geometry Convergence after Step  17       (Hartree/Angstrom,Angstrom)
----------------------------------------------------------------------
current energy                               -5.06683873 Hartree
energy change                      -0.00001741     0.00025000    T
constrained gradient max            0.00158423     0.00100000    F
constrained gradient rms            0.00041947     0.00066667    T
gradient max                        0.00158423
gradient rms                        0.00041947
cart. step max                      0.20918887     0.01000000    F
cart. step rms                      0.04050224     0.00666667    F
 
 
--------
Geometry
--------
Formula: C10H12I2O
Atoms
  Index Symbol   x (angstrom)   y (angstrom)   z (angstrom)
      1      H     0.47495998    -1.36059310     0.05289978
      2      C    -0.95481331     0.05393557     0.96534616
      3      C    -0.16199956    -0.52313392    -0.24425145
      4      C     0.67778606     0.51110839    -0.94968982
      5      O     1.87719459     0.44744596    -1.12219561
      6      H    -1.47787607     0.94827057     0.60264521
      7      H    -0.88913924    -0.89056273    -0.98220118
      8      H     0.57626315    -0.33021169     2.49158881
      9      C    -0.02271655     0.50026743     2.10606830
     10      H     0.67108362     1.27743070     1.77029126
     11      H    -0.60604760     0.90646527     2.93761391
     12      C    -4.06631138    -2.68267987     2.27627201
     13      C    -4.39456017    -1.44551547     1.72365298
     14      C    -3.38610869    -0.57507003     1.30674731
     15      C    -2.03263789    -0.91633662     1.43027674
     16      C    -1.71914184    -2.16454582     1.98900207
     17      C    -2.72285670    -3.03767938     2.40702357
     18      H    -5.43687422    -1.15332961     1.61691063
     19      H    -3.65860684     0.38770734     0.87827563
     20      H    -0.68171831    -2.46751044     2.10477423
     21      H    -2.45295011    -3.99978578     2.83682087
     22      H    -4.84841543    -3.36396625     2.60258905
     23      H     0.10747391     1.39205167    -1.33783337
     24      I     4.91266410    -1.32982531    -1.34291613
     25      I     7.22820891    -2.69967777    -1.59452497
 
Total System Charge             0.00000
 
 *** GOStep18 ***

 Energy gradients wrt nuclear displacements
 ==========================================

     Atom      Cartesian (a.u./angstrom)
                 X         Y         Z
 ----------------------------------------
     1 H    -0.000154 -0.000120  0.000143
     2 C    -0.000766  0.000293  0.001734
     3 C     0.001051 -0.000104 -0.002478
     4 C    -0.000390  0.000257 -0.000028
     5 O    -0.000139 -0.000786  0.001250
     6 H     0.000053 -0.000014 -0.000145
     7 H    -0.000120  0.000153  0.000656
     8 H     0.000071  0.000028 -0.000029
     9 C     0.000022  0.000144 -0.000219
    10 H    -0.000109 -0.000033  0.000070
    11 H    -0.000051 -0.000100  0.000015
    12 C    -0.000001 -0.000058  0.000085
    13 C    -0.000010 -0.000020 -0.000191
    14 C    -0.000162  0.000041  0.000181
    15 C     0.000411  0.000244 -0.000243
    16 C     0.000023 -0.000002 -0.000133
    17 C    -0.000050 -0.000018  0.000123
    18 H     0.000036  0.000029  0.000023
    19 H     0.000017 -0.000035 -0.000040
    20 H    -0.000047 -0.000033  0.000050
    21 H     0.000031  0.000035 -0.000042
    22 H     0.000014  0.000025 -0.000030
    23 H    -0.000156  0.000044 -0.000519
    24 I    -0.002496  0.001808  0.000128
    25 I     0.002924 -0.001777 -0.000361
 ----------------------------------------
 Mulliken charges used for AMS results%charges...
 Rebuilding optimization coordinates
Bad geometry: could not add a dihedral for atom   25

 dE(predicted):    -0.39634E-04, dE(actual):    -0.29680E-04, Trust radius:    1.000000, all in a.u.
 
----------------------------------------------------------------------
Geometry Convergence after Step  18       (Hartree/Angstrom,Angstrom)
----------------------------------------------------------------------
current energy                               -5.06686841 Hartree
energy change                      -0.00002968     0.00025000    T
constrained gradient max            0.00292106     0.00100000    F
constrained gradient rms            0.00069384     0.00066667    F
gradient max                        0.00292106
gradient rms                        0.00069384
cart. step max                      0.20785967     0.01000000    F
cart. step rms                      0.03916912     0.00666667    F
 
 
--------
Geometry
--------
Formula: C10H12I2O
Atoms
  Index Symbol   x (angstrom)   y (angstrom)   z (angstrom)
      1      H     0.46500998    -1.34391614    -0.00029502
      2      C    -0.95373541     0.05607278     0.95238092
      3      C    -0.18230880    -0.50773331    -0.27792943
      4      C     0.63886034     0.53660439    -0.99165473
      5      O     1.83411900     0.47723660    -1.19165915
      6      H    -1.48054305     0.95582804     0.60885704
      7      H    -0.92190433    -0.87376953    -1.00378592
      8      H     0.60269406    -0.34888649     2.44707789
      9      C    -0.00101038     0.48738440     2.08196834
     10      H     0.68821771     1.26732491     1.74325437
     11      H    -0.56906358     0.88455167     2.92830926
     12      C    -4.04700208    -2.68835115     2.28811524
     13      C    -4.38155512    -1.43738311     1.77162768
     14      C    -3.37886892    -0.56463448     1.34565822
     15      C    -2.02494776    -0.91677295     1.42534587
     16      C    -1.70493815    -2.17818470     1.95006931
     17      C    -2.70289125    -3.05410518     2.37572088
     18      H    -5.42429156    -1.13637838     1.69966675
     19      H    -3.65618013     0.40829771     0.94420555
     20      H    -0.66684097    -2.48973691     2.03150878
     21      H    -2.42789254    -4.02593559     2.77950460
     22      H    -4.82461289    -3.37081753     2.62246069
     23      H     0.05740888     1.41968706    -1.35800788
     24      I     4.88047207    -1.33917490    -1.26054795
     25      I     7.19466529    -2.73294813    -1.38666530
 
Total System Charge             0.00000
 
 *** GOStep19 ***

 Energy gradients wrt nuclear displacements
 ==========================================

     Atom      Cartesian (a.u./angstrom)
                 X         Y         Z
 ----------------------------------------
     1 H    -0.000118 -0.000094  0.000178
     2 C    -0.001329  0.000094  0.002401
     3 C     0.000867 -0.000564 -0.003083
     4 C     0.000130  0.000944 -0.000284
     5 O    -0.000424 -0.000982  0.001214
     6 H     0.000159  0.000060 -0.000233
     7 H     0.000022  0.000013  0.000885
     8 H     0.000068  0.000039 -0.000040
     9 C     0.000046  0.000176 -0.000130
    10 H    -0.000162 -0.000046  0.000050
    11 H    -0.000061 -0.000136  0.000015
    12 C    -0.000059 -0.000247 -0.000313
    13 C    -0.000051  0.000022 -0.000018
    14 C    -0.000155  0.000125  0.000237
    15 C     0.000554  0.000643 -0.000394
    16 C     0.000057 -0.000084  0.000159
    17 C     0.000005 -0.000154 -0.000113
    18 H     0.000094  0.000027  0.000049
    19 H     0.000057 -0.000108 -0.000078
    20 H    -0.000101 -0.000027 -0.000038
    21 H     0.000035  0.000153  0.000081
    22 H     0.000044  0.000138  0.000099
    23 H    -0.000330  0.000102 -0.000469
    24 I    -0.002902  0.002101  0.000069
    25 I     0.003553 -0.002197 -0.000245
 ----------------------------------------
 Mulliken charges used for AMS results%charges...

 dE(predicted):    -0.61580E-04, dE(actual):    -0.38658E-04, Trust radius:    1.000000, all in a.u.
 
----------------------------------------------------------------------
Geometry Convergence after Step  19       (Hartree/Angstrom,Angstrom)
----------------------------------------------------------------------
current energy                               -5.06690707 Hartree
energy change                      -0.00003866     0.00025000    T
constrained gradient max            0.00355003     0.00100000    F
constrained gradient rms            0.00085444     0.00066667    F
gradient max                        0.00355003
gradient rms                        0.00085444
cart. step max                      0.18471058     0.01000000    F
cart. step rms                      0.03432772     0.00666667    F
 
 
--------
Geometry
--------
Formula: C10H12I2O
Atoms
  Index Symbol   x (angstrom)   y (angstrom)   z (angstrom)
      1      H     0.46069760    -1.33226437    -0.04419133
      2      C    -0.95049620     0.05445836     0.94024295
      3      C    -0.19689492    -0.49887882    -0.30559836
      4      C     0.60594711     0.55418916    -1.02872970
      5      O     1.79499565     0.49558090    -1.26257638
      6      H    -1.47868293     0.95927204     0.61230989
      7      H    -0.94557063    -0.86642323    -1.02127857
      8      H     0.62374595    -0.36982706     2.41045003
      9      C     0.01951405     0.47247330     2.06035136
     10      H     0.70779989     1.25188647     1.71837324
     11      H    -0.53502226     0.86546951     2.91752024
     12      C    -4.03322083    -2.68889867     2.30111697
     13      C    -4.36969769    -1.42654374     1.81456760
     14      C    -3.37032377    -0.55426359     1.37986395
     15      C    -2.01792238    -0.91853471     1.42021009
     16      C    -1.69589276    -2.19171976     1.91473863
     17      C    -2.69049165    -3.06698212     2.34929110
     18      H    -5.41130112    -1.11612290     1.77305166
     19      H    -3.64902152     0.42770278     1.00216380
[...]
    12     C       0.000003   0.000015  -0.000017
    13     C       0.000022  -0.000066   0.000010
    14     C       0.000160   0.000370  -0.000080
    15     C       0.000017  -0.000385   0.000330
    16     C      -0.000275   0.000295  -0.000013
    17     C       0.000014  -0.000010  -0.000009
    18     H      -0.000431   0.000201  -0.000044
    19     H       0.000388  -0.002384   0.000905
    20     H       0.002664  -0.000878   0.000369
    21     H      -0.000105   0.000267  -0.000123
    22     H      -0.000102  -0.000017   0.000046
    23     H       0.010525  -0.019841   0.006749
    24     I       0.000002  -0.000001  -0.000001
    25     I       0.000001   0.000000   0.000000
 
 Mode:    66      Frequency (cm-1):     2991.1067     Intensity (km/mol):       14.3328
 Index  Atom      ---- Displacements (x/y/z) ----
     1     H      -0.060107   0.072716  -0.024841
     2     C      -0.042786   0.065617  -0.023335
     3     C       0.002454  -0.006614   0.000591
     4     C      -0.000217   0.002315  -0.000835
     5     O      -0.000262  -0.000149   0.000096
     6     H       0.523887  -0.786234   0.274652
     7     H       0.022587   0.009410   0.023206
     8     H      -0.046756   0.062085  -0.023736
     9     C       0.002858  -0.009784   0.000632
    10     H       0.038291   0.043217  -0.022852
    11     H      -0.026558   0.011252   0.037121
    12     C       0.000059  -0.000104   0.000037
    13     C       0.000133   0.000129  -0.000082
    14     C       0.000468  -0.002969   0.001193
    15     C      -0.001149   0.000914  -0.000308
    16     C      -0.000501  -0.000224   0.000121
    17     C      -0.000198   0.000055  -0.000014
    18     H       0.003053  -0.000456   0.000064
    19     H      -0.006677   0.028570  -0.011211
    20     H       0.007222  -0.002165   0.000639
    21     H       0.000457  -0.000203   0.000060
    22     H       0.000336  -0.000124   0.000102
    23     H       0.011181  -0.023127   0.007275
    24     I       0.000002  -0.000000  -0.000001
    25     I      -0.000001   0.000000   0.000000
 
 Mode:    67      Frequency (cm-1):     3000.1974     Intensity (km/mol):       16.4915
 Index  Atom      ---- Displacements (x/y/z) ----
     1     H      -0.006005   0.005751  -0.001047
     2     C      -0.001111   0.000794  -0.001208
     3     C      -0.001999  -0.001871  -0.002505
     4     C       0.000078   0.000453  -0.000103
     5     O      -0.000163  -0.000083  -0.000056
     6     H       0.009418  -0.012613   0.005620
     7     H       0.030733   0.016354   0.031157
     8     H      -0.314252   0.422150  -0.162975
     9     C       0.033624   0.019314   0.031258
    10     H      -0.370228  -0.474469   0.212505
    11     H       0.290079  -0.171421  -0.412755
    12     C       0.000032   0.000011   0.000008
    13     C       0.000102  -0.000037  -0.000013
    14     C       0.000133   0.000092  -0.000016
    15     C      -0.000363  -0.000528   0.000278
    16     C      -0.001169   0.000318  -0.000173
    17     C       0.000017   0.000049  -0.000026
    18     H      -0.000824   0.000339  -0.000150
    19     H      -0.000310   0.000409  -0.000038
    20     H       0.012935  -0.003663   0.000603
    21     H      -0.000051   0.000365  -0.000216
    22     H      -0.000053   0.000042   0.000005
    23     H       0.001585  -0.003258   0.000821
    24     I       0.000002  -0.000001  -0.000000
    25     I      -0.000000   0.000000  -0.000000
 
 Mode:    68      Frequency (cm-1):     3072.3369     Intensity (km/mol):       23.6912
 Index  Atom      ---- Displacements (x/y/z) ----
     1     H       0.098053  -0.116331   0.036632
     2     C       0.002156  -0.004560   0.002138
     3     C      -0.010434   0.008446  -0.005670
     4     C      -0.000598  -0.000092  -0.000168
     5     O       0.000207   0.000022   0.000062
     6     H      -0.031061   0.046625  -0.018748
     7     H       0.029628   0.018610   0.028995
     8     H      -0.314930   0.384139  -0.146139
     9     C      -0.026811  -0.066569   0.055479
    10     H       0.442956   0.552082  -0.235915
    11     H       0.194393  -0.140035  -0.280795
    12     C      -0.000067  -0.000008   0.000021
    13     C       0.000066  -0.000114   0.000045
    14     C      -0.000100   0.000942  -0.000453
    15     C       0.000174  -0.000008   0.000092
    16     C      -0.001575   0.000462  -0.000246
    17     C       0.000152  -0.000232   0.000055
    18     H      -0.001716   0.000435  -0.000013
    19     H       0.003256  -0.010488   0.004184
    20     H       0.017318  -0.003993   0.001204
    21     H      -0.001260   0.003495  -0.001374
    22     H       0.000312   0.000477  -0.000169
    23     H       0.000608  -0.000163   0.000491
    24     I       0.000003  -0.000002  -0.000001
    25     I      -0.000002   0.000001  -0.000000
 
 Mode:    69      Frequency (cm-1):     3078.2946     Intensity (km/mol):        5.7265
 Index  Atom      ---- Displacements (x/y/z) ----
     1     H      -0.564501   0.666396  -0.203866
     2     C       0.002837  -0.004086   0.002520
     3     C       0.061255  -0.047930   0.030966
     4     C       0.003263  -0.001654   0.000359
     5     O      -0.000761   0.000275   0.000121
     6     H      -0.035249   0.051460  -0.014413
     7     H      -0.176624  -0.105832  -0.172474
     8     H       0.057338  -0.083123   0.035878
     9     C      -0.023640   0.006363   0.018645
    10     H       0.073668   0.101529  -0.039585
    11     H       0.148566  -0.092970  -0.222786
    12     C      -0.000021  -0.000027  -0.000004
    13     C       0.000129  -0.000065   0.000045
    14     C      -0.000144   0.000779  -0.000383
    15     C      -0.000018  -0.000266  -0.000177
    16     C      -0.003293   0.000854  -0.000127
    17     C       0.000242  -0.000346   0.000168
    18     H      -0.002183   0.000542  -0.000090
    19     H       0.002605  -0.008620   0.003484
    20     H       0.037638  -0.008920   0.002312
    21     H      -0.002089   0.005890  -0.002226
    22     H       0.000148   0.000329  -0.000176
    23     H      -0.012057   0.021529  -0.007063
    24     I       0.000008  -0.000005  -0.000000
    25     I       0.000002   0.000002  -0.000001
 
 Mode:    70      Frequency (cm-1):     3083.2538     Intensity (km/mol):       23.1316
 Index  Atom      ---- Displacements (x/y/z) ----
     1     H       0.171067  -0.202132   0.059410
     2     C      -0.005640   0.007713  -0.002296
     3     C      -0.018281   0.014273  -0.009488
     4     C      -0.001076   0.000848  -0.000305
     5     O       0.000230  -0.000111   0.000005
     6     H       0.059107  -0.084487   0.029718
     7     H       0.052731   0.031019   0.051756
     8     H       0.361862  -0.478297   0.204733
     9     C      -0.061930   0.054702   0.030017
    10     H       0.009788   0.045030  -0.007686
    11     H       0.368486  -0.221948  -0.554063
    12     C       0.000015   0.000009  -0.000010
    13     C      -0.000168   0.000103  -0.000033
    14     C       0.000431  -0.001420   0.000520
    15     C       0.000069   0.000119  -0.000163
    16     C       0.005047  -0.001114   0.000277
    17     C      -0.000399   0.000634  -0.000224
    18     H       0.003231  -0.000738   0.000165
    19     H      -0.004969   0.015885  -0.006106
    20     H      -0.057595   0.013604  -0.003054
    21     H       0.003516  -0.009838   0.003950
    22     H       0.000136  -0.000170   0.000043
    23     H       0.004991  -0.009651   0.003082
    24     I      -0.000002   0.000001   0.000000
    25     I      -0.000001  -0.000000   0.000001
 
 Mode:    71      Frequency (cm-1):     3115.6326     Intensity (km/mol):        7.4144
 Index  Atom      ---- Displacements (x/y/z) ----
     1     H       0.001570  -0.001443   0.000031
     2     C      -0.001056   0.001902  -0.000686
     3     C      -0.000152   0.000026   0.000037
     4     C      -0.000076   0.000118   0.000001
     5     O       0.000011  -0.000016  -0.000005
     6     H       0.013038  -0.024832   0.008953
     7     H       0.000119   0.000352   0.000219
     8     H       0.003523  -0.003694   0.001850
     9     C      -0.000077   0.000543  -0.000184
    10     H      -0.003364  -0.003988   0.001304
    11     H       0.000362  -0.000059  -0.000905
    12     C      -0.013568  -0.013415   0.006110
    13     C       0.038264  -0.010192   0.002447
    14     C      -0.022323   0.060724  -0.023849
    15     C       0.002277   0.001094  -0.000544
    16     C       0.008159  -0.002930   0.000861
    17     C      -0.005112   0.014529  -0.005735
    18     H      -0.466513   0.109643  -0.023876
    19     H       0.249492  -0.714454   0.281103
    20     H      -0.100750   0.025590  -0.006261
    21     H       0.060810  -0.174643   0.068944
    22     H       0.165551   0.164948  -0.075051
    23     H       0.000569  -0.001099   0.000267
    24     I      -0.000001   0.000001  -0.000000
    25     I       0.000000  -0.000000   0.000000
 
 Mode:    72      Frequency (cm-1):     3124.6144     Intensity (km/mol):        0.7891
 Index  Atom      ---- Displacements (x/y/z) ----
     1     H       0.020098  -0.023343   0.006851
     2     C      -0.000744   0.001156  -0.000435
     3     C      -0.002028   0.001628  -0.000889
     4     C      -0.000083   0.000177  -0.000068
     5     O      -0.000004  -0.000023   0.000011
     6     H       0.007851  -0.013274   0.004677
     7     H       0.004455   0.002833   0.004474
     8     H       0.019838  -0.025116   0.010482
     9     C      -0.001715   0.002714  -0.000231
    10     H      -0.005212  -0.005774   0.002706
    11     H       0.006236  -0.003407  -0.009773
    12     C       0.023093   0.024038  -0.010893
    13     C      -0.006255   0.000111   0.000239
    14     C      -0.010273   0.030054  -0.011846
    15     C       0.000823  -0.000550   0.000193
    16     C      -0.036261   0.009654  -0.002421
    17     C       0.017497  -0.050490   0.019937
    18     H       0.069458  -0.014848   0.002932
    19     H       0.119698  -0.345134   0.135856
    20     H       0.436462  -0.105122   0.024777
    21     H      -0.206723   0.597220  -0.235792
    22     H      -0.283007  -0.282045   0.128347
    23     H       0.000781  -0.001796   0.000618
    24     I       0.000000  -0.000000   0.000000
    25     I      -0.000000   0.000000   0.000000
 
 Mode:    73      Frequency (cm-1):     3134.2151     Intensity (km/mol):       11.3453
 Index  Atom      ---- Displacements (x/y/z) ----
     1     H       0.015106  -0.017767   0.005495
     2     C       0.000184  -0.000612   0.000220
     3     C      -0.001485   0.001390  -0.000757
     4     C      -0.000025  -0.000045  -0.000032
     5     O       0.000028   0.000010  -0.000000
     6     H      -0.003171   0.008389  -0.003150
     7     H       0.003321   0.001968   0.003459
     8     H       0.013549  -0.017714   0.007134
     9     C      -0.001283   0.001784  -0.000197
    10     H      -0.001109  -0.001302   0.001332
    11     H       0.003962  -0.002299  -0.006090
    12     C      -0.029136  -0.026214   0.012049
    13     C       0.049705  -0.009379   0.001599
    14     C       0.009537  -0.029257   0.011549
    15     C      -0.001696  -0.001165   0.000549
    16     C      -0.039172   0.010701  -0.002725
    17     C       0.008484  -0.018978   0.007410
    18     H      -0.567547   0.128628  -0.027053
    19     H      -0.112283   0.324209  -0.127614
    20     H       0.460607  -0.112150   0.026629
    21     H      -0.079092   0.223242  -0.088037
    22     H       0.324432   0.319517  -0.145571
    23     H       0.000003  -0.000247   0.000231
    24     I      -0.000000   0.000000   0.000000
    25     I      -0.000000  -0.000000   0.000000
 
 Mode:    74      Frequency (cm-1):     3142.5120     Intensity (km/mol):       29.0807
 Index  Atom      ---- Displacements (x/y/z) ----
     1     H      -0.019349   0.022534  -0.006792
     2     C       0.000556  -0.000539   0.000207
     3     C       0.001932  -0.001634   0.000870
     4     C       0.000071  -0.000106   0.000067
     5     O      -0.000018   0.000012  -0.000007
     6     H      -0.003757   0.003844  -0.001216
     7     H      -0.004099  -0.002574  -0.004198
     8     H      -0.018542   0.023805  -0.009725
     9     C       0.001666  -0.002386   0.000269
    10     H       0.003069   0.003424  -0.001979
    11     H      -0.005117   0.002838   0.008008
    12     C       0.016273   0.020258  -0.009034
    13     C       0.043349  -0.010082   0.002174
    14     C       0.003274  -0.015623   0.006255
    15     C      -0.001033   0.002100  -0.000820
    16     C       0.056640  -0.012684   0.002792
    17     C       0.008641  -0.033105   0.013192
    18     H      -0.486668   0.112388  -0.024089
    19     H      -0.054699   0.165440  -0.065264
    20     H      -0.643618   0.153201  -0.035736
    21     H      -0.123177   0.365373  -0.144425
    22     H      -0.207442  -0.211303   0.095965
    23     H      -0.000572   0.001431  -0.000579
    24     I       0.000000  -0.000000  -0.000000
    25     I       0.000000   0.000000  -0.000000
 
 Mode:    75      Frequency (cm-1):     3151.2455     Intensity (km/mol):       11.8075
 Index  Atom      ---- Displacements (x/y/z) ----
     1     H      -0.007653   0.008974  -0.002787
     2     C       0.000074   0.000186  -0.000080
     3     C       0.000709  -0.000723   0.000364
     4     C       0.000069   0.000058  -0.000007
     5     O      -0.000060  -0.000012   0.000013
     6     H       0.000703  -0.003428   0.001358
     7     H      -0.001351  -0.000911  -0.001565
     8     H      -0.006968   0.009209  -0.003687
     9     C       0.000671  -0.000816   0.000121
    10     H      -0.000187  -0.000260  -0.000377
    11     H      -0.001630   0.001008   0.002645
    12     C      -0.040377  -0.039602   0.018047
    13     C      -0.035998   0.010062  -0.002501
    14     C      -0.002487   0.010881  -0.004342
    15     C       0.000466   0.001162  -0.000493
    16     C       0.029491  -0.005477   0.000991
    17     C       0.015587  -0.041204   0.016209
    18     H       0.398234  -0.094124   0.020599
    19     H       0.037285  -0.112247   0.044263
    20     H      -0.324046   0.075610  -0.017347
    21     H      -0.159220   0.454996  -0.179562
    22     H       0.444305   0.440856  -0.200683
    23     H      -0.000039   0.000114  -0.000142
    24     I       0.000001  -0.000001  -0.000000
    25     I      -0.000001   0.000001  -0.000000

PES point character: Geometry corresponds to a local minimum on the PES.




 ============================
 Statistical Thermal Analysis  ***  ideal gas assumed  ***
 ============================
  
 Pressure:                  1.000000 atm.
 Temperature:             298.150000 K



 Moments of Inertia [amu*bohr^2] and principal axis
 ==================================================

        2613.8070      18870.5702      20854.2083
 ------------------------------------------------
          -0.9430          0.0537          0.3284
           0.1895          0.8978          0.3975
           0.2735         -0.4371          0.8568


 The rotational contribution to the molecular entropy includes
 a term, dependent on the symmetry number sigma. The results 
 reported below were computed using sigma = 1, determined from
 the point group symmetry of the input geometry (NOSYM). 
 If this is not the correct symmetry, try symmetrizing the molecule before
 running the calculation (note: linear molecules should be aligned along one
 of the Cartesian axes).
 Contributions from frequencies below 20 1/cm are not included in vibrational sums.
 Their contributions, if any, are reported separately.


     Temp                                                        Transl      Rotat     Vibrat     Total
     ----                                                        ------      -----     ------     -----

     298.15   Entropy (cal/mol-K):                               43.864     35.285     50.271    129.420
              Nuclear Internal Energy (kcal/mol):                 0.889      0.889    126.738    128.516
              Constant Volume Heat Capacity (cal/mol-K):          2.981      2.981     42.203     48.164
          (c) Constant Volume Heat Capacity (cal/mol-K):          2.981      2.981     38.628     44.590

 Contributions from frequencies below 20 1/cm
 Frequency (1/cm):                                    8.266    14.531
 Entropy (cal/mol-K):                                 8.389     7.269
 Nuclear Internal Energy (kcal/mol):                  0.593     0.593
 Constant Volume Heat Capacity (cal/mol-K):           1.987     1.986

       Summary of energy terms
                                                   hartree              eV         kcal/mol           kJ/mol
                                      --------------------     -----------       ----------      -----------
      Energy from Engine:               -5.067497127052013       -137.8936         -3179.90        -13304.71
      Nuclear Internal Energy:           0.204802734962170          5.5730           128.52           537.71
  (c) Nuclear Internal Energy:           0.202985085802952          5.5235           127.38           532.94
      Internal Energy U:                -4.862694392089843       -132.3206         -3051.39        -12767.00
      pV/n = RT:                         0.000944186013486          0.0257             0.59             2.48
      Enthalpy H:                       -4.861750206076357       -132.2950         -3050.79        -12764.52
      -T*S:                             -0.061491846126413         -1.6733           -38.59          -161.45
  (c) -T*S:                             -0.062699727923384         -1.7061           -39.34          -164.62
      Gibbs free energy:                -4.923242052202769       -133.9682         -3089.38        -12925.97
 
 
 
  (c) The properties marked with this symbol have been corrected using 'low vibrational frequency free rotor
      interpolation corrections'. For those terms all positive frequencies are used (also ones below 20 1/cm),
      but the contribution to the partition function of small vibrational frequencies is modified as described
      in the following paper:
      S. Grimme, 'Supramolecular Binding Thermodynamics by Dispersion-Corrected Density Functional Theory'
      (Chem. Eur. J. 2012, 18, 9955-9964)
      Configuration: Dampener Frequency          :   100.000 1/cm
                     Dampener Alpha              :     4.000
                     Averaging Moment of Inertia : 1.000E-44 kg m2

--------------
Atomic charges
--------------
  Index   Atom    Charge
      1      H   -0.1502
      2      C    0.1469
      3      C    0.4207
      4      C    0.6696
      5      O   -0.5018
      6      H   -0.1955
      7      H   -0.1862
      8      H   -0.2110
      9      C    0.6895
     10      H   -0.2328
     11      H   -0.2353
     12      C    0.2371
     13      C    0.2420
     14      C    0.2745
     15      C    0.0406
     16      C    0.3024
     17      C    0.2480
     18      H   -0.2485
     19      H   -0.2650
     20      H   -0.2601
     21      H   -0.2486
     22      H   -0.2453
     23      H   -0.2587
     24      I    0.0301
     25      I   -0.0626


Dipole moment vector    (Debye):    -3.96626848    0.62493128    1.16550318
              magnitude (Debye):     4.18093559


Final PES point is a local minimum. Geometry optimization successful!


AMS application finished. Exiting.
NORMAL TERMINATION
     Total cpu time:   68614.09
  Total system time:     395.46
 Total elapsed time:  138692.38
 WARNING: total elapsed time is much higher than the (CPU+system) time. 
 Make sure the machine is not oversubscribed and has enough memory, SCM_TMPDIR p
 oints to a fast file system, and the network is fast enough.
