

 Parallel Execution: Process Information
 ==============================================================================
 Rank   Node Name                              NodeID   MyNodeRank  NodeMaster
    0   node120                                   0          0          0
    1   node120                                   0          1         -1
    2   node120                                   0          2         -1
    3   node120                                   0          3         -1
 ==============================================================================


May use up to 122928MB of RAM as shared memory on node 0

 *******************************************************************************
 *                                                                             *
 *  --------------------------------                                           *
 *   Amsterdam Modeling Suite (AMS)              2021.102                      *
 *  --------------------------------                                           *
 *                                               r95042 2021-06-07             *
 *                                                                             *
 *                                                                             *
 *                              =================                              *
 *                              |               |                              *
 *                              |     A M S     |                              *
 *                              |               |                              *
 *                              =================                              *
 *                                                                             *
 *                                                                             *
 *   Online information and documentation:  https://www.scm.com/support/       *
 *   E-mail:  support@scm.com   info@scm.com                                   *
 *                                                                             *
 *   Scientific publications using AMS results must be properly referenced     *
 *   See the User Manuals (or the web site) for recommended citations          *
 *   The terms and conditions of the End User License Agreement apply to       *
 *   the use of AMS, https://www.scm.com/license-terms/                        *
 *                                                                             *
 **********************  x86_64_linux_intel / intelmpi  ************************
 
 Licensed to: VU/FEW (+ SARA) / ALGEMEEN / Amsterdam / THE NETHERLANDS
 SCM User ID: u7668
  
 AMS 2021.102  RunTime: Jan30-2022 14:08:47  ShM Nodes: 1  Procs: 4

 AMS jobname: 47.achiral_catalyst.H_tBu_SnCl4.P1
 AMS jobid  : 521010356

 Start   directory: /scistor/tc/yhk800/MasterProject/calculations/achiral_catalyst_H_tBu_SnCl4/47.achiral_catalyst.H_tBu_SnCl4.P1/
 Results directory: /scistor/tc/yhk800/MasterProject/calculations/achiral_catalyst_H_tBu_SnCl4/47.achiral_catalyst.H_tBu_SnCl4.P1/
 Scratch directory: /scratch/5505/amstmp_47.achiral_catalyst.H_tBu_SnCl4.P1_kid0.521010356/


 Communication costs MPI_COMM_WORLD:      0.884 usec per message,   0.0103 usec per 8-byte item
 Communication costs for intra-node:      0.849 usec per message,   0.0067 usec per 8-byte item

 RNG seed: -1255084645 1980916484 1434321803 1748117461 1813482835 1106317547 -970919166 -446587009



                      ************************************************************************
                      *  ADF 2021.102  RunTime: Jan30-2022 14:08:49  ShM Nodes: 1  Procs: 4  *
                      ************************************************************************
  
       ***************************
       *  GEOMETRY OPTIMIZATION  *
       ***************************

Optimization Method                    Quasi Newton
Optimization Coordinates               Delocalized Coordinates
Optimize lattice                       F
 
 ------------------------------------------------------
 Convergence criteria (Hartree,Angstrom)
 ------------------------------------------------------
 Maximum gradient               0.001000000000
 Maximum rms gradient           0.000666666667
 Maximum step allowed           0.010000000000
 Maximum rms step allowed       0.006666666667
 Maximum energy change allowe   0.000290000000
 Maximum stress energy allowe   0.000500000000
 
Initial model Hessian                  Automatic Hessian
 
------------------------------------
Quasi-Newton Optimizer Parameters
------------------------------------
Hessian Update Method                  BFGS
Maximum number of steps                  250
First GDIIS cycle                          0
Maximum GDIIS vectors                      0
Trust radius (bohr)                        0.200000
Trust radius varies                        T
Constraints converged at all steps         T
Use projector                              T
 
 Rigid motions settings for: old optimizer
 Atomic rotations (x,y,z):     T T T
 Atomic translations (x,y,z):  T T T
 Tolerance:                   1.000000000000000E-006
 
--------
Geometry
--------
Formula: C8H15Cl4OSn
Atoms
  Index Symbol   x (angstrom)   y (angstrom)   z (angstrom)
      1      H     0.30883566    -1.71322737     0.34845077
      2      C    -0.85933175     0.07325638     0.95361639
      3      C     0.30566658    -0.62207952     0.35697327
      4      C     1.44363467     0.02246096    -0.23005168
      5      O     2.41991567    -0.55928782    -0.73004528
      6      H    -0.69195270     1.15283717     0.94428296
      7      H    -2.09949902     0.10683830     2.73788510
      8      H    -0.38777363    -0.20492454     3.06899219
      9      C    -1.20706757    -0.41125312     2.37345100
     10      H    -1.40849480    -1.48746718     2.39475159
     11      C    -1.70937506     0.20354156    -1.38496935
     12      C    -2.07744753    -0.18985427     0.04886961
     13      C    -3.24807681     0.65887181     0.55426345
     14      C    -2.42346101    -1.68006514     0.12422237
     15      H    -2.66121687    -1.96192776     1.15056780
     16      H    -2.55085832     0.03060734    -2.05797047
     17      H    -0.86007945    -0.38556238    -1.73283836
     18      H    -1.44001103     1.25935324    -1.43040126
     19      H    -4.13281786     0.49873837    -0.06421966
     20      H    -2.98931684     1.71782142     0.52219591
     21      H    -3.49151556     0.39312814     1.58357255
     22      H    -3.28501950    -1.90595353    -0.50635057
     23      H    -1.57908657    -2.28215009    -0.21324594
     24      H     2.13175883    -0.63340533    -0.72119785
     25     Sn     1.54062743     0.82456511    -0.28082009
     26     Cl     3.56457336     1.94922364     0.21619090
     27     Cl     1.43323615     0.03266899     1.94844021
     28     Cl    -0.48331850    -0.30009342    -0.77783108
     29     Cl     1.64801871     1.61646123    -2.51008040
 
Total System Charge             0.00000
 
 
----------------
ADF Engine Input
----------------
 
 NumericalQuality VeryGood
 SCF
 Converge 1.0e-6
 Iterations 99
 End
 SYMMETRY NOSYM
 SpinPolarization 1.0
 Unrestricted Yes
 XC
 GGA OLYP
 End
 basis
 core None
 type TZ2P
 End
 

 Title: *** (NO TITLE) ***

 Using automatic Hessian for delocalized coordinates.
 *** GOStep1 ***

 Energy gradients wrt nuclear displacements
 ==========================================

     Atom      Cartesian (a.u./angstrom)
                 X         Y         Z
 ----------------------------------------
     1 H    -0.021046  0.019350 -0.056049
     2 C     0.134174 -0.023713 -0.303116
     3 C    -0.186311  0.388518 -0.516847
     4 C     3.079343 21.708972 -1.477848
     5 O   -29.556010 -7.209322  0.774504
     6 H    -0.013084 -0.007354 -0.004660
     7 H    -0.006738  0.004010 -0.005479
     8 H     0.012889  0.000922  0.003030
     9 C     0.022262 -0.008380 -0.032634
    10 H    -0.007694 -0.010076 -0.004988
    11 C     0.668007 -0.378816  0.105330
    12 C     0.247688 -0.001370 -0.109318
    13 C     0.039703 -0.013105 -0.019039
    14 C     0.035284  0.017296  0.008255
    15 H     0.006578  0.000775  0.010407
    16 H     0.034050  0.026983  0.037970
    17 H     0.127096  0.161006  0.771736
    18 H     0.040899 -0.029802  0.025231
    19 H     0.001404 -0.000743  0.001506
    20 H     0.000998 -0.004236 -0.000536
    21 H     0.011696 -0.004361  0.003539
    22 H     0.003184  0.001394  0.001820
    23 H     0.009076  0.011537 -0.000816
    24 H    28.850288  8.102248 -0.372135
    25 Sn   -2.712311-22.895546  1.278911
    26 Cl   -0.044488 -0.021199 -0.006298
    27 Cl   -0.152042 -0.000027 -0.347909
    28 Cl   -0.616545  0.196141  0.127004
    29 Cl   -0.008350 -0.031102  0.108428
 ----------------------------------------
 Mulliken charges used for AMS results%charges...
 
----------------------------------------------------------------------
Geometry Convergence after Step   1       (Hartree/Angstrom,Angstrom)
----------------------------------------------------------------------
current energy                                5.20284853 Hartree
energy change                       5.20284853     0.00029000    F
constrained gradient max           29.55596296     0.00100000    F
constrained gradient rms            5.71636723     0.00066667    F
gradient max                       29.55596296
gradient rms                        5.71636723
cart. step max                      0.03086185     0.01000000    F
cart. step rms                      0.00518588     0.00666667    T
 
 
--------
Geometry
--------
Formula: C8H15Cl4OSn
Atoms
  Index Symbol   x (angstrom)   y (angstrom)   z (angstrom)
      1      H     0.30701051    -1.71489884     0.34943690
      2      C    -0.85958211     0.07392564     0.95342434
      3      C     0.30526922    -0.62364478     0.35727409
      4      C     1.44297651     0.01153564    -0.22907113
      5      O     2.45077752    -0.56077122    -0.72958929
      6      H    -0.69199489     1.15352006     0.94386080
      7      H    -2.10001914     0.10513027     2.73780261
      8      H    -0.38827168    -0.20596433     3.06878425
      9      C    -1.20729052    -0.41209789     2.37295611
     10      H    -1.40811158    -1.48838482     2.39331274
     11      C    -1.71156519     0.20319825    -1.38603291
     12      C    -2.07811506    -0.18952756     0.04924356
     13      C    -3.24863016     0.65974088     0.55490241
     14      C    -2.42441947    -1.67986591     0.12501812
     15      H    -2.66176857    -1.96153184     1.15146721
     16      H    -2.55356914     0.03027110    -2.05883335
     17      H    -0.86160327    -0.38806391    -1.73532629
     18      H    -1.44194227     1.25900526    -1.43247563
     19      H    -4.13366182     0.49944007    -0.06313751
     20      H    -2.98975053     1.71866452     0.52223890
     21      H    -3.49177300     0.39459179     1.58442485
     22      H    -3.28635494    -1.90564235    -0.50511442
     23      H    -1.58045203    -2.28235144    -0.21273526
     24      H     2.10809487    -0.64694173    -0.71771544
     25     Sn     1.54503765     0.83469334    -0.28153289
     26     Cl     3.56791178     1.96220027     0.21459443
     27     Cl     1.43387207     0.03180544     1.94873485
     28     Cl    -0.48381709    -0.30170077    -0.77786332
     29     Cl     1.65228901     1.62678706    -2.51134466
 
Total System Charge             0.00000
 
 *** GOStep2 ***

 Energy gradients wrt nuclear displacements
 ==========================================

     Atom      Cartesian (a.u./angstrom)
                 X         Y         Z
 ----------------------------------------
     1 H    -0.019631  0.019720 -0.056367
     2 C     0.131628 -0.025346 -0.303986
     3 C    -0.194841  0.380146 -0.512589
     4 C     2.848717 19.327272 -1.342572
     5 O   -18.607970 -4.296789  0.536726
     6 H    -0.013239 -0.006937 -0.004699
     7 H    -0.006769  0.004015 -0.005375
     8 H     0.012440  0.000798  0.003166
     9 C     0.022306 -0.008659 -0.032084
    10 H    -0.007783 -0.010080 -0.004942
    11 C     0.659487 -0.375843  0.098347
    12 C     0.246956 -0.001464 -0.107517
    13 C     0.038725 -0.013099 -0.019484
    14 C     0.035241  0.017279  0.008497
    15 H     0.006570  0.000796  0.010463
    16 H     0.031700  0.027683  0.037065
    17 H     0.120602  0.161056  0.759827
    18 H     0.040856 -0.029673  0.025199
    19 H     0.001239 -0.000566  0.001770
    20 H     0.000982 -0.004188 -0.000507
    21 H     0.011666 -0.004428  0.003502
    22 H     0.003164  0.001427  0.001823
    23 H     0.009222  0.011559 -0.000921
    24 H    17.930700  5.161341 -0.146633
    25 Sn   -2.500387-20.475963  1.152304
    26 Cl   -0.042094 -0.022514 -0.006981
    27 Cl   -0.151352  0.000852 -0.346496
    28 Cl   -0.601249  0.193085  0.146143
    29 Cl   -0.006885 -0.031478  0.106320
 ----------------------------------------
 Mulliken charges used for AMS results%charges...

 dE(predicted):    -0.21718E+01, dE(actual):    -0.18148E+01, Trust radius:    0.400000, all in a.u.
 
----------------------------------------------------------------------
Geometry Convergence after Step   2       (Hartree/Angstrom,Angstrom)
----------------------------------------------------------------------
current energy                                3.38807075 Hartree
energy change                      -1.81477778     0.00029000    F
constrained gradient max           20.47580068     0.00100000    F
constrained gradient rms            4.18798264     0.00066667    F
gradient max                       20.47580068
gradient rms                        4.18798264
cart. step max                      0.04651931     0.01000000    F
cart. step rms                      0.01168652     0.00666667    F
 
 
--------
Geometry
--------
Formula: C8H15Cl4OSn
Atoms
  Index Symbol   x (angstrom)   y (angstrom)   z (angstrom)
      1      H     0.30285370    -1.72074893     0.35411007
      2      C    -0.85957472     0.07630413     0.95390799
      3      C     0.30536035    -0.62907337     0.35931078
      4      C     1.44182809    -0.02373622    -0.22534747
      5      O     2.49729683    -0.58069996    -0.72650473
      6      H    -0.69140525     1.15597939     0.94348910
      7      H    -2.10042028     0.09950225     2.73910723
      8      H    -0.38852250    -0.20910897     3.06915166
      9      C    -1.20677342    -0.41473382     2.37263461
     10      H    -1.40542792    -1.49123679     2.39000986
     11      C    -1.71911169     0.20237157    -1.39112961
     12      C    -2.08055076    -0.18852554     0.05017818
     13      C    -3.25085662     0.66262508     0.55672096
     14      C    -2.42778671    -1.67946197     0.12718772
     15      H    -2.66386984    -1.96060202     1.15389295
     16      H    -2.56277521     0.02943116    -2.06352438
     17      H    -0.86630234    -0.39647588    -1.74603549
     18      H    -1.44887743     1.25829390    -1.44081764
     19      H    -4.13677557     0.50175650    -0.05996699
     20      H    -2.99158846     1.72147588     0.52212406
     21      H    -3.49320522     0.39950069     1.58691104
     22      H    -3.29093771    -1.90481252    -0.50156989
     23      H    -1.58522512    -2.28334852    -0.21148791
     24      H     2.07682123    -0.68055827    -0.70856053
     25     Sn     1.55956575     0.86878031    -0.28398104
     26     Cl     3.57832554     2.00620476     0.21091505
     27     Cl     1.43586839     0.02902277     1.95044533
     28     Cl    -0.48473241    -0.30698666    -0.77868940
     29     Cl     1.66734594     1.66198326    -2.51577742
 
Total System Charge             0.00000
 
 *** GOStep3 ***

 Energy gradients wrt nuclear displacements
 ==========================================

     Atom      Cartesian (a.u./angstrom)
                 X         Y         Z
 ----------------------------------------
     1 H    -0.015082  0.019796 -0.056818
     2 C     0.121595 -0.029240 -0.302701
     3 C    -0.215580  0.360468 -0.488571
     4 C     2.188782 13.462601 -1.021394
     5 O   -10.130678 -2.121423  0.324041
     6 H    -0.012627 -0.006073 -0.005005
     7 H    -0.006512  0.003870 -0.005016
     8 H     0.011381  0.000585  0.003324
     9 C     0.022039 -0.010094 -0.031028
    10 H    -0.007907 -0.010021 -0.004667
    11 C     0.632048 -0.362233  0.084011
    12 C     0.244087 -0.002724 -0.099229
    13 C     0.036488 -0.012510 -0.021245
    14 C     0.035043  0.016412  0.008721
    15 H     0.006752  0.000875  0.010307
    16 H     0.028338  0.028133  0.035486
    17 H     0.107501  0.154519  0.718347
    18 H     0.040800 -0.028261  0.024767
    19 H     0.000917 -0.000234  0.002146
    20 H     0.001040 -0.004113 -0.000498
    21 H     0.011902 -0.004697  0.003044
    22 H     0.003176  0.001338  0.001718
    23 H     0.009442  0.011431 -0.001120
    24 H     9.558264  2.894024  0.023490
    25 Sn   -1.921178-14.498898  0.856278
    26 Cl   -0.036375 -0.023395 -0.007700
    27 Cl   -0.151683  0.001417 -0.344982
    28 Cl   -0.558297  0.189313  0.197415
    29 Cl   -0.003675 -0.030866  0.096877
 ----------------------------------------
 Mulliken charges used for AMS results%charges...

 dE(predicted):    -0.25301E+01, dE(actual):    -0.23556E+01, Trust radius:    0.800000, all in a.u.
 
----------------------------------------------------------------------
Geometry Convergence after Step   3       (Hartree/Angstrom,Angstrom)
----------------------------------------------------------------------
current energy                                1.03244068 Hartree
energy change                      -2.35563008     0.00029000    F
constrained gradient max           14.49881618     0.00100000    F
constrained gradient rms            2.64993634     0.00066667    F
gradient max                       14.49881618
gradient rms                        2.64993634
cart. step max                      0.11321861     0.01000000    F
cart. step rms                      0.02930789     0.00666667    F
 
 
--------
Geometry
--------
Formula: C8H15Cl4OSn
Atoms
  Index Symbol   x (angstrom)   y (angstrom)   z (angstrom)
      1      H     0.30746256    -1.73997813     0.37307894
      2      C    -0.85472489     0.08271676     0.96382473
      3      C     0.31791362    -0.64611780     0.37114159
      4      C     1.45053981    -0.10170354    -0.21150882
      5      O     2.54771312    -0.65491405    -0.71796721
      6      H    -0.68531573     1.16295938     0.95125100
      7      H    -2.09306900     0.08546322     2.75579554
      8      H    -0.38090352    -0.21551398     3.07915680
      9      C    -1.19809235    -0.42056347     2.38298097
     10      H    -1.39054167    -1.49698534     2.39446808
     11      C    -1.75316990     0.20427232    -1.41929832
     12      C    -2.09515395    -0.18739955     0.05138961
     13      C    -3.26804869     0.66983274     0.56024721
     14      C    -2.44602829    -1.68194064     0.13112871
     15      H    -2.67867340    -1.96252869     1.15783643
     16      H    -2.60267271     0.03080664    -2.09236721
     17      H    -0.88465250    -0.42046309    -1.80434593
     18      H    -1.48542573     1.26241424    -1.47662391
     19      H    -4.15526416     0.50618786    -0.05422325
     20      H    -3.00861139     1.72887200     0.52019216
     21      H    -3.51105114     0.41389075     1.59198777
     22      H    -3.31335780    -1.90457667    -0.49355611
     23      H    -1.60960581    -2.29224376    -0.21065756
     24      H     2.08633196    -0.75278754    -0.69190592
     25     Sn     1.60805748     0.95671184    -0.28723556
     26     Cl     3.61717464     2.11942337     0.20924745
     27     Cl     1.45430809     0.02346284     1.96676424
     28     Cl    -0.48294966    -0.32140478    -0.78611449
     29     Cl     1.71835768     1.75522928    -2.52798285
 
Total System Charge             0.00000
 
 *** GOStep4 ***

 Energy gradients wrt nuclear displacements
 ==========================================

     Atom      Cartesian (a.u./angstrom)
                 X         Y         Z
 ----------------------------------------
     1 H    -0.007585  0.015257 -0.055628
     2 C     0.105021 -0.024681 -0.281028
     3 C    -0.198428  0.315397 -0.416521
     4 C     1.270140  6.257147 -0.604982
     5 O    -7.516713 -1.476307  0.278874
     6 H    -0.009594 -0.003641 -0.006545
     7 H    -0.004645  0.003159 -0.004581
     8 H     0.008872  0.000170  0.003050
     9 C     0.023524 -0.015516 -0.026531
    10 H    -0.007780 -0.008241 -0.003162
    11 C     0.534277 -0.300756  0.064853
    12 C     0.221957 -0.008147 -0.080659
    13 C     0.028591 -0.008996 -0.020953
    14 C     0.031044  0.010680  0.008728
    15 H     0.006613  0.000941  0.008337
    16 H     0.024911  0.024454  0.025513
    17 H     0.081981  0.114187  0.538497
    18 H     0.036673 -0.018815  0.021021
    19 H     0.000079  0.000060  0.002324
    20 H     0.000914 -0.003671 -0.000270
    21 H     0.010772 -0.004118  0.001564
    22 H     0.002514  0.000622  0.001342
    23 H     0.008356  0.010504 -0.001126
    24 H     7.105991  2.079181 -0.006636
    25 Sn   -1.134499 -7.072627  0.505888
    26 Cl   -0.015649 -0.020187 -0.006939
    27 Cl   -0.150601 -0.006143 -0.336866
    28 Cl   -0.460369  0.171993  0.326613
    29 Cl    0.003635 -0.031905  0.065824
 ----------------------------------------
 Mulliken charges used for AMS results%charges...

 dE(predicted):    -0.21524E+01, dE(actual):    -0.22136E+01, Trust radius:    1.000000, all in a.u.
 
----------------------------------------------------------------------
Geometry Convergence after Step   4       (Hartree/Angstrom,Angstrom)
----------------------------------------------------------------------
current energy                               -1.18120260 Hartree
energy change                      -2.21364327     0.00029000    F
constrained gradient max            7.51670748     0.00100000    F
constrained gradient rms            1.54593995     0.00066667    F
gradient max                        7.51670748
gradient rms                        1.54593995
cart. step max                      0.21110888     0.01000000    F
cart. step rms                      0.03789069     0.00666667    F
 
 
--------
Geometry
--------
Formula: C8H15Cl4OSn
Atoms
  Index Symbol   x (angstrom)   y (angstrom)   z (angstrom)
      1      H     0.33079493    -1.75797748     0.38986714
      2      C    -0.85172539     0.08640412     0.98487460
      3      C     0.34291430    -0.66106587     0.38667361
      4      C     1.48591166    -0.11462013    -0.20097435
      5      O     2.75882200    -0.68146382    -0.73818966
      6      H    -0.68177038     1.16737193     0.97280514
      7      H    -2.08395639     0.07872492     2.78871280
      8      H    -0.37216620    -0.21730009     3.10143593
      9      C    -1.19006003    -0.42243192     2.40875131
     10      H    -1.37871917    -1.49757785     2.41880830
     11      C    -1.81186518     0.21296672    -1.46268198
     12      C    -2.12802202    -0.18967238     0.05217222
     13      C    -3.30826304     0.67272046     0.56311970
     14      C    -2.48072712    -1.69024212     0.13387108
     15      H    -2.70917481    -1.97175735     1.15996571
     16      H    -2.66900326     0.03747344    -2.13776969
     17      H    -0.91553984    -0.43883384    -1.89010203
     18      H    -1.55346149     1.27482477    -1.52416490
     19      H    -4.19482625     0.50405839    -0.05140864
     20      H    -3.05085813     1.73278399     0.51820446
     21      H    -3.55490110     0.42452038     1.59600753
     22      H    -3.35280047    -1.90960601    -0.48635666
     23      H    -1.65176813    -2.30809719    -0.21189513
     24      H     2.07026491    -0.81184860    -0.68450223
     25     Sn     1.67421358     1.00244164    -0.28329044
     26     Cl     3.68194262     2.17600848     0.21057509
     27     Cl     1.50379827     0.02422167     2.00619055
     28     Cl    -0.48178021    -0.33148256    -0.80030806
     29     Cl     1.78327301     1.81257847    -2.53368733
 
Total System Charge             0.00000
 
 *** GOStep5 ***

 Energy gradients wrt nuclear displacements
 ==========================================

     Atom      Cartesian (a.u./angstrom)
                 X         Y         Z
 ----------------------------------------
     1 H    -0.005507  0.007148 -0.052724
     2 C     0.099870 -0.008686 -0.239950
     3 C    -0.154996  0.250285 -0.332904
     4 C     1.117036  4.901930 -0.476598
     5 O    -1.491592 -0.199943  0.029447
     6 H    -0.008226 -0.000889 -0.005830
     7 H    -0.002637  0.001873 -0.003701
     8 H     0.007298 -0.000338  0.002300
     9 C     0.022289 -0.018933 -0.017873
    10 H    -0.006586 -0.004918 -0.001537
    11 C     0.412802 -0.219392  0.049304
    12 C     0.189652 -0.013817 -0.072574
    13 C     0.017539 -0.004047 -0.015199
    14 C     0.024399  0.002376  0.009367
    15 H     0.006128  0.000744  0.005192
    16 H     0.017669  0.019675  0.009775
    17 H     0.073391  0.065449  0.350960
    18 H     0.028023 -0.008742  0.014109
    19 H    -0.000203  0.000078  0.002143
    20 H     0.000816 -0.002620  0.000169
    21 H     0.008124 -0.002289  0.000783
    22 H     0.001738 -0.000029  0.000812
    23 H     0.006562  0.008929 -0.000749
    24 H     1.200559  0.642633  0.165326
    25 Sn   -1.050780 -5.494539  0.441210
    26 Cl   -0.002295 -0.019755 -0.008108
    27 Cl   -0.131276 -0.010892 -0.294486
    28 Cl   -0.389514  0.141204  0.395212
    29 Cl    0.009718 -0.032495  0.046126
 ----------------------------------------
 Mulliken charges used for AMS results%charges...

 dE(predicted):    -0.18689E+01, dE(actual):    -0.14202E+01, Trust radius:    1.000000, all in a.u.
 
----------------------------------------------------------------------
Geometry Convergence after Step   5       (Hartree/Angstrom,Angstrom)
----------------------------------------------------------------------
current energy                               -2.60143450 Hartree
energy change                      -1.42023190     0.00029000    F
constrained gradient max            5.49446469     0.00100000    F
constrained gradient rms            0.84583927     0.00066667    F
gradient max                        5.49446469
gradient rms                        0.84583927
cart. step max                      0.12931622     0.01000000    F
cart. step rms                      0.04527239     0.00666667    F
 
 
--------
Geometry
--------
Formula: C8H15Cl4OSn
Atoms
  Index Symbol   x (angstrom)   y (angstrom)   z (angstrom)
      1      H     0.37191617    -1.79538340     0.42884157
      2      C    -0.83499572     0.09009807     1.01327983
      3      C     0.39063311    -0.69690672     0.41122799
      4      C     1.51811734    -0.20432986    -0.18098035
      5      O     2.85014222    -0.73698440    -0.72320991
      6      H    -0.66292923     1.17083108     0.99718636
      7      H    -2.06161004     0.07046218     2.83085710
      8      H    -0.35064807    -0.21603578     3.13137137
      9      C    -1.16771910    -0.42337282     2.44214483
     10      H    -1.34897378    -1.49781141     2.44998062
     11      C    -1.87835204     0.21899658    -1.52207188
     12      C    -2.16412680    -0.19351174     0.04940858
     13      C    -3.34944152     0.67594740     0.56504134
     14      C    -2.53371447    -1.69623549     0.12924214
     15      H    -2.76319645    -1.97888793     1.15379227
     16      H    -2.74457775     0.04169742    -2.19650819
     17      H    -0.94613829    -0.46556709    -1.99365807
     18      H    -1.63138764     1.28242655    -1.58737213
     19      H    -4.23486057     0.50409825    -0.05079362
     20      H    -3.09232407     1.73682563     0.51604978
     21      H    -3.60270114     0.43610500     1.59886056
     22      H    -3.41342769    -1.89820306    -0.48708276
     23      H    -1.72353687    -2.33594764    -0.22137593
     24      H     2.10707623    -0.88953956    -0.66992583
     25     Sn     1.76009674     1.10300632    -0.28751328
     26     Cl     3.75101188     2.30532471     0.21074160
     27     Cl     1.57631348     0.02358395     2.05597208
     28     Cl    -0.46832534    -0.35553697    -0.82699839
     29     Cl     1.85822609     1.92797292    -2.54980358
 
Total System Charge             0.00000
 
 *** GOStep6 ***

 Energy gradients wrt nuclear displacements
 ==========================================

     Atom      Cartesian (a.u./angstrom)
                 X         Y         Z
 ----------------------------------------
     1 H     0.001359  0.000235 -0.047720
     2 C     0.093739  0.016912 -0.190703
     3 C    -0.053472  0.195481 -0.227301
     4 C     0.646194  2.122864 -0.300098
     5 O    -0.987842 -0.134705  0.005527
     6 H    -0.007078  0.001164 -0.004424
     7 H    -0.000148  0.001021 -0.002395
     8 H     0.006519 -0.000445  0.001593
     9 C     0.021402 -0.023742 -0.009001
    10 H    -0.004470 -0.000973  0.000396
    11 C     0.301796 -0.135958  0.050376
    12 C     0.151160 -0.021599 -0.059225
    13 C     0.006575  0.000752 -0.008385
    14 C     0.015584 -0.006545  0.007981
    15 H     0.005339  0.000419  0.001290
    16 H     0.013299  0.011286 -0.004555
    17 H     0.094104  0.012819  0.215349
    18 H     0.017422 -0.003464  0.006761
    19 H     0.000013 -0.000551  0.001427
    20 H     0.000845 -0.001599  0.000608
    21 H     0.005059 -0.000285  0.000228
    22 H     0.001112 -0.000701  0.000302
    23 H     0.003637  0.005841  0.000192
    24 H     0.718529  0.516486  0.179967
    25 Sn   -0.588137 -2.621590  0.257366
    26 Cl    0.010889 -0.008574 -0.007403
    27 Cl   -0.125717 -0.035341 -0.237277
    28 Cl   -0.364084  0.129770  0.358144
    29 Cl    0.016373 -0.018980  0.010980
 ----------------------------------------
 Mulliken charges used for AMS results%charges...

 dE(predicted):    -0.85214E+00, dE(actual):    -0.99503E+00, Trust radius:    1.000000, all in a.u.
 
----------------------------------------------------------------------
Geometry Convergence after Step   6       (Hartree/Angstrom,Angstrom)
----------------------------------------------------------------------
current energy                               -3.59646120 Hartree
energy change                      -0.99502670     0.00029000    F
constrained gradient max            2.62154160     0.00100000    F
constrained gradient rms            0.41241917     0.00066667    F
gradient max                        2.62154160
gradient rms                        0.41241917
cart. step max                      0.14737591     0.01000000    F
cart. step rms                      0.05130583     0.00666667    F
 
 
--------
Geometry
--------
Formula: C8H15Cl4OSn
Atoms
  Index Symbol   x (angstrom)   y (angstrom)   z (angstrom)
      1      H     0.42254584    -1.83007994     0.47519359
      2      C    -0.82224880     0.08975675     1.04915894
      3      C     0.44979505    -0.73280937     0.44049105
      4      C     1.57249691    -0.26623818    -0.16158819
      5      O     2.99751813    -0.78921714    -0.72769886
      6      H    -0.64836323     1.16943255     1.02852687
      7      H    -2.05482128     0.06714537     2.86931645
      8      H    -0.34892831    -0.21418101     3.17250035
      9      C    -1.15810648    -0.42225483     2.47976902
     10      H    -1.33426843    -1.49708558     2.48225468
     11      C    -1.96274819     0.22571946    -1.58899898
     12      C    -2.20959841    -0.19933788     0.04827846
     13      C    -3.39849778     0.67338138     0.56630816
     14      C    -2.59390407    -1.69901694     0.12574598
     15      H    -2.82470465    -1.98251394     1.15038417
     16      H    -2.83935926     0.04995669    -2.25627420
     17      H    -0.99756798    -0.48130230    -2.11087916
     18      H    -1.72914369     1.29070545    -1.65186808
     19      H    -4.28348710     0.49896235    -0.05009338
     20      H    -3.14360350     1.73546444     0.51409042
     21      H    -3.65611553     0.43810299     1.60093185
     22      H    -3.48104734    -1.88229921    -0.48652091
     23      H    -1.80161499    -2.35861573    -0.23089462
     24      H     2.18776954    -0.98869678    -0.67721668
     25     Sn     1.86463837     1.19266324    -0.29239061
     26     Cl     3.83213320     2.42076835     0.20824014
     27     Cl     1.68739714     0.04079002     2.12099292
     28     Cl    -0.44934090    -0.38051790    -0.85683471
     29     Cl     1.93372242     2.03443986    -2.55422060
 
Total System Charge             0.00000
 
 *** GOStep7 ***

 Energy gradients wrt nuclear displacements
 ==========================================

     Atom      Cartesian (a.u./angstrom)
                 X         Y         Z
 ----------------------------------------
     1 H     0.005428 -0.002628 -0.042888
     2 C     0.080873  0.038917 -0.145551
     3 C     0.041133  0.139559 -0.149554
     4 C     0.380609  1.001173 -0.198933
     5 O    -0.544748 -0.082941 -0.004791
     6 H    -0.008713  0.002132 -0.001546
     7 H     0.000580  0.000624 -0.000863
     8 H     0.002026 -0.001272  0.000771
     9 C     0.018863 -0.023321  0.001274
    10 H    -0.002600  0.000815  0.000509
    11 C     0.193979 -0.063790  0.039182
    12 C     0.115460 -0.024119 -0.043775
    13 C    -0.005160  0.002855 -0.002395
    14 C     0.008809 -0.010689  0.006233
    15 H     0.004575  0.000207 -0.000286
    16 H     0.006360  0.008370 -0.016077
    17 H     0.110472 -0.027222  0.110992
    18 H     0.006524 -0.001065  0.001911
    19 H     0.000027 -0.000486  0.001229
    20 H     0.001140 -0.000894  0.000403
    21 H     0.002504  0.000971  0.000303
    22 H     0.000883 -0.000291 -0.000316
    23 H     0.002031  0.002989  0.000495
    24 H     0.342324  0.360248  0.147352
    25 Sn   -0.358156 -1.384960  0.157782
    26 Cl    0.010854 -0.001535 -0.008438
    27 Cl   -0.104968 -0.041015 -0.161418
    28 Cl   -0.328476  0.114512  0.309171
    29 Cl    0.017368 -0.007144 -0.000778
 ----------------------------------------
 Mulliken charges used for AMS results%charges...
 Rebuilding optimization coordinates

 dE(predicted):    -0.43508E+00, dE(actual):    -0.52453E+00, Trust radius:    1.000000, all in a.u.
 
----------------------------------------------------------------------
Geometry Convergence after Step   7       (Hartree/Angstrom,Angstrom)
----------------------------------------------------------------------
current energy                               -4.12099155 Hartree
energy change                      -0.52453036     0.00029000    F
constrained gradient max            1.38495095     0.00100000    F
constrained gradient rms            0.22094384     0.00066667    F
gradient max                        1.38495095
gradient rms                        0.22094384
cart. step max                      0.16838135     0.01000000    F
cart. step rms                      0.05269915     0.00666667    F
 
 
--------
Geometry
--------
Formula: C8H15Cl4OSn
Atoms
  Index Symbol   x (angstrom)   y (angstrom)   z (angstrom)
      1      H     0.47129595    -1.86507170     0.52112155
      2      C    -0.81790598     0.07104113     1.08976817
      3      C     0.51019560    -0.77073875     0.46808870
      4      C     1.63989695    -0.31689907    -0.14827083
      5      O     3.16589948    -0.81779752    -0.74855332
      6      H    -0.63878379     1.14860705     1.06287974
      7      H    -2.06265544     0.07857470     2.89929407
      8      H    -0.36039466    -0.20584992     3.21281864
      9      C    -1.16534159    -0.41902569     2.51948402
     10      H    -1.34514530    -1.49389066     2.52960213
     11      C    -2.04415414     0.22823389    -1.64758169
     12      C    -2.26065813    -0.21264918     0.04980902
     13      C    -3.44282592     0.66622132     0.56351725
     14      C    -2.66334918    -1.70279012     0.12375744
     15      H    -2.89961548    -1.98633803     1.14875473
     16      H    -2.92747152     0.05844382    -2.30069544
     17      H    -1.06259607    -0.47720427    -2.22236111
     18      H    -1.81632874     1.29384795    -1.69739497
     19      H    -4.32658375     0.49472039    -0.05642228
     20      H    -3.18626855     1.72849503     0.51160343
     21      H    -3.70576376     0.43161322     1.59765340
     22      H    -3.55622649    -1.86737688    -0.48613773
     23      H    -1.88768734    -2.38061396    -0.23706730
     24      H     2.29362593    -1.08500675    -0.70752985
     25     Sn     1.97789277     1.28614407    -0.30138249
     26     Cl     3.92466069     2.52742157     0.20811051
     27     Cl     1.81884243     0.06930154     2.18050062
     28     Cl    -0.42291245    -0.40942288    -0.88570493
     29     Cl     2.00090515     2.13113189    -2.56095740
 
Total System Charge             0.00000
 
 *** GOStep8 ***

 Energy gradients wrt nuclear displacements
 ==========================================

     Atom      Cartesian (a.u./angstrom)
                 X         Y         Z
 ----------------------------------------
     1 H     0.005759 -0.003183 -0.037328
     2 C     0.065821  0.047115 -0.107480
     3 C     0.096643  0.088774 -0.095324
     4 C     0.213638  0.439462 -0.126428
     5 O    -0.262618 -0.049022 -0.013870
     6 H    -0.009461  0.001353  0.001827
     7 H     0.000118  0.000408  0.000135
     8 H    -0.002880 -0.001551 -0.000650
     9 C     0.013370 -0.017965  0.010018
    10 H    -0.001422  0.001273 -0.000498
    11 C     0.110148 -0.017159  0.023957
    12 C     0.082560 -0.024548 -0.025699
    13 C    -0.012777  0.002565  0.000408
    14 C     0.003406 -0.010754  0.005153
    15 H     0.003510 -0.000076 -0.000588
    16 H     0.005366  0.009121 -0.019489
    17 H     0.119489 -0.051394  0.043730
    18 H    -0.000358 -0.000213  0.000553
    19 H     0.000207 -0.000395  0.000773
    20 H     0.001415 -0.000574 -0.000019
    21 H     0.001549  0.001165  0.000415
    22 H     0.000955  0.000355 -0.000595
    23 H     0.000838  0.000974  0.000619
    24 H     0.126946  0.222968  0.108972
    25 Sn   -0.218777 -0.702791  0.094530
    26 Cl    0.010356  0.001225 -0.008711
    27 Cl   -0.081036 -0.037926 -0.102341
    28 Cl   -0.289110  0.102446  0.254043
    29 Cl    0.016345 -0.001653 -0.006113
 ----------------------------------------
 Mulliken charges used for AMS results%charges...

 dE(predicted):    -0.26100E+00, dE(actual):    -0.30224E+00, Trust radius:    1.000000, all in a.u.
 
----------------------------------------------------------------------
Geometry Convergence after Step   8       (Hartree/Angstrom,Angstrom)
----------------------------------------------------------------------
current energy                               -4.42322750 Hartree
energy change                      -0.30223594     0.00029000    F
constrained gradient max            0.70276651     0.00100000    F
constrained gradient rms            0.11840099     0.00066667    F
gradient max                        0.70276651
gradient rms                        0.11840099
cart. step max                      0.14556393     0.01000000    F
cart. step rms                      0.04555382     0.00666667    F
 
 
--------
Geometry
--------
Formula: C8H15Cl4OSn
Atoms
  Index Symbol   x (angstrom)   y (angstrom)   z (angstrom)
      1      H     0.50103315    -1.89570542     0.59886738
      2      C    -0.81118217     0.03481141     1.12108479
      3      C     0.55668755    -0.80669690     0.50344766
      4      C     1.69804000    -0.35536369    -0.13176874
      5      O     3.31146342    -0.81807559    -0.75727156
      6      H    -0.61924977     1.10943348     1.08574095
      7      H    -2.07482500     0.08752698     2.90926973
      8      H    -0.37362077    -0.19952027     3.23996684
      9      C    -1.17711963    -0.42323929     2.54720946
     10      H    -1.36206396    -1.49787456     2.57516592
     11      C    -2.10921121     0.21673280    -1.68587694
     12      C    -2.29242244    -0.22780243     0.04568242
     13      C    -3.45487816     0.66709542     0.55679019
     14      C    -2.73002966    -1.70202912     0.10916372
     15      H    -2.97899096    -1.98573164     1.13267977
     16      H    -3.00609213     0.04943831    -2.31183738
     17      H    -1.12734689    -0.44071389    -2.31340385
     18      H    -1.88661747     1.28341268    -1.71562127
     19      H    -4.33914848     0.51063839    -0.06728004
     20      H    -3.18732920     1.72731235     0.51079651
     21      H    -3.72616230     0.42928474     1.58854219
     22      H    -3.62904847    -1.83709898    -0.49968003
     23      H    -1.97665369    -2.40206469    -0.25769159
     24      H     2.40449198    -1.15758620    -0.73935571
     25     Sn     2.06147352     1.35075766    -0.31191828
     26     Cl     3.97305566     2.62258942     0.21640984
     27     Cl     1.95363888     0.12503159     2.22531431
     28     Cl    -0.38653519    -0.44928187    -0.91888380
     29     Cl     1.99919005     2.18784152    -2.56883842
 
Total System Charge             0.00000
 
 *** GOStep9 ***

 Energy gradients wrt nuclear displacements
 ==========================================

     Atom      Cartesian (a.u./angstrom)
                 X         Y         Z
 ----------------------------------------
     1 H     0.001943 -0.003572 -0.028613
     2 C     0.053614  0.041251 -0.077041
     3 C     0.117613  0.050110 -0.052517
     4 C     0.145562  0.230705 -0.095042
     5 O    -0.129031 -0.029102 -0.016134
     6 H    -0.007997  0.000322  0.003765
     7 H    -0.000849  0.000462  0.000472
     8 H    -0.004931 -0.001181 -0.001756
     9 C     0.006871 -0.011725  0.012999
    10 H    -0.000539  0.001286 -0.001388
    11 C     0.052063  0.002090  0.013550
    12 C     0.059263 -0.021494 -0.011187
    13 C    -0.014961  0.001075  0.001048
    14 C     0.000106 -0.007847  0.002096
    15 H     0.002019  0.000348 -0.000674
    16 H     0.005573  0.009710 -0.018386
    17 H     0.125035 -0.058229  0.005710
    18 H    -0.002979 -0.000496  0.002080
    19 H     0.000494 -0.000547  0.000278
    20 H     0.001212 -0.000399 -0.000414
    21 H     0.001228  0.000695  0.000714
    22 H     0.000779  0.000677 -0.000481
    23 H    -0.000136 -0.000256  0.000440
    24 H     0.034388  0.133455  0.078357
    25 Sn   -0.151360 -0.401896  0.064437
    26 Cl    0.010133  0.001595 -0.006543
    27 Cl   -0.059800 -0.033120 -0.064617
    28 Cl   -0.258953  0.096295  0.198006
    29 Cl    0.013640 -0.000211 -0.009159
 ----------------------------------------
 Mulliken charges used for AMS results%charges...

 dE(predicted):    -0.10792E+00, dE(actual):    -0.15308E+00, Trust radius:    1.000000, all in a.u.
 
----------------------------------------------------------------------
Geometry Convergence after Step   9       (Hartree/Angstrom,Angstrom)
----------------------------------------------------------------------
current energy                               -4.57630837 Hartree
energy change                      -0.15308088     0.00029000    F
constrained gradient max            0.40187943     0.00100000    F
constrained gradient rms            0.07561763     0.00066667    F
gradient max                        0.40187943
gradient rms                        0.07561763
cart. step max                      0.14195940     0.01000000    F
cart. step rms                      0.04347321     0.00666667    F
 
 
--------
Geometry
--------
Formula: C8H15Cl4OSn
Atoms
  Index Symbol   x (angstrom)   y (angstrom)   z (angstrom)
      1      H     0.51635288    -1.92217086     0.65904720
      2      C    -0.81599072    -0.00297046     1.15618580
      3      C     0.59131974    -0.83957133     0.53160851
      4      C     1.74776596    -0.39508718    -0.11567879
      5      O     3.45342282    -0.81330339    -0.76554610
      6      H    -0.60983534     1.06913708     1.10690413
      7      H    -2.08102285     0.09150305     2.92566068
      8      H    -0.37425145    -0.19923775     3.25730293
      9      C    -1.18812924    -0.43279760     2.57324113
     10      H    -1.37994489    -1.50694294     2.62494561
     11      C    -2.17087261     0.20767681    -1.72100952
     12      C    -2.33736741    -0.24479650     0.04191658
     13      C    -3.47238174     0.67133702     0.54243237
     14      C    -2.78941875    -1.70601367     0.10488097
     15      H    -3.04438990    -1.98984757     1.12891476
     16      H    -3.07607114     0.04599465    -2.32506886
     17      H    -1.20500640    -0.38756080    -2.40494990
     18      H    -1.94186245     1.27367554    -1.73130740
     19      H    -4.35850583     0.53289561    -0.08444712
     20      H    -3.18986326     1.72808101     0.49862805
     21      H    -3.75466485     0.43839676     1.57245902
     22      H    -3.69128952    -1.83372592    -0.50237817
     23      H    -2.04294533    -2.41302425    -0.26375369
     24      H     2.51548245    -1.23394417    -0.77545884
     25     Sn     2.14923998     1.41820075    -0.32317963
     26     Cl     4.02922313     2.70674059     0.22559067
     27     Cl     2.08015994     0.18883438     2.26616783
     28     Cl    -0.36070632    -0.49264291    -0.94585945
     29     Cl     2.01209977     2.24428623    -2.57054468
 
Total System Charge             0.00000
 
 *** GOStep10 ***

 Energy gradients wrt nuclear displacements
 ==========================================

     Atom      Cartesian (a.u./angstrom)
                 X         Y         Z
 ----------------------------------------
     1 H    -0.002946 -0.001891 -0.022565
     2 C     0.039556  0.029992 -0.044229
     3 C     0.127752  0.021270 -0.023923
     4 C     0.096859  0.096479 -0.069201
     5 O    -0.029834 -0.005087 -0.012306
     6 H    -0.005623  0.000704  0.004479
     7 H    -0.000524 -0.000290 -0.000050
     8 H    -0.002322 -0.000017 -0.001136
     9 C    -0.000468 -0.004748  0.008481
    10 H    -0.000304  0.000372 -0.001584
    11 C     0.007300  0.010668  0.008586
    12 C     0.035403 -0.019697  0.002275
    13 C    -0.013294 -0.001078 -0.000479
    14 C    -0.000465 -0.003838  0.000592
    15 H     0.000803 -0.000020 -0.000014
    16 H     0.008733  0.009874 -0.016364
    17 H     0.122424 -0.055374 -0.026298
    18 H    -0.001500 -0.000550  0.002108
    19 H     0.000643 -0.000387 -0.000049
    20 H     0.000592 -0.000013 -0.000427
    21 H     0.001149  0.000561  0.000074
    22 H     0.000678  0.000711 -0.000247
    23 H     0.000065 -0.000618  0.000164
    24 H    -0.030629  0.056494  0.048511
    25 Sn   -0.102333 -0.192683  0.037731
    26 Cl    0.008024  0.000538 -0.005140
    27 Cl   -0.042306 -0.027646 -0.035158
    28 Cl   -0.228708  0.086407  0.155308
    29 Cl    0.011276 -0.000135 -0.009136
 ----------------------------------------
 Mulliken charges used for AMS results%charges...

 dE(predicted):    -0.88122E-01, dE(actual):    -0.96451E-01, Trust radius:    1.000000, all in a.u.
 
----------------------------------------------------------------------
Geometry Convergence after Step  10       (Hartree/Angstrom,Angstrom)
----------------------------------------------------------------------
current energy                               -4.67275973 Hartree
energy change                      -0.09645135     0.00029000    F
constrained gradient max            0.22870361     0.00100000    F
constrained gradient rms            0.04933598     0.00066667    F
gradient max                        0.22870361
gradient rms                        0.04933598
cart. step max                      0.12609412     0.01000000    F
cart. step rms                      0.04034570     0.00666667    F
 
 
--------
Geometry
--------
Formula: C8H15Cl4OSn
Atoms
  Index Symbol   x (angstrom)   y (angstrom)   z (angstrom)
      1      H     0.52933362    -1.94376308     0.71511872
      2      C    -0.82568040    -0.04506352     1.18463715
      3      C     0.61650303    -0.86737533     0.55277335
      4      C     1.78422871    -0.43182858    -0.09914825
      5      O     3.57951694    -0.79816905    -0.75965458
      6      H    -0.60519741     1.02374575     1.11641129
      7      H    -2.08649814     0.08536635     2.93851863
      8      H    -0.37598987    -0.20979914     3.26945988
      9      C    -1.19882512    -0.45146909     2.59296822
     10      H    -1.39644749    -1.52412494     2.67101059
     11      C    -2.21589093     0.19303719    -1.74443719
     12      C    -2.38002608    -0.26313038     0.03500102
     13      C    -3.47764545     0.68278266     0.52614957
     14      C    -2.84895557    -1.71105469     0.10095243
     15      H    -3.10910114    -1.99068820     1.12616637
     16      H    -3.13375010     0.03333647    -2.32296363
     17      H    -1.27279764    -0.31521495    -2.48656603
     18      H    -1.98229558     1.25870733    -1.73703063
     19      H    -4.36804922     0.57244919    -0.10161952
     20      H    -3.16844390     1.73221209     0.48497202
     21      H    -3.77284292     0.45804731     1.55495054
     22      H    -3.75360009    -1.83439053    -0.50450015
     23      H    -2.10918139    -2.42544518    -0.26654977
     24      H     2.62446150    -1.29740380    -0.80500343
     25     Sn     2.22520114     1.47725401    -0.33848685
     26     Cl     4.06787976     2.78809943     0.23329738
     27     Cl     2.19665332     0.26823227     2.29163699
     28     Cl    -0.34099618    -0.54837541    -0.96880189
     29     Cl     2.00898327     2.28714805    -2.57255815
 
Total System Charge             0.00000
 
 *** GOStep11 ***

 Energy gradients wrt nuclear displacements
 ==========================================

     Atom      Cartesian (a.u./angstrom)
                 X         Y         Z
 ----------------------------------------
     1 H    -0.007453 -0.000701 -0.017686
     2 C     0.026116  0.016348 -0.015331
     3 C     0.134407  0.008353 -0.008310
     4 C     0.062571  0.021666 -0.051691
     5 O     0.031509  0.015907 -0.005894
     6 H    -0.002553  0.000850  0.003315
     7 H    -0.000288 -0.000732 -0.000481
     8 H    -0.000096  0.000464 -0.000609
     9 C    -0.005216  0.000518  0.001515
    10 H    -0.000064 -0.000110 -0.000766
    11 C    -0.018404  0.007059  0.008198
    12 C     0.014357 -0.017339  0.012847
    13 C    -0.008781 -0.003255 -0.003256
    14 C     0.000351 -0.000496 -0.000728
    15 H    -0.000019 -0.000118  0.000259
    16 H     0.009576  0.008961 -0.014472
    17 H     0.114480 -0.042297 -0.049376
    18 H     0.002667 -0.001435  0.001050
    19 H     0.000540 -0.000243 -0.000149
    20 H     0.000062  0.000238 -0.000288
    21 H     0.000888  0.000425 -0.000078
    22 H     0.000406  0.000273 -0.000060
    23 H     0.000027 -0.000490  0.000048
    24 H    -0.068065  0.002697  0.025753
    25 Sn   -0.068895 -0.069732  0.016937
    26 Cl    0.004705 -0.001373 -0.003490
    27 Cl   -0.028387 -0.022433 -0.015128
    28 Cl   -0.203410  0.078046  0.124457
    29 Cl    0.008968 -0.001052 -0.006585
 ----------------------------------------
 Mulliken charges used for AMS results%charges...
 Rebuilding optimization coordinates

 dE(predicted):    -0.46842E-01, dE(actual):    -0.51957E-01, Trust radius:    1.000000, all in a.u.
 
----------------------------------------------------------------------
Geometry Convergence after Step  11       (Hartree/Angstrom,Angstrom)
----------------------------------------------------------------------
current energy                               -4.72471704 Hartree
energy change                      -0.05195732     0.00029000    F
constrained gradient max            0.20340670     0.00100000    F
constrained gradient rms            0.03819979     0.00066667    F
gradient max                        0.20340670
gradient rms                        0.03819979
cart. step max                      0.16367131     0.01000000    F
cart. step rms                      0.05979461     0.00666667    F
 
 
--------
Geometry
--------
Formula: C8H15Cl4OSn
Atoms
  Index Symbol   x (angstrom)   y (angstrom)   z (angstrom)
      1      H     0.57403806    -1.98055591     0.79840122
      2      C    -0.84221843    -0.12206861     1.19537173
      3      C     0.64197490    -0.91417307     0.57007826
      4      C     1.81320165    -0.48077625    -0.07375752
      5      O     3.73294925    -0.75057642    -0.69657226
      6      H    -0.60859973     0.94184976     1.09738205
      7      H    -2.08525881     0.04816226     2.94375764
      8      H    -0.37233785    -0.25277540     3.26517054
      9      C    -1.20576818    -0.50296516     2.59958090
     10      H    -1.40864710    -1.57289439     2.70882709
     11      C    -2.24653986     0.16002058    -1.75924133
     12      C    -2.42254831    -0.28889135     0.00942226
     13      C    -3.43788425     0.72595130     0.50251113
     14      C    -2.94430074    -1.71027494     0.09175645
     15      H    -3.20873701    -1.97126774     1.12176710
     16      H    -3.19674516    -0.00862333    -2.27640747
     17      H    -1.34970663    -0.19726447    -2.56793553
     18      H    -2.02510496     1.22904867    -1.72634717
     19      H    -4.33701645     0.68936895    -0.12318708
     20      H    -3.05633265     1.75154142     0.47244134
     21      H    -3.75369009     0.51430431     1.52887452
     22      H    -3.85844366    -1.81092174    -0.50533473
     23      H    -2.23136357    -2.45192811    -0.27382643
     24      H     2.78813281    -1.35036295    -0.81335851
     25     Sn     2.27993882     1.53980268    -0.36621887
     26     Cl     4.03867686     2.92640567     0.24027139
     27     Cl     2.30489653     0.41112041     2.30837710
     28     Cl    -0.31346525    -0.68184952    -1.00309632
     29     Cl     1.94144651     2.31371552    -2.58200341
 
Total System Charge             0.00000
 
 *** GOStep12 ***

 Energy gradients wrt nuclear displacements
 ==========================================

     Atom      Cartesian (a.u./angstrom)
                 X         Y         Z
 ----------------------------------------
     1 H    -0.009922 -0.000445 -0.012647
     2 C     0.011276 -0.002713  0.013977
     3 C     0.144073  0.010359 -0.002329
     4 C     0.024510 -0.035386 -0.031724
     5 O     0.078539  0.039128  0.004823
     6 H     0.000271  0.000128 -0.000652
     7 H    -0.000167 -0.000513 -0.000642
     8 H     0.001515  0.000470  0.000101
     9 C    -0.007359  0.004277 -0.005892
    10 H     0.000492 -0.000196  0.000619
    11 C    -0.026168 -0.010427  0.005016
    12 C    -0.013039 -0.013921  0.019019
    13 C    -0.000953 -0.003901 -0.006443
    14 C     0.002645  0.001761 -0.002353
    15 H    -0.000528 -0.000043  0.000560
    16 H     0.005617  0.005702 -0.009172
    17 H     0.096586 -0.013253 -0.066636
    18 H     0.009209 -0.003712 -0.000907
    19 H     0.000331 -0.000322 -0.000067
    20 H    -0.000353  0.000589  0.000150
    21 H     0.000371  0.000247  0.000439
    22 H     0.000130 -0.000148  0.000164
    23 H    -0.000163 -0.000345  0.000134
    24 H    -0.094106 -0.042526  0.004371
    25 Sn   -0.039977  0.017422 -0.006049
    26 Cl   -0.000051 -0.004301 -0.000523
    27 Cl   -0.013928 -0.015839  0.002426
    28 Cl   -0.174938  0.070560  0.095626
    29 Cl    0.006089 -0.002655 -0.001389
 ----------------------------------------
 Mulliken charges used for AMS results%charges...

 dE(predicted):    -0.26710E-01, dE(actual):    -0.39039E-01, Trust radius:    1.000000, all in a.u.
 
----------------------------------------------------------------------
Geometry Convergence after Step  12       (Hartree/Angstrom,Angstrom)
----------------------------------------------------------------------
current energy                               -4.76375642 Hartree
energy change                      -0.03903938     0.00029000    F
constrained gradient max            0.17493632     0.00100000    F
constrained gradient rms            0.03487697     0.00066667    F
gradient max                        0.17493632
gradient rms                        0.03487697
cart. step max                      0.09818125     0.01000000    F
cart. step rms                      0.03511588     0.00666667    F
 
 
--------
Geometry
--------
Formula: C8H15Cl4OSn
Atoms
  Index Symbol   x (angstrom)   y (angstrom)   z (angstrom)
      1      H     0.59780768    -1.99965354     0.83903152
      2      C    -0.84775518    -0.16167945     1.17403841
      3      C     0.64297111    -0.94129149     0.56749732
      4      C     1.81223288    -0.50328767    -0.06028964
      5      O     3.78744393    -0.71503771    -0.62663527
      6      H    -0.61008938     0.90002623     1.06280648
      7      H    -2.07913993     0.02078274     2.92859253
      8      H    -0.36676899    -0.28458685     3.24229424
      9      C    -1.20386137    -0.53510119     2.58090536
     10      H    -1.41015735    -1.60388498     2.69700124
     11      C    -2.24336451     0.14428639    -1.74412563
     12      C    -2.42478140    -0.30010563    -0.00963877
     13      C    -3.39114228     0.75325397     0.49632469
     14      C    -2.98947706    -1.70297147     0.08571711
     15      H    -3.25178142    -1.95104351     1.11941111
     16      H    -3.21580522    -0.02705565    -2.21711553
     17      H    -1.37679113    -0.14550094    -2.58817949
     18      H    -2.03762849     1.21699653    -1.69153332
     19      H    -4.29488347     0.76424568    -0.12436604
     20      H    -2.96438759     1.76080080     0.47365639
     21      H    -3.71331021     0.54624403     1.52171593
     22      H    -3.91210934    -1.77993103    -0.50243965
     23      H    -2.30158077    -2.46629356    -0.28289760
     24      H     2.86766426    -1.35465092    -0.78880878
     25     Sn     2.27119271     1.55488454    -0.38115765
     26     Cl     3.97216145     3.00327928     0.23784865
     27     Cl     2.30246180     0.49222542     2.30745294
     28     Cl    -0.29737665    -0.78003076    -1.03416286
     29     Cl     1.88880262     2.29820290    -2.59623961
 
Total System Charge             0.00000
 
 *** GOStep13 ***

 Energy gradients wrt nuclear displacements
 ==========================================

     Atom      Cartesian (a.u./angstrom)
                 X         Y         Z
 ----------------------------------------
     1 H    -0.009594 -0.001042 -0.010855
     2 C     0.007985 -0.008703  0.023333
     3 C     0.151864  0.018146 -0.005112
     4 C     0.007361 -0.052861 -0.021238
     5 O     0.088347  0.046537  0.010577
     6 H     0.000645 -0.000486 -0.003354
     7 H    -0.000383 -0.000077 -0.000534
     8 H     0.001614  0.000446  0.000374
     9 C    -0.006978  0.003940 -0.006962
    10 H     0.000587 -0.000167  0.000945
    11 C    -0.018725 -0.020459  0.002765
    12 C    -0.025762 -0.013544  0.016413
    13 C     0.002768 -0.003098 -0.007304
    14 C     0.003040  0.002228 -0.002840
    15 H    -0.000444  0.000109  0.000743
    16 H     0.002415  0.003196 -0.003833
    17 H     0.087994 -0.000871 -0.071202
    18 H     0.010143 -0.003747  0.000363
    19 H     0.000129 -0.000396 -0.000116
    20 H    -0.000280  0.000490  0.000161
    21 H     0.000323  0.000037  0.000871
    22 H    -0.000075 -0.000203  0.000142
    23 H    -0.000210 -0.000115  0.000232
    24 H    -0.098541 -0.053800 -0.002645
    25 Sn   -0.033912  0.036054 -0.013863
    26 Cl   -0.001151 -0.005009  0.000881
    27 Cl   -0.009535 -0.013337  0.007306
    28 Cl   -0.164791  0.069833  0.084262
    29 Cl    0.005167 -0.003100  0.000489
 ----------------------------------------
 Mulliken charges used for AMS results%charges...

 dE(predicted):    -0.88490E-02, dE(actual):    -0.16717E-01, Trust radius:    1.000000, all in a.u.
 
----------------------------------------------------------------------
Geometry Convergence after Step  13       (Hartree/Angstrom,Angstrom)
----------------------------------------------------------------------
current energy                               -4.78047301 Hartree
energy change                      -0.01671659     0.00029000    F
constrained gradient max            0.16478978     0.00100000    F
constrained gradient rms            0.03515918     0.00066667    F
gradient max                        0.16478978
gradient rms                        0.03515918
cart. step max                      0.20161096     0.01000000    F
cart. step rms                      0.06558526     0.00666667    F
 
 
--------
Geometry
--------
Formula: C8H15Cl4OSn
Atoms
  Index Symbol   x (angstrom)   y (angstrom)   z (angstrom)
      1      H     0.60784984    -2.03405231     0.90497168
      2      C    -0.84954417    -0.22090145     1.09829564
      3      C     0.61892765    -0.99904391     0.54467838
      4      C     1.78237091    -0.55280764    -0.03735745
      5      O     3.83725974    -0.65409355    -0.47438251
      6      H    -0.59882601     0.83507555     0.96332489
      7      H    -2.06491739    -0.01678698     2.86853218
      8      H    -0.35719306    -0.33239179     3.17288298
      9      C    -1.19672899    -0.58030578     2.51531178
     10      H    -1.41109277    -1.64696142     2.63703906
     11      C    -2.21723691     0.13527254    -1.67366663
     12      C    -2.39913277    -0.31253993    -0.04068102
     13      C    -3.30285312     0.79048556     0.48686157
     14      C    -3.03075067    -1.68596175     0.08360464
     15      H    -3.28397255    -1.91205385     1.12366884
     16      H    -3.22743138    -0.02306587    -2.06797132
     17      H    -1.41895912    -0.01884452    -2.57923989
     18      H    -2.03517146     1.21258404    -1.57717641
     19      H    -4.21386159     0.86075771    -0.12001933
     20      H    -2.81903582     1.77121645     0.46479389
     21      H    -3.62617703     0.59417885     1.51331102
     22      H    -3.96729208    -1.72484470    -0.48683204
     23      H    -2.38543597    -2.48284677    -0.29083631
     24      H     2.98502522    -1.34873295    -0.71428067
     25     Sn     2.22281253     1.54818419    -0.40505773
     26     Cl     3.80793851     3.11898565     0.22816316
     27     Cl     2.23159003     0.62852012     2.28837401
     28     Cl    -0.27345886    -0.98164173    -1.11209244
     29     Cl     1.79584399     2.23573843    -2.62751589
 
Total System Charge             0.00000
 
 *** GOStep14 ***

 Energy gradients wrt nuclear displacements
 ==========================================

     Atom      Cartesian (a.u./angstrom)
                 X         Y         Z
 ----------------------------------------
     1 H    -0.008075 -0.002250 -0.006892
     2 C     0.010740 -0.015004  0.031944
     3 C     0.175969  0.036053 -0.016259
     4 C    -0.029052 -0.080237  0.002367
     5 O     0.093594  0.054141  0.020104
     6 H    -0.000043 -0.001835 -0.008962
     7 H    -0.001108  0.000921 -0.000109
     8 H     0.000895  0.000552  0.000375
     9 C    -0.006447  0.000765 -0.006737
    10 H     0.000548 -0.000193  0.001088
    11 C     0.002970 -0.045072  0.008711
    12 C    -0.047734 -0.011176  0.000299
    13 C     0.008288 -0.000474 -0.011952
    14 C     0.003869  0.002875 -0.001455
    15 H    -0.000081  0.000154  0.000889
    16 H    -0.002633 -0.002626  0.008784
    17 H     0.070911  0.023235 -0.073819
    18 H     0.011692 -0.004632  0.003668
    19 H    -0.000965 -0.000124 -0.000200
    20 H    -0.000164  0.000163 -0.000347
    21 H     0.000641 -0.000395  0.001104
    22 H    -0.000478  0.000089  0.000039
    23 H     0.000174  0.000297  0.000270
    24 H    -0.098688 -0.064354 -0.011449
    25 Sn   -0.030852  0.052522 -0.023497
    26 Cl   -0.001475 -0.005058  0.003228
    27 Cl   -0.004321 -0.008979  0.012627
    28 Cl   -0.152309  0.073779  0.063893
    29 Cl    0.004134 -0.003135  0.002289
 ----------------------------------------
 Mulliken charges used for AMS results%charges...

 dE(predicted):    -0.29546E-01, dE(actual):    -0.32132E-01, Trust radius:    1.000000, all in a.u.
 
----------------------------------------------------------------------
Geometry Convergence after Step  14       (Hartree/Angstrom,Angstrom)
----------------------------------------------------------------------
current energy                               -4.81260549 Hartree
energy change                      -0.03213248     0.00029000    F
constrained gradient max            0.17596794     0.00100000    F
constrained gradient rms            0.03728353     0.00066667    F
gradient max                        0.17596794
gradient rms                        0.03728353
cart. step max                      0.20961559     0.01000000    F
cart. step rms                      0.06995283     0.00666667    F
 
 
--------
Geometry
--------
Formula: C8H15Cl4OSn
Atoms
  Index Symbol   x (angstrom)   y (angstrom)   z (angstrom)
      1      H     0.55903507    -2.06241874     0.96224073
      2      C    -0.84719952    -0.26518128     0.99464515
      3      C     0.55735990    -1.06149013     0.50876958
      4      C     1.72335207    -0.60700193    -0.01881217
      5      O     3.82629036    -0.59613552    -0.32003243
      6      H    -0.57439037     0.78319704     0.84166378
      7      H    -2.04842313    -0.03296639     2.78616209
      8      H    -0.35063175    -0.37104003     3.08388638
      9      C    -1.19095906    -0.60794748     2.42725893
     10      H    -1.42067634    -1.67109875     2.54870025
     11      C    -2.16180186     0.13719155    -1.57388703
     12      C    -2.33937162    -0.31462733    -0.06605851
     13      C    -3.21303242     0.81399566     0.49221626
     14      C    -3.02577746    -1.66559322     0.08518258
     15      H    -3.26616407    -1.87570893     1.12980164
     16      H    -3.19851765     0.01264554    -1.91453686
     17      H    -1.43280336     0.12158265    -2.51273998
     18      H    -1.99613091     1.21789461    -1.43739411
     19      H    -4.13033866     0.91955171    -0.09947660
     20      H    -2.69914845     1.77845918     0.47191113
     21      H    -3.53106093     0.61799156     1.51905087
     22      H    -3.97418733    -1.67067006    -0.46680059
     23      H    -2.41953912    -2.48885064    -0.29745601
     24      H     3.06067139    -1.32482054    -0.61786422
     25     Sn     2.14534867     1.50775848    -0.42521830
     26     Cl     3.60671205     3.20513552     0.20260140
     27     Cl     2.10665356     0.74766676     2.24273222
     28     Cl    -0.25980639    -1.19125732    -1.19797276
     29     Cl     1.70508399     2.14686023    -2.66186933
 
Total System Charge             0.00000
 
 *** GOStep15 ***

 Energy gradients wrt nuclear displacements
 ==========================================

     Atom      Cartesian (a.u./angstrom)
                 X         Y         Z
 ----------------------------------------
     1 H    -0.007599 -0.002479 -0.000934
     2 C     0.020684 -0.019416  0.025232
     3 C     0.196517  0.052125 -0.022955
     4 C    -0.060475 -0.099364  0.024085
     5 O     0.086597  0.052039  0.024859
     6 H    -0.001437 -0.003599 -0.014396
     7 H    -0.002065  0.001953  0.000139
     8 H    -0.000744  0.000753 -0.000087
     9 C    -0.006157 -0.004088 -0.005516
    10 H     0.000290 -0.000188  0.000804
    11 C     0.027708 -0.085976  0.041989
    12 C    -0.061210  0.003716 -0.043139
    13 C     0.012229  0.003344 -0.017488
    14 C     0.005308  0.003414  0.001884
    15 H     0.000402  0.000180  0.000513
    16 H    -0.006017 -0.008711  0.021843
    17 H     0.051624  0.047564 -0.067479
    18 H     0.014374 -0.007124  0.006890
    19 H    -0.002349  0.000373  0.000256
    20 H    -0.000153 -0.000249 -0.001007
    21 H     0.000993 -0.000375  0.000777
    22 H    -0.000855  0.000376  0.000121
    23 H     0.000871  0.000584  0.000163
    24 H    -0.090091 -0.063081 -0.013790
    25 Sn   -0.034649  0.055425 -0.028278
    26 Cl   -0.000474 -0.003600  0.005382
    27 Cl   -0.001910 -0.005407  0.013928
    28 Cl   -0.144990  0.083983  0.044165
    29 Cl    0.003579 -0.002171  0.002038
 ----------------------------------------
 Mulliken charges used for AMS results%charges...

 dE(predicted):    -0.33547E-01, dE(actual):    -0.30494E-01, Trust radius:    1.000000, all in a.u.
 
----------------------------------------------------------------------
Geometry Convergence after Step  15       (Hartree/Angstrom,Angstrom)
----------------------------------------------------------------------
current energy                               -4.84309930 Hartree
energy change                      -0.03049381     0.00029000    F
constrained gradient max            0.19651867     0.00100000    F
constrained gradient rms            0.04050490     0.00066667    F
gradient max                        0.19651867
gradient rms                        0.04050490
cart. step max                      0.17194794     0.01000000    F
cart. step rms                      0.06523139     0.00666667    F
 
 
--------
Geometry
--------
Formula: C8H15Cl4OSn
Atoms
  Index Symbol   x (angstrom)   y (angstrom)   z (angstrom)
      1      H     0.39730587    -2.07443926     1.02421305
      2      C    -0.85701452    -0.27585868     0.89537957
      3      C     0.42324792    -1.11966209     0.47347563
      4      C     1.65985062    -0.66017783    -0.01606482
      5      O     3.77421178    -0.55991800    -0.21025389
      6      H    -0.55059613     0.76561939     0.74888408
      7      H    -2.04268368    -0.01895914     2.72653969
      8      H    -0.36398200    -0.39804380     3.01330633
      9      C    -1.20323623    -0.60695779     2.35346695
     10      H    -1.45756396    -1.66519098     2.45832218
     11      C    -2.07326466     0.16249379    -1.49231414
     12      C    -2.24925669    -0.30391857    -0.07613572
     13      C    -3.16370306     0.80491815     0.53241573
     14      C    -2.96607092    -1.65537690     0.08685557
     15      H    -3.19879725    -1.86470761     1.12993194
     16      H    -3.11224369     0.08065331    -1.85534736
     17      H    -1.37911143     0.27773705    -2.39097444
     18      H    -1.95035574     1.25832379    -1.35066308
     19      H    -4.08278880     0.90795332    -0.05401555
     20      H    -2.66608703     1.77683440     0.53526334
     21      H    -3.47919530     0.57790422     1.55115644
     22      H    -3.91919724    -1.63896133    -0.45575798
     23      H    -2.38207640    -2.49003108    -0.30552840
     24      H     3.10891184    -1.27715171    -0.53568425
     25     Sn     2.09630996     1.42110472    -0.44086925
     26     Cl     3.45379917     3.24256497     0.12538474
     27     Cl     2.03366474     0.84697356     2.13825435
     28     Cl    -0.26897100    -1.36320526    -1.23827012
     29     Cl     1.62944053     2.05260154    -2.68426651
 
Total System Charge             0.00000
 
 *** GOStep16 ***

 Energy gradients wrt nuclear displacements
 ==========================================

     Atom      Cartesian (a.u./angstrom)
                 X         Y         Z
 ----------------------------------------
     1 H    -0.013436 -0.002342  0.009210
     2 C     0.032462 -0.030320 -0.012217
     3 C     0.128446  0.039428  0.003011
     4 C    -0.004371 -0.072227  0.008513
     5 O     0.053704  0.016913  0.013897
     6 H    -0.001804 -0.004294 -0.017294
     7 H    -0.002196  0.001783  0.000405
     8 H    -0.006123  0.000447 -0.000870
     9 C    -0.005698 -0.009518  0.000408
    10 H    -0.000457 -0.000115 -0.000879
    11 C     0.061414 -0.142814  0.081509
    12 C    -0.036939  0.020378 -0.099606
    13 C     0.006926  0.009762 -0.009969
    14 C     0.005743  0.001246  0.012525
    15 H     0.000980 -0.000576 -0.001316
    16 H    -0.010802 -0.006594  0.022549
    17 H     0.021096  0.068925 -0.040102
    18 H     0.019702 -0.007008 -0.002251
    19 H    -0.003122  0.000858  0.002731
    20 H    -0.000914 -0.001262 -0.001042
    21 H     0.000896  0.000917  0.000076
    22 H    -0.001191  0.000518  0.000445
    23 H     0.002353  0.001060 -0.000385
    24 H    -0.061501 -0.027873  0.002129
    25 Sn   -0.047105  0.042136 -0.024575
    26 Cl    0.001662  0.000022  0.007604
    27 Cl    0.001459 -0.003049  0.008125
    28 Cl   -0.144874  0.102909  0.038636
    29 Cl    0.003689  0.000690 -0.001267
 ----------------------------------------
 Mulliken charges used for AMS results%charges...
 Rebuilding optimization coordinates

 dE(predicted):    -0.33915E-01, dE(actual):    -0.34451E-01, Trust radius:    1.000000, all in a.u.
 
----------------------------------------------------------------------
Geometry Convergence after Step  16       (Hartree/Angstrom,Angstrom)
----------------------------------------------------------------------
current energy                               -4.87754994 Hartree
energy change                      -0.03445064     0.00029000    F
constrained gradient max            0.14486941     0.00100000    F
constrained gradient rms            0.03758546     0.00066667    F
gradient max                        0.14486941
gradient rms                        0.03758546
cart. step max                      0.20806695     0.01000000    F
cart. step rms                      0.08666100     0.00666667    F
 
 
--------
Geometry
--------
Formula: C8H15Cl4OSn
Atoms
  Index Symbol   x (angstrom)   y (angstrom)   z (angstrom)
      1      H     0.19251120    -2.06144350     1.09872849
      2      C    -0.88503040    -0.28026796     0.81945414
      3      C     0.23682415    -1.17637362     0.44369134
      4      C     1.56451688    -0.71675792     0.00759894
      5      O     3.69046048    -0.50568992    -0.08272901
      6      H    -0.53439214     0.75305685     0.69317972
      7      H    -1.92528313     0.02414316     2.76967172
      8      H    -0.24774732    -0.39840386     2.92021141
      9      C    -1.13941288    -0.58201063     2.32771269
     10      H    -1.40915699    -1.63320955     2.44950138
     11      C    -1.95916583     0.22398011    -1.44397544
     12      C    -2.15736290    -0.30761949    -0.05700834
     13      C    -3.14369407     0.74953633     0.60754295
     14      C    -2.95396680    -1.64600092     0.02458243
     15      H    -3.22976625    -1.88851789     1.04673503
     16      H    -2.95311178     0.21881097    -1.93194007
     17      H    -1.20005094     0.37746154    -2.20424237
     18      H    -1.90361563     1.33959061    -1.29115314
     19      H    -4.02992522     0.86471911    -0.02155753
     20      H    -2.66785772     1.72842033     0.69243209
     21      H    -3.50313561     0.44923651     1.58933184
     22      H    -3.88630960    -1.54856462    -0.54299256
     23      H    -2.41492028    -2.49804135    -0.39261200
     24      H     3.15070613    -1.20240356    -0.42636899
     25     Sn     2.05125134     1.31830795    -0.45160124
     26     Cl     3.30236041     3.27345606    -0.03847205
     27     Cl     1.97568080     0.97986666     1.99661742
     28     Cl    -0.31393869    -1.57127221    -1.21942112
     29     Cl     1.50407946     1.91911297    -2.69621366
 
Total System Charge             0.00000
 
 *** GOStep17 ***

 Energy gradients wrt nuclear displacements
 ==========================================

     Atom      Cartesian (a.u./angstrom)
                 X         Y         Z
 ----------------------------------------
     1 H    -0.017701  0.004979  0.018167
     2 C     0.028744 -0.058892 -0.081022
     3 C     0.010393  0.048829  0.016258
     4 C     0.052510 -0.036749  0.005316
     5 O    -0.015855 -0.071752 -0.024053
     6 H    -0.000276 -0.001944 -0.013284
     7 H     0.002395 -0.002463  0.000541
     8 H    -0.007700  0.000627  0.001144
     9 C     0.004453 -0.011904  0.005139
    10 H     0.002410  0.001028 -0.001973
    11 C     0.084000 -0.173099  0.050647
    12 C     0.053169  0.006458 -0.070059
    13 C    -0.003116  0.008970  0.010039
    14 C    -0.002927 -0.001103  0.016589
    15 H     0.000255 -0.000175 -0.006444
    16 H    -0.014792  0.013960  0.008750
    17 H    -0.014415  0.065877  0.000093
    18 H     0.018020  0.003520 -0.014170
    19 H    -0.001605 -0.000697  0.003377
    20 H    -0.000925 -0.001914 -0.001442
    21 H    -0.000967  0.003635 -0.002237
    22 H    -0.001957 -0.000822 -0.000202
    23 H     0.003689  0.001546 -0.002032
    24 H     0.002141  0.058546  0.046228
    25 Sn   -0.061432  0.021596 -0.003940
    26 Cl    0.000693  0.001859  0.008036
    27 Cl    0.007650 -0.001151 -0.016484
    28 Cl   -0.130506  0.117017  0.049494
    29 Cl    0.003650  0.004218 -0.002476
 ----------------------------------------
 Mulliken charges used for AMS results%charges...

 dE(predicted):    -0.29308E-01, dE(actual):    -0.29925E-01, Trust radius:    1.000000, all in a.u.
 
----------------------------------------------------------------------
Geometry Convergence after Step  17       (Hartree/Angstrom,Angstrom)
----------------------------------------------------------------------
current energy                               -4.90747488 Hartree
energy change                      -0.02992494     0.00029000    F
constrained gradient max            0.17310299     0.00100000    F
constrained gradient rms            0.03741758     0.00066667    F
gradient max                        0.17310299
gradient rms                        0.03741758
cart. step max                      0.15683819     0.01000000    F
cart. step rms                      0.04520308     0.00666667    F
 
 
--------
Geometry
--------
Formula: C8H15Cl4OSn
Atoms
  Index Symbol   x (angstrom)   y (angstrom)   z (angstrom)
      1      H     0.34934940    -2.12320686     1.05215983
      2      C    -0.87236200    -0.30321940     0.88153421
      3      C     0.34131813    -1.19948836     0.45900493
      4      C     1.60862392    -0.71340396     0.00657806
      5      O     3.76442623    -0.47526466    -0.13282989
      6      H    -0.52844787     0.73175025     0.75642495
      7      H    -1.92150577     0.06320850     2.78863511
      8      H    -0.24565521    -0.41773257     2.95832862
      9      C    -1.15011713    -0.58293429     2.37123076
     10      H    -1.46168393    -1.62118159     2.51877096
     11      C    -2.01211367     0.20777387    -1.49256531
     12      C    -2.21075834    -0.31282729    -0.05832210
     13      C    -3.14654742     0.77189240     0.58041480
     14      C    -3.01492683    -1.63371979     0.02141840
     15      H    -3.29344701    -1.86289216     1.05112265
     16      H    -2.99781036     0.16014418    -1.97734147
     17      H    -1.21199243     0.26860078    -2.28363816
     18      H    -1.95508867     1.31267355    -1.31911533
     19      H    -4.01548344     0.93163042    -0.06512483
     20      H    -2.63517897     1.73188613     0.68875667
     21      H    -3.53132346     0.46988650     1.55495244
     22      H    -3.94616403    -1.52515946    -0.54523292
     23      H    -2.49232161    -2.49997152    -0.38596186
     24      H     3.20005021    -1.21854499    -0.50007115
     25     Sn     2.06565773     1.38625724    -0.44025946
     26     Cl     3.33345798     3.30988574    -0.00006747
     27     Cl     2.00601678     0.93578459     2.08148515
     28     Cl    -0.27908908    -1.56245262    -1.21847538
     29     Cl     1.46366353     1.97374755    -2.66510815
 
Total System Charge             0.00000
 
 *** GOStep18 ***

 Energy gradients wrt nuclear displacements
 ==========================================

     Atom      Cartesian (a.u./angstrom)
                 X         Y         Z
 ----------------------------------------
     1 H    -0.007489  0.001407  0.005675
     2 C     0.023194 -0.028741 -0.019969
[...]
    27 Cl    0.000236  0.001168  0.000456
    28 Cl   -0.004248  0.003241  0.004369
    29 Cl    0.001526 -0.001021  0.001264
 ----------------------------------------
 Mulliken charges used for AMS results%charges...

 dE(predicted):    -0.38730E-03, dE(actual):    -0.30194E-03, Trust radius:    1.000000, all in a.u.
 
----------------------------------------------------------------------
Geometry Convergence after Step  91       (Hartree/Angstrom,Angstrom)
----------------------------------------------------------------------
current energy                               -5.18742980 Hartree
energy change                      -0.00030194     0.00029000    F
constrained gradient max            0.01081950     0.00100000    F
constrained gradient rms            0.00283130     0.00066667    F
gradient max                        0.01081950
gradient rms                        0.00283130
cart. step max                      0.06174171     0.01000000    F
cart. step rms                      0.01663881     0.00666667    F
 
 
--------
Geometry
--------
Formula: C8H15Cl4OSn
Atoms
  Index Symbol   x (angstrom)   y (angstrom)   z (angstrom)
      1      H    -0.89194120    -2.66985549     0.83094041
      2      C    -1.39637939    -0.51152344     1.15949980
      3      C    -0.47975584    -1.65685232     0.76502097
      4      C     0.77311522    -1.53454985     0.37382212
      5      O     3.61493298     0.28438967    -1.91247679
      6      H    -0.79282295     0.40257153     1.18839519
      7      H    -2.44888041     0.04764153     3.00605931
      8      H    -1.01869131    -0.95064504     3.25340811
      9      C    -1.87915250    -0.79013123     2.59751922
     10      H    -2.50553993    -1.68584366     2.65609422
     11      C    -1.91389584     0.35994945    -1.17890696
     12      C    -2.54407073    -0.22278595     0.10847384
     13      C    -3.51228210     0.83122581     0.67405422
     14      C    -3.34349290    -1.49601864    -0.25485546
     15      H    -3.72160969    -2.01094830     0.63283031
     16      H    -1.40547294     1.30862375    -0.97779365
     17      H    -2.68103701     0.54625788    -1.93890910
     18      H    -1.17648971    -0.32392100    -1.60725186
     19      H    -4.19598196     1.17536353    -0.10931833
     20      H    -2.98081584     1.71402643     1.04847312
     21      H    -4.12953562     0.44294337     1.48944878
     22      H    -4.20732846    -1.23088567    -0.87114860
     23      H    -2.73795344    -2.20574801    -0.82556573
     24      H     3.08452550    -0.45029840    -1.58550941
     25     Sn     3.82090663     1.86412471    -0.77995525
     26     Cl     5.49217671     3.07171469    -1.82085849
     27     Cl     4.49741228     1.37564702     1.39687792
     28     Cl     2.00822036    -2.62865251     0.04029613
     29     Cl     1.88238677     3.14730231    -0.67195996
 
Total System Charge             0.00000
 
 *** GOStep92 ***

 Energy gradients wrt nuclear displacements
 ==========================================

     Atom      Cartesian (a.u./angstrom)
                 X         Y         Z
 ----------------------------------------
     1 H     0.000376 -0.000291 -0.001706
     2 C     0.001134  0.002700  0.001528
     3 C     0.002663 -0.003878  0.006411
     4 C     0.001704 -0.000749 -0.007095
     5 O    -0.007128 -0.002090  0.012577
     6 H    -0.001631  0.000824 -0.000828
     7 H    -0.000530  0.000119  0.000455
     8 H    -0.000535  0.000093  0.000018
     9 C     0.001225 -0.001228 -0.001358
    10 H    -0.000102 -0.000018 -0.000066
    11 C    -0.001869  0.003689 -0.003045
    12 C    -0.000259  0.002901  0.004861
    13 C     0.003941 -0.004501 -0.003195
    14 C    -0.003611 -0.003240 -0.002047
    15 H     0.001360 -0.000047 -0.000113
    16 H     0.000779 -0.000246 -0.000079
    17 H    -0.000467  0.000555 -0.001661
    18 H     0.000544  0.000094  0.001253
    19 H    -0.000418  0.000855  0.000202
    20 H    -0.000306  0.000743  0.000682
    21 H    -0.000714  0.000277  0.000500
    22 H     0.000523  0.000428  0.001119
    23 H     0.000187  0.000289  0.000110
    24 H     0.004778 -0.001175 -0.011074
    25 Sn    0.000342  0.002465 -0.004525
    26 Cl   -0.001803 -0.002348  0.002170
    27 Cl    0.001319  0.001312  0.000891
    28 Cl   -0.002435  0.002540  0.003618
    29 Cl    0.000936 -0.000074  0.000394
 ----------------------------------------
 Mulliken charges used for AMS results%charges...

 dE(predicted):    -0.16858E-03, dE(actual):    -0.24525E-03, Trust radius:    1.000000, all in a.u.
 
----------------------------------------------------------------------
Geometry Convergence after Step  92       (Hartree/Angstrom,Angstrom)
----------------------------------------------------------------------
current energy                               -5.18767505 Hartree
energy change                      -0.00024525     0.00029000    T
constrained gradient max            0.01257628     0.00100000    F
constrained gradient rms            0.00286979     0.00066667    F
gradient max                        0.01257628
gradient rms                        0.00286979
cart. step max                      0.10787349     0.01000000    F
cart. step rms                      0.02466141     0.00666667    F
 
 
--------
Geometry
--------
Formula: C8H15Cl4OSn
Atoms
  Index Symbol   x (angstrom)   y (angstrom)   z (angstrom)
      1      H    -0.90115997    -2.67100403     0.84257802
      2      C    -1.41480460    -0.51719662     1.16978380
      3      C    -0.49277114    -1.65681996     0.77021182
      4      C     0.75926086    -1.52428858     0.38513250
      5      O     3.58752267     0.32597247    -1.93820417
      6      H    -0.81419550     0.39859966     1.20498084
      7      H    -2.47282317     0.03921683     3.01200426
      8      H    -1.04323641    -0.95850828     3.26354486
      9      C    -1.90187445    -0.79847705     2.60478347
     10      H    -2.52785892    -1.69447023     2.66179361
     11      C    -1.91264984     0.34629267    -1.17097672
     12      C    -2.55736671    -0.23058750     0.11073347
     13      C    -3.53064436     0.82408156     0.66686728
     14      C    -3.35340707    -1.50566967    -0.25532673
     15      H    -3.73642425    -2.01948322     0.63112031
     16      H    -1.41004037     1.29775585    -0.96763102
     17      H    -2.67331171     0.52368701    -1.93907723
     18      H    -1.16629133    -0.33550894    -1.58602564
     19      H    -4.21376906     1.15919069    -0.12085369
     20      H    -3.00293467     1.71114862     1.03587819
     21      H    -4.14715985     0.43787680     1.48362698
     22      H    -4.21468666    -1.24207328    -0.87610650
     23      H    -2.74475743    -2.21578112    -0.82184291
     24      H     3.08068082    -0.40594178    -1.57485402
     25     Sn     3.87449201     1.88531370    -0.79371856
     26     Cl     5.55548975     3.06010834    -1.85406713
     27     Cl     4.60528578     1.35060732     1.35651895
     28     Cl     2.00525711    -2.60391464     0.03868655
     29     Cl     1.97472516     3.22299557    -0.65285652
 
Total System Charge             0.00000
 
 *** GOStep93 ***

 Energy gradients wrt nuclear displacements
 ==========================================

     Atom      Cartesian (a.u./angstrom)
                 X         Y         Z
 ----------------------------------------
     1 H    -0.000195 -0.000069 -0.000719
     2 C     0.001624  0.002163  0.002754
     3 C     0.005133 -0.003265  0.002558
     4 C    -0.001713 -0.000177 -0.005207
     5 O    -0.007787 -0.004804  0.012654
     6 H    -0.001513  0.000570 -0.000295
     7 H    -0.000406  0.000216  0.000485
     8 H    -0.000381  0.000106  0.000128
     9 C     0.001096 -0.000841 -0.001735
    10 H     0.000006  0.000106  0.000034
    11 C    -0.000649  0.002801 -0.003043
    12 C    -0.001838  0.003787  0.003352
    13 C     0.003177 -0.003757 -0.002587
    14 C    -0.003226 -0.003614 -0.002419
    15 H     0.001191 -0.000097  0.000001
    16 H     0.000994 -0.000598  0.000227
    17 H    -0.000831 -0.000093 -0.000813
    18 H     0.000867  0.000542  0.001428
    19 H    -0.000331  0.000678  0.000119
    20 H    -0.000329  0.000597  0.000518
    21 H    -0.000486  0.000165  0.000463
    22 H     0.000318  0.000453  0.001165
    23 H     0.000026  0.000390  0.000167
    24 H     0.005933  0.002518 -0.011536
    25 Sn   -0.000298  0.001721 -0.004478
    26 Cl   -0.002383 -0.002698  0.002787
    27 Cl    0.002612  0.001002  0.001496
    28 Cl   -0.001390  0.001746  0.003081
    29 Cl    0.000779  0.000450 -0.000583
 ----------------------------------------
 Mulliken charges used for AMS results%charges...

 dE(predicted):    -0.21154E-03, dE(actual):    -0.32748E-03, Trust radius:    1.000000, all in a.u.
 
----------------------------------------------------------------------
Geometry Convergence after Step  93       (Hartree/Angstrom,Angstrom)
----------------------------------------------------------------------
current energy                               -5.18800253 Hartree
energy change                      -0.00032748     0.00029000    F
constrained gradient max            0.01265902     0.00100000    F
constrained gradient rms            0.00284244     0.00066667    F
gradient max                        0.01265902
gradient rms                        0.00284244
cart. step max                      0.16841470     0.01000000    F
cart. step rms                      0.04347763     0.00666667    F
 
 
--------
Geometry
--------
Formula: C8H15Cl4OSn
Atoms
  Index Symbol   x (angstrom)   y (angstrom)   z (angstrom)
      1      H    -0.91596627    -2.68008487     0.88033917
      2      C    -1.44784501    -0.53349307     1.19633248
      3      C    -0.51575484    -1.66358695     0.79415521
      4      C     0.73729809    -1.51681245     0.41867893
      5      O     3.52452806     0.40042766    -1.98184162
      6      H    -0.84663400     0.38163473     1.24847178
      7      H    -2.52486524     0.02456896     3.02274235
      8      H    -1.10645192    -0.98496873     3.29109153
      9      C    -1.95628679    -0.81760787     2.62202640
     10      H    -2.58962333    -1.70901469     2.67026705
     11      C    -1.89267713     0.33453957    -1.14613230
     12      C    -2.56977557    -0.24340133     0.11518729
     13      C    -3.55679179     0.81097469     0.65512217
     14      C    -3.35586953    -1.51715810    -0.26898730
     15      H    -3.77320944    -2.02436465     0.60631792
     16      H    -1.38842519     1.28169122    -0.92634186
     17      H    -2.64124364     0.51850389    -1.92366714
     18      H    -1.14303715    -0.34864692    -1.55222295
     19      H    -4.23134672     1.13441382    -0.14437582
     20      H    -3.03609805     1.70186721     1.02318330
     21      H    -4.17821654     0.42301720     1.46657793
     22      H    -4.19553192    -1.25590764    -0.92084505
     23      H    -2.73257906    -2.23329787    -0.81136417
     24      H     3.06938136    -0.33370479    -1.55519235
     25     Sn     3.95681325     1.92701138    -0.83387146
     26     Cl     5.63645286     3.04146508    -1.96355292
     27     Cl     4.77370048     1.32339672     1.26863669
     28     Cl     1.99033634    -2.57882642     0.04770848
     29     Cl     2.12026538     3.34048642    -0.61173966
 
Total System Charge             0.00000
 
 *** GOStep94 ***

 Energy gradients wrt nuclear displacements
 ==========================================

     Atom      Cartesian (a.u./angstrom)
                 X         Y         Z
 ----------------------------------------
     1 H    -0.001021  0.000309  0.001051
     2 C     0.000657  0.000098  0.004189
     3 C     0.005291 -0.002098 -0.002759
     4 C    -0.000918  0.000152 -0.003542
     5 O    -0.004842 -0.003174  0.008904
     6 H    -0.000455  0.000156  0.000343
     7 H    -0.000069  0.000254  0.000215
     8 H     0.000145  0.000065  0.000178
     9 C     0.000219  0.000347 -0.001763
    10 H     0.000065  0.000105  0.000249
    11 C     0.001406  0.001702 -0.001710
    12 C    -0.002994  0.002701 -0.001105
    13 C     0.000600 -0.000962 -0.000380
    14 C    -0.000913 -0.002717 -0.001588
    15 H     0.000463 -0.000298  0.000190
    16 H     0.001442 -0.000581  0.000658
    17 H    -0.001440 -0.001122  0.000794
    18 H     0.001094  0.000735  0.001229
    19 H     0.000090  0.000077 -0.000114
    20 H    -0.000118  0.000079  0.000098
    21 H     0.000061 -0.000169  0.000168
    22 H    -0.000182  0.000283  0.000785
    23 H    -0.000184  0.000376 -0.000040
    24 H     0.003365  0.001671 -0.009008
    25 Sn   -0.001660  0.001718 -0.002654
    26 Cl   -0.001834 -0.002389  0.002358
    27 Cl    0.003609  0.000376  0.002193
    28 Cl   -0.001980  0.001738  0.002576
    29 Cl    0.000102  0.000570 -0.001515
 ----------------------------------------
 Mulliken charges used for AMS results%charges...

 dE(predicted):    -0.30792E-03, dE(actual):    -0.43966E-03, Trust radius:    1.000000, all in a.u.
 
----------------------------------------------------------------------
Geometry Convergence after Step  94       (Hartree/Angstrom,Angstrom)
----------------------------------------------------------------------
current energy                               -5.18844218 Hartree
energy change                      -0.00043966     0.00029000    F
constrained gradient max            0.00900399     0.00100000    F
constrained gradient rms            0.00213348     0.00066667    F
gradient max                        0.00900399
gradient rms                        0.00213348
cart. step max                      0.20872013     0.01000000    F
cart. step rms                      0.05331662     0.00666667    F
 
 
--------
Geometry
--------
Formula: C8H15Cl4OSn
Atoms
  Index Symbol   x (angstrom)   y (angstrom)   z (angstrom)
      1      H    -0.91802064    -2.67061633     0.90130289
      2      C    -1.49017735    -0.54004823     1.22250555
      3      C    -0.53266951    -1.64801899     0.81842791
      4      C     0.72527453    -1.48307277     0.46970412
      5      O     3.49767078     0.46078390    -2.02051546
      6      H    -0.90112424     0.38189452     1.29775050
      7      H    -2.59910296    -0.01184351     3.03646036
      8      H    -1.17605831    -1.01239592     3.31615322
      9      C    -2.01800609    -0.84556030     2.63664293
     10      H    -2.64424069    -1.74286383     2.66642292
     11      C    -1.90020997     0.34610267    -1.11372319
     12      C    -2.59612253    -0.25421066     0.12372029
     13      C    -3.61092773     0.78037480     0.65648999
     14      C    -3.35358825    -1.53392454    -0.28892636
     15      H    -3.79474286    -2.05042583     0.56951739
     16      H    -1.42601386     1.30443496    -0.87601921
     17      H    -2.63959726     0.51518204    -1.90269060
     18      H    -1.12849689    -0.31708418    -1.51086873
     19      H    -4.28081946     1.09221047    -0.15123922
     20      H    -3.11003644     1.67839724     1.03329424
     21      H    -4.23337917     0.37527735     1.45810776
     22      H    -4.17562610    -1.28093274    -0.96700589
     23      H    -2.70610145    -2.24035352    -0.81568530
     24      H     3.09623066    -0.27160955    -1.52949611
     25     Sn     4.08659706     1.95817401    -0.90033857
     26     Cl     5.77975606     2.98473610    -2.09547748
     27     Cl     4.94524735     1.30574041     1.17021386
     28     Cl     1.98584650    -2.53488657     0.08967007
     29     Cl     2.32898551     3.45766117    -0.60769380
 
Total System Charge             0.00000
 
 *** GOStep95 ***

 Energy gradients wrt nuclear displacements
 ==========================================

     Atom      Cartesian (a.u./angstrom)
                 X         Y         Z
 ----------------------------------------
     1 H    -0.001398  0.000680  0.002378
     2 C    -0.000887 -0.001380  0.004091
     3 C     0.007239 -0.000661 -0.006826
     4 C    -0.001516  0.000812 -0.001547
     5 O    -0.000487  0.003724  0.002193
     6 H     0.000431 -0.000152  0.000844
     7 H     0.000134  0.000210 -0.000033
     8 H     0.000492  0.000032  0.000156
     9 C    -0.000650  0.001137 -0.001302
    10 H     0.000025  0.000072  0.000344
    11 C     0.003716  0.000855  0.000129
    12 C    -0.003984  0.001745 -0.004705
    13 C    -0.001354  0.001041  0.001143
    14 C     0.000880 -0.001334 -0.000469
    15 H    -0.000215 -0.000409  0.000205
    16 H     0.000982 -0.000214  0.001015
    17 H    -0.001934 -0.002293  0.002177
    18 H     0.000723  0.000655  0.000738
    19 H     0.000264 -0.000325 -0.000176
    20 H     0.000028 -0.000302 -0.000240
    21 H     0.000429 -0.000339 -0.000097
    22 H    -0.000600  0.000062  0.000338
    23 H    -0.000244  0.000397 -0.000346
    24 H    -0.001149 -0.004090 -0.002818
    25 Sn   -0.000283  0.000545 -0.001788
    26 Cl   -0.001043 -0.001817  0.001959
    27 Cl    0.003318  0.000331  0.002062
    28 Cl   -0.002156  0.000640  0.001997
    29 Cl   -0.000762  0.000377 -0.001422
 ----------------------------------------
 Mulliken charges used for AMS results%charges...
 Rebuilding optimization coordinates

 dE(predicted):    -0.32543E-03, dE(actual):    -0.22778E-03, Trust radius:    1.000000, all in a.u.
 
----------------------------------------------------------------------
Geometry Convergence after Step  95       (Hartree/Angstrom,Angstrom)
----------------------------------------------------------------------
current energy                               -5.18866996 Hartree
energy change                      -0.00022778     0.00029000    T
constrained gradient max            0.00724459     0.00100000    F
constrained gradient rms            0.00186490     0.00066667    F
gradient max                        0.00724459
gradient rms                        0.00186490
cart. step max                      0.02346178     0.01000000    F
cart. step rms                      0.01105683     0.00666667    F
 
 
--------
Geometry
--------
Formula: C8H15Cl4OSn
Atoms
  Index Symbol   x (angstrom)   y (angstrom)   z (angstrom)
      1      H    -0.91306348    -2.68119298     0.92476467
      2      C    -1.49197989    -0.54770134     1.22819042
      3      C    -0.53438569    -1.65681377     0.83197143
      4      C     0.72496044    -1.49331431     0.48154276
      5      O     3.48591720     0.46910789    -2.03424678
      6      H    -0.89928508     0.37139612     1.30945622
      7      H    -2.60991484    -0.02111051     3.03808491
      8      H    -1.19349974    -1.02959180     3.32281988
      9      C    -2.03021839    -0.85576624     2.63875707
     10      H    -2.66076245    -1.75034206     2.66037365
     11      C    -1.88619322     0.34321333    -1.11028910
     12      C    -2.58866531    -0.25460566     0.12367581
     13      C    -3.59889765     0.78833375     0.65326783
     14      C    -3.35258766    -1.52727755    -0.29077674
     15      H    -3.81711275    -2.03006755     0.56331645
     16      H    -1.40644725     1.29841283    -0.87308016
     17      H    -2.62542304     0.52079853    -1.89714764
     18      H    -1.12254311    -0.32569481    -1.51389888
     19      H    -4.26503866     1.10312270    -0.15635885
     20      H    -3.09194768     1.68323259     1.02919258
     21      H    -4.22577753     0.38890144     1.45406357
     22      H    -4.15754810    -1.27268533    -0.98877905
     23      H    -2.70327138    -2.24702287    -0.79748604
     24      H     3.08997284    -0.26098212    -1.53944355
     25     Sn     4.07725247     1.96769752    -0.91520161
     26     Cl     5.77191419     3.00628756    -2.10385053
     27     Cl     4.92786959     1.29235007     1.15052445
     28     Cl     1.99271861    -2.53501925     0.10619997
     29     Cl     2.31450424     3.45945601    -0.60893867
 
Total System Charge             0.00000
 
 *** GOStep96 ***
