

 Parallel Execution: Process Information
 ==============================================================================
 Rank   Node Name                              NodeID   MyNodeRank  NodeMaster
    0   node115                                   0          0          0
    1   node115                                   0          1         -1
    2   node115                                   0          2         -1
    3   node115                                   0          3         -1
 ==============================================================================


May use up to 122928MB of RAM as shared memory on node 0

 *******************************************************************************
 *                                                                             *
 *  --------------------------------                                           *
 *   Amsterdam Modeling Suite (AMS)              2021.102                      *
 *  --------------------------------                                           *
 *                                               r95042 2021-06-07             *
 *                                                                             *
 *                                                                             *
 *                              =================                              *
 *                              |               |                              *
 *                              |     A M S     |                              *
 *                              |               |                              *
 *                              =================                              *
 *                                                                             *
 *                                                                             *
 *   Online information and documentation:  https://www.scm.com/support/       *
 *   E-mail:  support@scm.com   info@scm.com                                   *
 *                                                                             *
 *   Scientific publications using AMS results must be properly referenced     *
 *   See the User Manuals (or the web site) for recommended citations          *
 *   The terms and conditions of the End User License Agreement apply to       *
 *   the use of AMS, https://www.scm.com/license-terms/                        *
 *                                                                             *
 **********************  x86_64_linux_intel / intelmpi  ************************
 
 Licensed to: VU/FEW (+ SARA) / ALGEMEEN / Amsterdam / THE NETHERLANDS
 SCM User ID: u7668
  
 AMS 2021.102  RunTime: Jan22-2022 23:25:40  ShM Nodes: 1  Procs: 4

 AMS jobname: 18.achiral_catalyst.H_H_ZnCl2.TS
 AMS jobid  : 235651433

 Start   directory: /scistor/tc/yhk800/MasterProject/calculations/achiral_catalyst_H_H_ZnCl2/18.achiral_catalyst.H_H_ZnCl2.TS/
 Results directory: /scistor/tc/yhk800/MasterProject/calculations/achiral_catalyst_H_H_ZnCl2/18.achiral_catalyst.H_H_ZnCl2.TS/
 Scratch directory: /scratch/3977/amstmp_18.achiral_catalyst.H_H_ZnCl2.TS_kid0.235651433/


 Communication costs MPI_COMM_WORLD:      0.849 usec per message,   0.0100 usec per 8-byte item
 Communication costs for intra-node:      0.807 usec per message,   0.0060 usec per 8-byte item

 RNG seed: 9655451 1673866626 2046465395 -1719667266 1773426996 208599 -462709583 -1023341660



                      ************************************************************************
                      *  ADF 2021.102  RunTime: Jan22-2022 23:25:41  ShM Nodes: 1  Procs: 4  *
                      ************************************************************************
  
       *****************************
       *  TRANSITION STATE SEARCH  *
       *****************************

Optimization Method                    Quasi Newton
Optimization Coordinates               Delocalized Coordinates
Optimize lattice                       F
 
 ------------------------------------------------------
 Convergence criteria (Hartree,Angstrom)
 ------------------------------------------------------
 Maximum gradient               0.001000000000
 Maximum rms gradient           0.000666666667
 Maximum step allowed           0.010000000000
 Maximum rms step allowed       0.006666666667
 Maximum energy change allowe   0.000150000000
 Maximum stress energy allowe   0.000500000000
 
Initial model Hessian                  Automatic Hessian
 
------------------------------------
Quasi-Newton Optimizer Parameters
------------------------------------
Hessian Update Method                  Bofill
Maximum number of steps                  250
First GDIIS cycle                          0
Maximum GDIIS vectors                      0
Trust radius (bohr)                        0.200000
Trust radius varies                        F
Constraints converged at all steps         T
Use projector                              T
 
 Rigid motions settings for: old optimizer
 Atomic rotations (x,y,z):     T T T
 Atomic translations (x,y,z):  T T T
 Tolerance:                   1.000000000000000E-006
 
           1  TSRC entries:
    i   type      a1    a2    a3    a4    coef
    1 Distance     2    10               -1.000
 
--------
Geometry
--------
Formula: C4H7Cl2OSn
Atoms
  Index Symbol   x (angstrom)   y (angstrom)   z (angstrom)
      1      H     0.19369716    -1.85361092    -0.24516176
      2      C    -0.92057816    -0.12292898     0.28183759
      3      C     0.21368396    -0.77846351    -0.06958517
      4      C     1.52168394    -0.13059856    -0.22805405
      5      O     1.77804810     1.04912696    -0.01680607
      6      H    -0.93117356     0.95749943     0.37346659
      7      H    -1.16677948    -1.14795174     3.01281369
      8      H    -2.10496465     0.45730942     2.86041604
      9      H    -0.24714630     0.47546451     3.02589233
     10      C    -1.16197426    -0.07675120     2.85297480
     11      H    -1.86354143    -0.62823164     0.30157320
     12      H     2.30109647    -0.78460704    -0.55924738
     13     Sn     2.49853305     4.24557076     0.37517415
     14     Cl     4.39064302     5.12133562     1.52619197
     15     Cl     1.59128788     6.24158643    -0.55469830
 
Total System Charge             0.00000
 
 
----------------
ADF Engine Input
----------------
 
 NumericalQuality VeryGood
 SCF
 Converge 1.0e-6
 Iterations 99
 End
 SYMMETRY NOSYM
 SpinPolarization 1.0
 Unrestricted Yes
 XC
 GGA OLYP
 End
 basis
 core None
 type TZ2P
 End
 

 Title: *** (NO TITLE) ***

Bad geometry: added dihedral    12    4   13   14
 Using automatic Hessian for delocalized coordinates.
 *** GOStep1 ***

 Energy gradients wrt nuclear displacements
 ==========================================

     Atom      Cartesian (a.u./angstrom)
                 X         Y         Z
 ----------------------------------------
     1 H     0.000251  0.000098 -0.000094
     2 C    -0.015813 -0.007437  0.001201
     3 C     0.000980 -0.002660 -0.001443
     4 C     0.033083 -0.021438 -0.012814
     5 O     0.004567 -0.003105 -0.002040
     6 H    -0.001192 -0.001270  0.000578
     7 H    -0.000172 -0.000154  0.000024
     8 H     0.000119  0.000100 -0.000104
     9 H    -0.000383  0.000226 -0.000086
    10 C     0.000193 -0.000089 -0.000962
    11 H     0.017311  0.009037 -0.000115
    12 H    -0.037597  0.032238  0.016557
    13 Sn    0.005352  0.015059 -0.000152
    14 Cl   -0.012175 -0.006335 -0.006939
    15 Cl    0.005475 -0.014270  0.006389
 ----------------------------------------
 Mulliken charges used for AMS results%charges...
           Primitive Internal Coordinates (atoms in internal order)
-------------------------------------------------------------------------------
    index    type      i       j       k       l   value(A,deg)     TSRC Vect
-------------------------------------------------------------------------------
       1     bnd       1       3       0       0     1.08957265     0.00000000
       2     bnd       2       6       0       0     1.08435865    -0.00000000
       3     bnd       2       3       0       0     1.35638270     0.09525091
       4     bnd       3       4       0       0     1.46823204     0.00299423
       5     bnd       4      12       0       0     1.07000000    -0.00000000
       6     bnd       4       5       0       0     1.22560214     0.00324720
       7     bnd       8      10       0       0     1.08374674    -0.00000000
       8     bnd       7      10       0       0     1.08307071     0.00000000
       9     bnd       9      10       0       0     1.08247534    -0.00000000
      10     bnd       2      11       0       0     1.07000000     0.00000000
      11     bnd      13      15       0       0     2.38156149     0.00000000
      12     bnd      13      14       0       0     2.38157222     0.00000000
      13     bnd       2      10       0       0     2.58285714    -0.49542710
      14     bnd       5      13       0       0     3.30000000     0.00334668
      15     bnd       3      10       0       0     3.30547916    -0.19938691
      16     bnd      10      13       0       0     6.18233588    -0.00586928
      17     ang       6       2       3       0   120.77103538    -0.00151632
      18     ang       6       2      11       0   117.41061259    -0.00522894
      19     ang       6       2      10       0    84.09702452    -0.03701665
      20     ang       3       2      11       0   120.89733866     0.00248660
      21     ang       3       2      10       0   110.16403203     0.10269164
      22     ang      11       2      10       0    84.70507552    -0.04736445
      23     ang       1       3       2       0   120.21909900     0.00780752
      24     ang       1       3       4       0   115.74474309    -0.02967360
      25     ang       1       3      10       0   110.14017713     0.02805875
      26     ang       2       3       4       0   124.03410402     0.02153162
      27     ang       2       3      10       0    47.18020735    -0.11578601
      28     ang       4       3      10       0   111.87064539     0.05763765
      29     ang       3       4      12       0   114.37019830     0.00510813
      30     ang       3       4       5       0   126.33327012    -0.00855368
      31     ang      12       4       5       0   119.29637410     0.00342471
      32     lai       4       5      13      14   178.77570142    -0.01186828
      33     ang       8      10       7       0   118.84988012     0.00016584
      34     ang       8      10       9       0   118.87311123     0.00086098
      35     ang       8      10       2       0    95.56458342    -0.00531058
      36     ang       8      10       3       0   118.21664669     0.00778500
      37     ang       8      10      13       0    99.98629260     0.00255205
      38     ang       7      10       9       0   118.99448321    -0.00021323
      39     ang       7      10       2       0    97.44889075     0.00096017
      40     ang       7      10       3       0    85.54757082    -0.00555538
      41     ang       7      10      13       0   138.87295541    -0.00260016
      42     ang       9      10       2       0    95.11483796     0.00208608
      43     ang       9      10       3       0    84.13492797    -0.00459329
      44     ang       9      10      13       0    37.53046017    -0.00300108
      45     ang       2      10      13       0    63.78081501     0.00253866
      46     ang       3      10      13       0    63.10523560     0.00093604
      47     ang      15      13      14       0   100.55396778    -0.00890863
      48     ang      15      13       5       0   133.02068174    -0.00242311
      49     ang      15      13      10       0   121.12384636    -0.00508011
      50     ang      14      13       5       0   125.94803212     0.01013437
      51     ang      14      13      10       0   122.26223233     0.02345435
      52     ang       5      13      10       0    40.63572331    -0.00582089
      53     lao       4       5      13      14    87.11473845     0.00267500
      54     dih       6       2       3       1   185.43025046    -0.01435200
      55     dih       6       2       3       4     5.97435318     0.03010818
      56     dih       6       2       3      10    95.22935729     0.01836920
      57     dih      11       2       3       1    -5.83693566    -0.04070418
      58     dih      11       2       3       4   174.70716706     0.00375600
      59     dih      11       2       3      10   263.96217117    -0.00798298
      60     dih      10       2       3       1    90.20089317    -0.03272120
      61     dih      10       2       3       4   -89.25500411     0.01173898
      62     dih       1       3       4      12     3.58206089    -0.02093444
      63     dih       1       3       4       5   183.72850675    -0.01125153
      64     dih       2       3       4      12   183.06008625    -0.06341457
      65     dih       2       3       4       5     3.20653211    -0.05373166
      66     dih      10       3       4      12   130.84520156     0.04533567
      67     dih      10       3       4       5   -49.00835258     0.05501858
      68     dih       6       2      10       8    60.32627910     0.00467009
      69     dih       6       2      10       7   180.43650753     0.00391849
      70     dih       6       2      10       9   -59.39742086     0.00429643
      71     dih       6       2      10       3   239.33945908     0.00514298
      72     dih       6       2      10      13   -38.08258143    -0.00080789
      73     dih       3       2      10       8   180.98682002    -0.00047289
      74     dih       3       2      10       7   -58.90295155    -0.00122449
      75     dih       3       2      10       9    61.26312006    -0.00084655
      76     dih       3       2      10      13    82.57795949    -0.00595087
      77     dih      11       2      10       8   -57.99296306    -0.00389394
      78     dih      11       2      10       7    62.11726537    -0.00464554
      79     dih      11       2      10       9   182.28333697    -0.00426760
      80     dih      11       2      10       3   121.02021691    -0.00342105
      81     dih      11       2      10      13   203.59817640    -0.00937193
      82     dih       1       3      10       8   248.09637082     0.01334442
      83     dih       1       3      10       7     8.59151161     0.01208826
      84     dih       1       3      10       9   128.37671670     0.01345888
      85     dih       1       3      10       2   246.98173076     0.01378723
      86     dih       1       3      10      13   161.04778232     0.01378377
      87     dih       2       3      10       8     1.11464006    -0.00044281
      88     dih       2       3      10       7   121.60978085    -0.00169897
      89     dih       2       3      10       9   241.39498594    -0.00032835
      90     dih       2       3      10      13   -85.93394844    -0.00000346
      91     dih       4       3      10       8   117.87482254    -0.01718270
      92     dih       4       3      10       7   238.36996333    -0.01843885
      93     dih       4       3      10       9    -1.84483158    -0.01706824
      94     dih       4       3      10       2   116.76018248    -0.01673988
      95     dih       4       3      10      13    30.82623404    -0.01674334
      96     dih       8      10      13      15    -9.53407725    -0.00103362
      97     dih       8      10      13      14   119.82496298     0.00711542
      98     dih       8      10      13       5   229.12022793    -0.00239185
      99     dih       7      10      13      15   151.64752537    -0.00011650
     100     dih       7      10      13      14   -78.99343441     0.00803254
     101     dih       7      10      13       5    30.30183054    -0.00147472
     102     dih       9      10      13      15   225.32228544    -0.00092788
     103     dih       9      10      13      14    -5.31867434     0.00722116
     104     dih       9      10      13       5   103.97659061    -0.00228610
     105     dih       2      10      13      15    81.78591816    -0.00784609
     106     dih       2      10      13      14   211.14495838     0.00030295
     107     dih       2      10      13       5   -39.55977667    -0.00920431
     108     dih       3      10      13      15   107.14505019     0.00643015
     109     dih       3      10      13      14   236.50409041     0.01457918
     110     dih       3      10      13       5   -14.20064464     0.00507192
     111     dih      12       4      13      14   -46.80557943    -0.03770653
Hessian eigenvector     1(     0.003) has overlap with TSRC:    0.45583E-01
Hessian eigenvector     2(     0.004) has overlap with TSRC:    0.13801E+00
Hessian eigenvector     3(     0.006) has overlap with TSRC:    0.30995E+00
Hessian eigenvector     4(     0.006) has overlap with TSRC:    0.28928E+00
Hessian eigenvector     5(     0.008) has overlap with TSRC:    0.28042E+00
Hessian eigenvector     6(     0.009) has overlap with TSRC:    0.22813E-01
Hessian eigenvector     7(     0.011) has overlap with TSRC:    0.58151E-03
Hessian eigenvector     8(     0.012) has overlap with TSRC:    0.26738E-01
Hessian eigenvector     9(     0.022) has overlap with TSRC:    0.22960E-01
Hessian eigenvector    10(     0.023) has overlap with TSRC:    0.12408E-01
Hessian eigenvector    11(     0.027) has overlap with TSRC:    0.17222E+00
Hessian eigenvector    12(     0.028) has overlap with TSRC:    0.80491E-02
Hessian eigenvector    13(     0.038) has overlap with TSRC:    0.21448E-01
Hessian eigenvector    14(     0.050) has overlap with TSRC:    0.30795E-01
Hessian eigenvector    15(     0.053) has overlap with TSRC:    0.44369E-01
Hessian eigenvector    16(     0.055) has overlap with TSRC:    0.12418E-01
Hessian eigenvector    17(     0.057) has overlap with TSRC:    0.46150E-02
Hessian eigenvector    18(     0.072) has overlap with TSRC:    0.33897E-02
Hessian eigenvector    19(     0.076) has overlap with TSRC:    0.56161E-02
Hessian eigenvector    20(     0.086) has overlap with TSRC:    0.68746E-01
Hessian eigenvector    21(     0.090) has overlap with TSRC:    0.80140E-01
Hessian eigenvector    22(     0.098) has overlap with TSRC:    0.93926E-01
Hessian eigenvector    23(     0.117) has overlap with TSRC:    0.51012E-01
Hessian eigenvector    24(     0.123) has overlap with TSRC:    0.82039E-01
Hessian eigenvector    25(     0.162) has overlap with TSRC:    0.57345E-02
Hessian eigenvector    26(     0.229) has overlap with TSRC:    0.40374E-03
Hessian eigenvector    27(     0.267) has overlap with TSRC:    0.29186E-02
Hessian eigenvector    28(     0.468) has overlap with TSRC:    0.78133E-01
Hessian eigenvector    29(     0.491) has overlap with TSRC:    0.55753E-04
Hessian eigenvector    30(     0.500) has overlap with TSRC:    0.16789E-14
Hessian eigenvector    31(     0.503) has overlap with TSRC:    0.38820E-15
Hessian eigenvector    32(     0.503) has overlap with TSRC:    0.46890E-14
Hessian eigenvector    33(     0.503) has overlap with TSRC:    0.13671E-14
Hessian eigenvector    34(     0.503) has overlap with TSRC:    0.76615E-15
Hessian eigenvector    35(     0.504) has overlap with TSRC:    0.54765E-14
Hessian eigenvector    36(     0.504) has overlap with TSRC:    0.56650E-15
Hessian eigenvector    37(     0.509) has overlap with TSRC:    0.15221E-14
Hessian eigenvector    38(     0.509) has overlap with TSRC:    0.25632E-14
Hessian eigenvector    39(     0.569) has overlap with TSRC:    0.10967E-01
Hessian eigenvector     3 has the largest overlap with TSRC:  0.30995
           Primitive Internal Coordinates (atoms in internal order)
-------------------------------------------------------------------------------
    index    type      i       j       k       l   value(A,deg)     Max Ovl Vect
-------------------------------------------------------------------------------
       1     bnd       1       3       0       0     1.08957265    -0.00000000
       2     bnd       2       6       0       0     1.08435865    -0.00000000
       3     bnd       2       3       0       0     1.35638270    -0.01481814
       4     bnd       3       4       0       0     1.46823204     0.00018786
       5     bnd       4      12       0       0     1.07000000     0.00000000
       6     bnd       4       5       0       0     1.22560214    -0.00023661
       7     bnd       8      10       0       0     1.08374674    -0.00000000
       8     bnd       7      10       0       0     1.08307071     0.00000000
       9     bnd       9      10       0       0     1.08247534    -0.00000000
      10     bnd       2      11       0       0     1.07000000     0.00000000
      11     bnd      13      15       0       0     2.38156149     0.00000000
      12     bnd      13      14       0       0     2.38157222     0.00000000
      13     bnd       2      10       0       0     2.58285714     0.43833445
      14     bnd       5      13       0       0     3.30000000    -0.00050121
      15     bnd       3      10       0       0     3.30547916     0.09236341
      16     bnd      10      13       0       0     6.18233588    -0.00014347
      17     ang       6       2       3       0   120.77103538     0.01126972
      18     ang       6       2      11       0   117.41061259     0.00811415
      19     ang       6       2      10       0    84.09702452     0.01574079
      20     ang       3       2      11       0   120.89733866     0.00720552
      21     ang       3       2      10       0   110.16403203    -0.16067088
      22     ang      11       2      10       0    84.70507552     0.01223546
      23     ang       1       3       2       0   120.21909900     0.00340229
      24     ang       1       3       4       0   115.74474309    -0.01072677
      25     ang       1       3      10       0   110.14017713    -0.04041960
      26     ang       2       3       4       0   124.03410402     0.00769864
      27     ang       2       3      10       0    47.18020735     0.14462877
      28     ang       4       3      10       0   111.87064539    -0.04157496
      29     ang       3       4      12       0   114.37019830    -0.00280117
      30     ang       3       4       5       0   126.33327012     0.00493778
      31     ang      12       4       5       0   119.29637410    -0.00258785
      32     lai       4       5      13      14   178.77570142     0.03856998
      33     ang       8      10       7       0   118.84988012     0.00146212
      34     ang       8      10       9       0   118.87311123     0.00385433
      35     ang       8      10       2       0    95.56458342    -0.00065518
      36     ang       8      10       3       0   118.21664669     0.01627839
      37     ang       8      10      13       0    99.98629260    -0.06335648
      38     ang       7      10       9       0   118.99448321    -0.00129155
      39     ang       7      10       2       0    97.44889075    -0.02117097
      40     ang       7      10       3       0    85.54757082     0.01163473
      41     ang       7      10      13       0   138.87295541     0.05898821
      42     ang       9      10       2       0    95.11483796     0.01072887
      43     ang       9      10       3       0    84.13492797    -0.03984198
      44     ang       9      10      13       0    37.53046017     0.02742955
      45     ang       2      10      13       0    63.78081501     0.02701504
      46     ang       3      10      13       0    63.10523560     0.00643655
      47     ang      15      13      14       0   100.55396778    -0.00791350
      48     ang      15      13       5       0   133.02068174     0.03280624
      49     ang      15      13      10       0   121.12384636    -0.13330556
      50     ang      14      13       5       0   125.94803212     0.01440607
      51     ang      14      13      10       0   122.26223233    -0.05730508
      52     ang       5      13      10       0    40.63572331    -0.00222718
      53     lao       4       5      13      14    87.11473845     0.00075597
      54     dih       6       2       3       1   185.43025046    -0.05645251
      55     dih       6       2       3       4     5.97435318    -0.10595341
      56     dih       6       2       3      10    95.22935729    -0.07720529
      57     dih      11       2       3       1    -5.83693566     0.10535281
      58     dih      11       2       3       4   174.70716706     0.05585191
      59     dih      11       2       3      10   263.96217117     0.08460003
      60     dih      10       2       3       1    90.20089317     0.02075279
      61     dih      10       2       3       4   -89.25500411    -0.02874812
      62     dih       1       3       4      12     3.58206089    -0.14526892
      63     dih       1       3       4       5   183.72850675     0.06455239
      64     dih       2       3       4      12   183.06008625    -0.09771610
      65     dih       2       3       4       5     3.20653211     0.11210521
      66     dih      10       3       4      12   130.84520156    -0.24954329
      67     dih      10       3       4       5   -49.00835258    -0.03972197
      68     dih       6       2      10       8    60.32627910    -0.12152016
      69     dih       6       2      10       7   180.43650753    -0.12414569
      70     dih       6       2      10       9   -59.39742086    -0.12708871
      71     dih       6       2      10       3   239.33945908    -0.00214522
      72     dih       6       2      10      13   -38.08258143    -0.05188920
      73     dih       3       2      10       8   180.98682002    -0.11937494
      74     dih       3       2      10       7   -58.90295155    -0.12200047
      75     dih       3       2      10       9    61.26312006    -0.12494349
      76     dih       3       2      10      13    82.57795949    -0.04974398
      77     dih      11       2      10       8   -57.99296306    -0.12519923
      78     dih      11       2      10       7    62.11726537    -0.12782476
      79     dih      11       2      10       9   182.28333697    -0.13076778
      80     dih      11       2      10       3   121.02021691    -0.00582429
      81     dih      11       2      10      13   203.59817640    -0.05556827
      82     dih       1       3      10       8   248.09637082    -0.17439679
      83     dih       1       3      10       7     8.59151161    -0.16232053
      84     dih       1       3      10       9   128.37671670    -0.15961150
      85     dih       1       3      10       2   246.98173076    -0.03972705
      86     dih       1       3      10      13   161.04778232    -0.08980067
      87     dih       2       3      10       8     1.11464006    -0.13466974
      88     dih       2       3      10       7   121.60978085    -0.12259348
      89     dih       2       3      10       9   241.39498594    -0.11988445
      90     dih       2       3      10      13   -85.93394844    -0.05007362
      91     dih       4       3      10       8   117.87482254    -0.09200574
      92     dih       4       3      10       7   238.36996333    -0.07992948
      93     dih       4       3      10       9    -1.84483158    -0.07722045
      94     dih       4       3      10       2   116.76018248     0.04266400
      95     dih       4       3      10      13    30.82623404    -0.00740962
      96     dih       8      10      13      15    -9.53407725     0.15166671
      97     dih       8      10      13      14   119.82496298    -0.11150845
      98     dih       8      10      13       5   229.12022793    -0.03156757
      99     dih       7      10      13      15   151.64752537     0.13055626
     100     dih       7      10      13      14   -78.99343441    -0.13261890
     101     dih       7      10      13       5    30.30183054    -0.05267802
     102     dih       9      10      13      15   225.32228544     0.07100668
     103     dih       9      10      13      14    -5.31867434    -0.19216848
     104     dih       9      10      13       5   103.97659061    -0.11222760
     105     dih       2      10      13      15    81.78591816     0.18633280
     106     dih       2      10      13      14   211.14495838    -0.07684236
     107     dih       2      10      13       5   -39.55977667     0.00309852
     108     dih       3      10      13      15   107.14505019     0.19993000
     109     dih       3      10      13      14   236.50409041    -0.06324516
     110     dih       3      10      13       5   -14.20064464     0.01669572
     111     dih      12       4      13      14   -46.80557943     0.17897996
 
----------------------------------------------------------------------
Geometry Convergence after Step   1       (Hartree/Angstrom,Angstrom)
----------------------------------------------------------------------
current energy                               -2.66373708 Hartree
energy change                      -2.66373708     0.00015000    F
constrained gradient max            0.03761509     0.00100000    F
constrained gradient rms            0.01149807     0.00066667    F
gradient max                        0.03761509
gradient rms                        0.01149807
cart. step max                      0.03650145     0.01000000    F
cart. step rms                      0.01531657     0.00666667    F
 
 
--------
Geometry
--------
Formula: C4H7Cl2OSn
Atoms
  Index Symbol   x (angstrom)   y (angstrom)   z (angstrom)
      1      H     0.18838648    -1.85095150    -0.24709461
      2      C    -0.92554654    -0.11571790     0.26199009
      3      C     0.21074349    -0.77644460    -0.06762765
      4      C     1.52118832    -0.13034354    -0.21517189
      5      O     1.76192477     1.05531173     0.00323058
      6      H    -0.92849883     0.96528203     0.35533975
      7      H    -1.16467421    -1.16415193     3.02033155
      8      H    -2.10628227     0.44037439     2.88344126
      9      H    -0.24745508     0.46000660     3.04346090
     10      C    -1.16229283    -0.09183412     2.86869880
     11      H    -1.88101815    -0.62062520     0.27327614
     12      H     2.32394913    -0.79394884    -0.56499308
     13     Sn     2.47539731     4.25770215     0.40624741
     14     Cl     4.40702481     5.13525491     1.50685814
     15     Cl     1.61966934     6.25483537    -0.59119975
 
Total System Charge             0.00000
 
 *** GOStep2 ***

 Energy gradients wrt nuclear displacements
 ==========================================

     Atom      Cartesian (a.u./angstrom)
                 X         Y         Z
 ----------------------------------------
     1 H     0.000228  0.000183 -0.000550
     2 C    -0.005600 -0.001869  0.001362
     3 C    -0.000054  0.000835  0.000726
     4 C     0.011261 -0.016427 -0.003500
     5 O     0.002636  0.010834  0.000578
     6 H    -0.000373 -0.000403 -0.000099
     7 H    -0.000118  0.000084  0.000470
     8 H     0.000066  0.000032  0.000128
     9 H    -0.000300  0.000115  0.000423
    10 C     0.000796 -0.000535 -0.002797
    11 H     0.004521  0.002458 -0.000107
    12 H    -0.011851  0.009886  0.004199
    13 Sn    0.004241  0.009356 -0.001501
    14 Cl   -0.009325 -0.004269 -0.004762
    15 Cl    0.003874 -0.010279  0.005431
 ----------------------------------------
 Mulliken charges used for AMS results%charges...
Hessian eigenvector     1(     0.003) has overlap with TSRC:    0.33363E-01
Hessian eigenvector     2(     0.004) has overlap with TSRC:    0.25338E-01
Hessian eigenvector     3(     0.006) has overlap with TSRC:    0.40795E+00
Hessian eigenvector     4(     0.006) has overlap with TSRC:    0.69090E-02
Hessian eigenvector     5(     0.008) has overlap with TSRC:    0.15132E+00
Hessian eigenvector     6(     0.011) has overlap with TSRC:    0.12720E-01
Hessian eigenvector     7(     0.011) has overlap with TSRC:    0.47366E-01
Hessian eigenvector     8(     0.016) has overlap with TSRC:    0.27489E+00
Hessian eigenvector     9(     0.022) has overlap with TSRC:    0.86243E-01
Hessian eigenvector    10(     0.023) has overlap with TSRC:    0.28459E-02
Hessian eigenvector    11(     0.027) has overlap with TSRC:    0.19580E+00
Hessian eigenvector    12(     0.028) has overlap with TSRC:    0.46948E-01
Hessian eigenvector    13(     0.038) has overlap with TSRC:    0.65113E-02
Hessian eigenvector    14(     0.050) has overlap with TSRC:    0.33692E-01
Hessian eigenvector    15(     0.052) has overlap with TSRC:    0.32441E-01
Hessian eigenvector    16(     0.055) has overlap with TSRC:    0.14780E-02
Hessian eigenvector    17(     0.057) has overlap with TSRC:    0.62576E-04
Hessian eigenvector    18(     0.072) has overlap with TSRC:    0.40287E-02
Hessian eigenvector    19(     0.076) has overlap with TSRC:    0.73398E-02
Hessian eigenvector    20(     0.085) has overlap with TSRC:    0.59564E-01
Hessian eigenvector    21(     0.089) has overlap with TSRC:    0.72182E-01
Hessian eigenvector    22(     0.098) has overlap with TSRC:    0.77666E-01
Hessian eigenvector    23(     0.116) has overlap with TSRC:    0.59537E-01
Hessian eigenvector    24(     0.123) has overlap with TSRC:    0.72420E-01
Hessian eigenvector    25(     0.162) has overlap with TSRC:    0.52075E-02
Hessian eigenvector    26(     0.229) has overlap with TSRC:    0.11034E-02
Hessian eigenvector    27(     0.263) has overlap with TSRC:    0.23540E-01
Hessian eigenvector    28(     0.436) has overlap with TSRC:    0.42370E-01
Hessian eigenvector    29(     0.468) has overlap with TSRC:    0.73954E-01
Hessian eigenvector    30(     0.492) has overlap with TSRC:    0.16908E-02
Hessian eigenvector    31(     0.500) has overlap with TSRC:    0.16246E-04
Hessian eigenvector    32(     0.503) has overlap with TSRC:    0.15032E-03
Hessian eigenvector    33(     0.503) has overlap with TSRC:    0.47182E-06
Hessian eigenvector    34(     0.503) has overlap with TSRC:    0.45546E-04
Hessian eigenvector    35(     0.503) has overlap with TSRC:    0.10364E-04
Hessian eigenvector    36(     0.504) has overlap with TSRC:    0.15863E-04
Hessian eigenvector    37(     0.508) has overlap with TSRC:    0.55415E-02
Hessian eigenvector    38(     0.509) has overlap with TSRC:    0.13887E-02
Hessian eigenvector    39(     0.569) has overlap with TSRC:    0.27958E-02
Hessian eigenvector     3 has the largest overlap with TSRC:  0.40795
           Primitive Internal Coordinates (atoms in internal order)
-------------------------------------------------------------------------------
    index    type      i       j       k       l   value(A,deg)     Max Ovl Vect
-------------------------------------------------------------------------------
       1     bnd       1       3       0       0     1.08962072    -0.00000628
       2     bnd       2       6       0       0     1.08502706    -0.00002730
       3     bnd       2       3       0       0     1.35512459     0.01995675
       4     bnd       3       4       0       0     1.46849635     0.00024937
       5     bnd       4      12       0       0     1.09871369    -0.00107284
       6     bnd       4       5       0       0     1.22940314     0.00057021
       7     bnd       8      10       0       0     1.08378010    -0.00000262
       8     bnd       7      10       0       0     1.08298829    -0.00000175
       9     bnd       9      10       0       0     1.08258861    -0.00000750
      10     bnd       2      11       0       0     1.08073343    -0.00034745
      11     bnd      13      15       0       0     2.39075559    -0.00081385
      12     bnd      13      14       0       0     2.39011038    -0.00075086
      13     bnd       2      10       0       0     2.61754648    -0.57582433
      14     bnd       5      13       0       0     3.30556652    -0.00006903
      15     bnd       3      10       0       0     3.31299461    -0.12138798
      16     bnd      10      13       0       0     6.18182192    -0.00149478
      17     ang       6       2       3       0   120.59558283    -0.01277329
      18     ang       6       2      11       0   117.52602541    -0.01077696
      19     ang       6       2      10       0    84.54782195    -0.01880640
      20     ang       3       2      11       0   121.06936847    -0.01138500
      21     ang       3       2      10       0   108.81538066     0.21086177
      22     ang      11       2      10       0    85.06073780    -0.01771323
      23     ang       1       3       2       0   120.24318940    -0.00362853
      24     ang       1       3       4       0   115.82558915     0.00786162
      25     ang       1       3      10       0   109.95329119     0.04465940
      26     ang       2       3       4       0   123.93025727    -0.00485769
      27     ang       2       3      10       0    48.40575345    -0.18990286
      28     ang       4       3      10       0   111.59022900     0.05488922
      29     ang       3       4      12       0   114.72428273    -0.00030865
      30     ang       3       4       5       0   125.53567302     0.00084652
      31     ang      12       4       5       0   119.73459760    -0.00014651
      32     lai       4       5      13      14   179.36891062    -0.01693798
      33     ang       8      10       7       0   118.84283323    -0.00016295
      34     ang       8      10       9       0   118.91656860    -0.00029657
      35     ang       8      10       2       0    95.55533294     0.00744791
      36     ang       8      10       3       0   118.32782237    -0.01372881
      37     ang       8      10      13       0    99.93041960     0.00971356
      38     ang       7      10       9       0   118.94535886    -0.00032393
      39     ang       7      10       2       0    97.50414159     0.00122999
      40     ang       7      10       3       0    85.43430598     0.00191739
      41     ang       7      10      13       0   138.91496390    -0.00882576
      42     ang       9      10       2       0    95.10502203    -0.00649408
      43     ang       9      10       3       0    84.15662138     0.01398673
      44     ang       9      10      13       0    37.66297233    -0.00429437
      45     ang       2      10      13       0    63.67316431    -0.00628632
      46     ang       3      10      13       0    63.15806453     0.00147862
      47     ang      15      13      14       0   100.06011574     0.00964881
      48     ang      15      13       5       0   132.93437145    -0.03776571
      49     ang      15      13      10       0   122.91014828     0.15297982
      50     ang      14      13       5       0   125.89338038    -0.01804061
      51     ang      14      13      10       0   123.39965713     0.07568805
      52     ang       5      13      10       0    40.52832058    -0.00246635
      53     lao       4       5      13      14    86.65636223    -0.01652596
      54     dih       6       2       3       1   185.47891274     0.06398286
      55     dih       6       2       3       4     5.10642615     0.14667146
      56     dih       6       2       3      10    94.86776975     0.10446957
      57     dih      11       2       3       1    -5.07602105    -0.14862209
      58     dih      11       2       3       4   174.55149235    -0.06593349
      59     dih      11       2       3      10   264.31283595    -0.10813539
      60     dih      10       2       3       1    90.61114300    -0.04048671
      61     dih      10       2       3       4   -89.76134359     0.04220189
      62     dih       1       3       4      12     4.34563093     0.16135459
      63     dih       1       3       4       5   183.48935533    -0.02061585
      64     dih       2       3       4      12   184.70312519     0.08197525
      65     dih       2       3       4       5     3.84684959    -0.09999520
      66     dih      10       3       4      12   131.16160506     0.28124939
      67     dih      10       3       4       5   -49.69467053     0.09927895
      68     dih       6       2      10       8    60.78575891     0.02955008
      69     dih       6       2      10       7   180.89725361     0.03116117
      70     dih       6       2      10       9   -58.97907523     0.02973024
      71     dih       6       2      10       3   239.49382825    -0.00001915
      72     dih       6       2      10      13   -37.56249278     0.02248158
      73     dih       3       2      10       8   181.29193065     0.02956923
      74     dih       3       2      10       7   -58.59657464     0.03118032
      75     dih       3       2      10       9    61.52709652     0.02974938
      76     dih       3       2      10      13    82.94367897     0.02250073
      77     dih      11       2      10       8   -57.52351967     0.03452979
      78     dih      11       2      10       7    62.58797504     0.03614087
      79     dih      11       2      10       9   182.71164620     0.03470994
      80     dih      11       2      10       3   121.18454968     0.00496056
      81     dih      11       2      10      13   204.12822864     0.02746129
      82     dih       1       3      10       8   248.24312998     0.07710272
      83     dih       1       3      10       7     8.68969882     0.07492251
      84     dih       1       3      10       9   128.44022347     0.07220372
      85     dih       1       3      10       2   246.78229799     0.04386000
      86     dih       1       3      10      13   161.29436780     0.05672777
      87     dih       2       3      10       8     1.46083199     0.03324272
      88     dih       2       3      10       7   121.90740083     0.03106251
      89     dih       2       3      10       9   241.65792548     0.02834372
      90     dih       2       3      10      13   -85.48793019     0.01286777
      91     dih       4       3      10       8   118.29510036    -0.01586775
      92     dih       4       3      10       7   238.74166919    -0.01804796
      93     dih       4       3      10       9    -1.50780615    -0.02076675
      94     dih       4       3      10       2   116.83426837    -0.04911047
      95     dih       4       3      10      13    31.34633818    -0.03624270
      96     dih       8      10      13      15   -11.61837551    -0.18106570
      97     dih       8      10      13      14   120.91065350     0.13483752
      98     dih       8      10      13       5   228.93584764     0.02937852
      99     dih       7      10      13      15   149.47070551    -0.17672060
     100     dih       7      10      13      14   -78.00026547     0.13918262
     101     dih       7      10      13       5    30.02492866     0.03372362
     102     dih       9      10      13      15   223.17149393    -0.16928704
     103     dih       9      10      13      14    -4.29947705     0.14661619
     104     dih       9      10      13       5   103.72571708     0.04115718
     105     dih       2      10      13      15    79.70087323    -0.17845480
     106     dih       2      10      13      14   212.22990224     0.13744843
     107     dih       2      10      13       5   -39.74490362     0.03198943
     108     dih       3      10      13      15   105.20920314    -0.20121991
     109     dih       3      10      13      14   237.73823216     0.11468332
     110     dih       3      10      13       5   -14.23657371     0.00922432
     111     dih      12       4      13      14   -45.20415561    -0.15022051
 
----------------------------------------------------------------------
Geometry Convergence after Step   2       (Hartree/Angstrom,Angstrom)
----------------------------------------------------------------------
current energy                               -2.66528726 Hartree
energy change                      -0.00155019     0.00015000    F
constrained gradient max            0.01643605     0.00100000    F
constrained gradient rms            0.00526961     0.00066667    F
gradient max                        0.01643605
gradient rms                        0.00526961
cart. step max                      0.07447886     0.01000000    F
cart. step rms                      0.02158900     0.00666667    F
 
 
--------
Geometry
--------
Formula: C4H7Cl2OSn
Atoms
  Index Symbol   x (angstrom)   y (angstrom)   z (angstrom)
      1      H     0.19618049    -1.84741186    -0.24817706
      2      C    -0.93138624    -0.12299039     0.26669349
      3      C     0.20822892    -0.77255475    -0.06933436
      4      C     1.50816427    -0.10701118    -0.22287840
      5      O     1.73753047     1.07221653     0.01923137
      6      H    -0.94135020     0.95809593     0.36248066
      7      H    -1.15629049    -1.18521910     3.01918645
      8      H    -2.11752460     0.40891590     2.89168540
      9      H    -0.25783435     0.44968088     3.04865886
     10      C    -1.16716067    -0.11184767     2.87541204
     11      H    -1.88705733    -0.63668695     0.27650450
     12      H     2.33137389    -0.76902654    -0.57032320
     13     Sn     2.44597764     4.27970050     0.45498319
     14     Cl     4.42951574     5.14129718     1.49491993
     15     Cl     1.69414819     6.26759104    -0.66225522
 
Total System Charge             0.00000
 
 *** GOStep3 ***

 Energy gradients wrt nuclear displacements
 ==========================================

     Atom      Cartesian (a.u./angstrom)
                 X         Y         Z
 ----------------------------------------
     1 H    -0.000157 -0.000228  0.000056
     2 C     0.000644 -0.000323  0.001918
     3 C     0.000019  0.001182  0.002668
     4 C    -0.000137  0.001737 -0.005109
     5 O     0.001333  0.001506  0.001957
     6 H     0.000021  0.000005  0.000019
     7 H    -0.000087 -0.000032  0.000340
     8 H    -0.000089  0.000034  0.000022
     9 H    -0.000083  0.000137  0.000322
    10 C     0.000624 -0.000442 -0.002623
    11 H    -0.000359 -0.000073 -0.000776
    12 H    -0.000856  0.001149  0.002291
    13 Sn    0.002976  0.002945 -0.002735
    14 Cl   -0.006161 -0.001845 -0.002628
    15 Cl    0.002311 -0.005754  0.004276
 ----------------------------------------
 Mulliken charges used for AMS results%charges...
Hessian eigenvector     1(    -0.002) has overlap with TSRC:    0.17964E+00
Hessian eigenvector     1 has the largest overlap with TSRC:  0.17964
           Primitive Internal Coordinates (atoms in internal order)
-------------------------------------------------------------------------------
    index    type      i       j       k       l   value(A,deg)     Max Ovl Vect
-------------------------------------------------------------------------------
       1     bnd       1       3       0       0     1.08970073     0.00071713
       2     bnd       2       6       0       0     1.08536726    -0.00044266
       3     bnd       2       3       0       0     1.35409427    -0.00913124
       4     bnd       3       4       0       0     1.46845358    -0.00199770
       5     bnd       4      12       0       0     1.11205050    -0.02634305
       6     bnd       4       5       0       0     1.22548113    -0.00160254
       7     bnd       8      10       0       0     1.08381323     0.00029097
       8     bnd       7      10       0       0     1.08301222     0.00023938
       9     bnd       9      10       0       0     1.08268330     0.00010585
      10     bnd       2      11       0       0     1.08502887    -0.00444407
      11     bnd      13      15       0       0     2.40107850    -0.04501891
      12     bnd      13      14       0       0     2.39963344    -0.04151837
      13     bnd       2      10       0       0     2.61937516     0.25500741
      14     bnd       5      13       0       0     3.31356763    -0.04405992
      15     bnd       3      10       0       0     3.31658887     0.03263162
      16     bnd      10      13       0       0     6.18052907     0.00568365
      17     ang       6       2       3       0   120.49337333     0.00459961
      18     ang       6       2      11       0   117.56077972     0.00395913
      19     ang       6       2      10       0    84.66621545     0.00947681
      20     ang       3       2      11       0   121.09126031     0.00619308
      21     ang       3       2      10       0   108.96208739    -0.10451203
      22     ang      11       2      10       0    85.05083545     0.02162610
      23     ang       1       3       2       0   120.30426763    -0.00088561
      24     ang       1       3       4       0   116.08351663    -0.00516816
      25     ang       1       3      10       0   109.73281340    -0.01977830
      26     ang       2       3       4       0   123.61142955     0.00666653
      27     ang       2       3      10       0    48.32440990     0.09216027
      28     ang       4       3      10       0   111.69461633    -0.00058420
      29     ang       3       4      12       0   114.71902751     0.00660258
      30     ang       3       4       5       0   125.53141345    -0.00608195
      31     ang      12       4       5       0   119.73682247    -0.00096302
      32     lai       4       5      13      14   179.57389194    -0.05405433
      33     ang       8      10       7       0   118.88299754    -0.00260285
      34     ang       8      10       9       0   119.00332589    -0.00229130
      35     ang       8      10       2       0    95.50464436    -0.00057025
      36     ang       8      10       3       0   118.20904919     0.01178694
      37     ang       8      10      13       0   100.20015186    -0.01047659
      38     ang       7      10       9       0   118.97026528    -0.00102157
      39     ang       7      10       2       0    97.30172980     0.01091062
      40     ang       7      10       3       0    85.19691550     0.00440223
      41     ang       7      10      13       0   138.62003793     0.00861967
      42     ang       9      10       2       0    94.93193401     0.00611593
      43     ang       9      10       3       0    84.09366212    -0.00003001
      44     ang       9      10      13       0    37.16960346     0.02914996
      45     ang       2      10      13       0    63.91994165    -0.02281548
      46     ang       3      10      13       0    63.34619917    -0.01553144
      47     ang      15      13      14       0    99.39337965    -0.01356884
      48     ang      15      13       5       0   132.32023414     0.04928838
      49     ang      15      13      10       0   125.97592303    -0.23137391
      50     ang      14      13       5       0   125.54048348     0.03970149
      51     ang      14      13      10       0   124.65518818    -0.14494803
      52     ang       5      13      10       0    40.42230786     0.00207941
      53     lao       4       5      13      14    85.92717741    -0.00257608
      54     dih       6       2       3       1   185.25269066    -0.02741735
      55     dih       6       2       3       4     4.91722494    -0.10854958
      56     dih       6       2       3      10    95.06387968    -0.05231970
      57     dih      11       2       3       1    -5.58888376     0.06229154
      58     dih      11       2       3       4   174.07565052    -0.01884069
      59     dih      11       2       3      10   264.22230526     0.03738919
      60     dih      10       2       3       1    90.18881098     0.02490235
      61     dih      10       2       3       4   -90.14665474    -0.05622988
      62     dih       1       3       4      12     3.70053575    -0.19220081
      63     dih       1       3       4       5   185.00985937     0.01349969
      64     dih       2       3       4      12   184.02300478    -0.11435032
      65     dih       2       3       4       5     5.33232840     0.09135018
      66     dih      10       3       4      12   130.52284293    -0.22514773
      67     dih      10       3       4       5   -48.16783345    -0.01944722
      68     dih       6       2      10       8    61.09445459     0.00076964
      69     dih       6       2      10       7   181.19878161     0.00003685
      70     dih       6       2      10       9   -58.72264532     0.00219214
      71     dih       6       2      10       3   239.54836327     0.00180475
      72     dih       6       2      10      13   -37.58496310     0.01276122
      73     dih       3       2      10       8   181.54609132    -0.00103511
      74     dih       3       2      10       7   -58.34958166    -0.00176790
      75     dih       3       2      10       9    61.72899142     0.00038739
      76     dih       3       2      10      13    82.86667363     0.01095647
      77     dih      11       2      10       8   -57.23398188     0.00188440
      78     dih      11       2      10       7    62.87034514     0.00115162
      79     dih      11       2      10       9   182.94891822     0.00330691
      80     dih      11       2      10       3   121.21992680     0.00291952
      81     dih      11       2      10      13   204.08660043     0.01387599
      82     dih       1       3      10       8   248.26864805    -0.01710963
      83     dih       1       3      10       7     8.59892265    -0.01492235
      84     dih       1       3      10       9   128.42370762    -0.01667323
      85     dih       1       3      10       2   246.52220838    -0.01606455
      86     dih       1       3      10      13   160.81283049     0.01110066
      87     dih       2       3      10       8     1.74643967    -0.00104509
      88     dih       2       3      10       7   122.07671428     0.00114220
      89     dih       2       3      10       9   241.90149924    -0.00060868
      90     dih       2       3      10      13   -85.70937788     0.02716521
      91     dih       4       3      10       8   118.07117122     0.00689861
      92     dih       4       3      10       7   238.40144583     0.00908590
      93     dih       4       3      10       9    -1.77376920     0.00733502
      94     dih       4       3      10       2   116.32473155     0.00794370
      95     dih       4       3      10      13    30.61535367     0.03510891
      96     dih       8      10      13      15   -14.97717331     0.25569656
      97     dih       8      10      13      14   123.35180206    -0.25986715
      98     dih       8      10      13       5   229.50425341    -0.05057029
      99     dih       7      10      13      15   146.22476296     0.23584932
     100     dih       7      10      13      14   -75.44626166    -0.27971439
     101     dih       7      10      13       5    30.70618968    -0.07041753
     102     dih       9      10      13      15   219.70651054     0.26484238
     103     dih       9      10      13      14    -1.96451409    -0.25072133
     104     dih       9      10      13       5   104.18793726    -0.04142447
     105     dih       2      10      13      15    76.19438910     0.25641282
     106     dih       2      10      13      14   214.52336447    -0.25915088
     107     dih       2      10      13       5   -39.32418418    -0.04985403
     108     dih       3      10      13      15   101.57885840     0.27484850
     109     dih       3      10      13      14   239.90783377    -0.24071520
     110     dih       3      10      13       5   -13.93971488    -0.03141834
     111     dih      12       4      13      14   -41.64274730    -0.07686870
 
----------------------------------------------------------------------
Geometry Convergence after Step   3       (Hartree/Angstrom,Angstrom)
----------------------------------------------------------------------
current energy                               -2.66582563 Hartree
energy change                      -0.00053837     0.00015000    F
constrained gradient max            0.00614868     0.00100000    F
constrained gradient rms            0.00208477     0.00066667    F
gradient max                        0.00614868
gradient rms                        0.00208477
cart. step max                      0.04871690     0.01000000    F
cart. step rms                      0.01977789     0.00666667    F
 
 
--------
Geometry
--------
Formula: C4H7Cl2OSn
Atoms
  Index Symbol   x (angstrom)   y (angstrom)   z (angstrom)
      1      H     0.18383957    -1.85230840    -0.24190453
      2      C    -0.94126541    -0.11269967     0.22006509
      3      C     0.19969384    -0.77546525    -0.07574159
      4      C     1.50628828    -0.12082795    -0.21937030
      5      O     1.73961964     1.05911289     0.01168796
      6      H    -0.94389383     0.96867129     0.31376376
      7      H    -1.14653845    -1.17783000     3.03422811
      8      H    -2.09192490     0.42710994     2.92360096
      9      H    -0.22970690     0.44715719     3.05667598
     10      C    -1.14751975    -0.10384716     2.89467235
     11      H    -1.89952176    -0.62288271     0.23813088
     12      H     2.33456211    -0.79728080    -0.53311742
     13     Sn     2.45841919     4.26850230     0.42850325
     14     Cl     4.40711279     5.14713422     1.52330826
     15     Cl     1.66335130     6.27020366    -0.63771515
 
Total System Charge             0.00000
 
 *** GOStep4 ***

 Energy gradients wrt nuclear displacements
 ==========================================

     Atom      Cartesian (a.u./angstrom)
                 X         Y         Z
 ----------------------------------------
     1 H    -0.000007 -0.000114 -0.000477
     2 C    -0.001102  0.001659  0.001170
     3 C     0.002509  0.001049  0.006302
     4 C    -0.003152  0.002997 -0.007551
     5 O     0.001121  0.001236  0.002939
     6 H     0.000234 -0.000036  0.000187
     7 H    -0.000101  0.000105  0.000882
     8 H    -0.000054 -0.000025  0.000323
     9 H    -0.000158  0.000037  0.000927
    10 C     0.001663 -0.000880 -0.005706
    11 H    -0.000982 -0.000685 -0.000586
    12 H     0.001063 -0.000503  0.002549
    13 Sn    0.002158  0.002137 -0.002037
    14 Cl   -0.005304 -0.001773 -0.002477
    15 Cl    0.002111 -0.005204  0.003555
 ----------------------------------------
 Mulliken charges used for AMS results%charges...
Hessian eigenvector     1(    -0.001) has overlap with TSRC:    0.39950E+00
Hessian eigenvector     1 has the largest overlap with TSRC:  0.39950
           Primitive Internal Coordinates (atoms in internal order)
-------------------------------------------------------------------------------
    index    type      i       j       k       l   value(A,deg)     Max Ovl Vect
-------------------------------------------------------------------------------
       1     bnd       1       3       0       0     1.08970301    -0.00031061
       2     bnd       2       6       0       0     1.08542595    -0.00058825
       3     bnd       2       3       0       0     1.35223808     0.03073678
       4     bnd       3       4       0       0     1.46845778    -0.00645644
       5     bnd       4      12       0       0     1.11447891    -0.00537432
       6     bnd       4       5       0       0     1.22478235     0.00544829
       7     bnd       8      10       0       0     1.08381428    -0.00031219
       8     bnd       7      10       0       0     1.08301242    -0.00040023
       9     bnd       9      10       0       0     1.08269636    -0.00029108
      10     bnd       2      11       0       0     1.08575704    -0.00155960
      11     bnd      13      15       0       0     2.40328171    -0.00851698
      12     bnd      13      14       0       0     2.40166584    -0.00776296
      13     bnd       2      10       0       0     2.68256281    -0.56230569
      14     bnd       5      13       0       0     3.31520560    -0.00939293
      15     bnd       3      10       0       0     3.33007722    -0.14988765
      16     bnd      10      13       0       0     6.18079489    -0.00902613
      17     ang       6       2       3       0   120.61194392    -0.01122003
      18     ang       6       2      11       0   117.68161820    -0.00603857
      19     ang       6       2      10       0    84.86272891    -0.01815853
      20     ang       3       2      11       0   121.19887625    -0.01112987
      21     ang       3       2      10       0   106.53470095     0.18517027
      22     ang      11       2      10       0    85.24488925    -0.02497810
      23     ang       1       3       2       0   120.35933069    -0.00291557
      24     ang       1       3       4       0   116.01263070     0.00191076
      25     ang       1       3      10       0   109.23429936     0.05432054
      26     ang       2       3       4       0   123.61781360     0.00097709
      27     ang       2       3      10       0    50.55583080    -0.17180915
      28     ang       4       3      10       0   110.93456574     0.08626974
      29     ang       3       4      12       0   114.72247124    -0.00071943
      30     ang       3       4       5       0   125.48818213    -0.00045091
      31     ang      12       4       5       0   119.75354617     0.00105186
      32     lai       4       5      13      14   179.50386871    -0.00115094
      33     ang       8      10       7       0   118.89214490    -0.00446630
      34     ang       8      10       9       0   119.03602076    -0.00629282
      35     ang       8      10       2       0    95.46433929     0.00936066
      36     ang       8      10       3       0   118.36806049    -0.00422084
      37     ang       8      10      13       0    99.93087344     0.03169714
      38     ang       7      10       9       0   118.98799252    -0.00718323
      39     ang       7      10       2       0    97.18852599     0.02386814
      40     ang       7      10       3       0    85.09948125     0.01916989
      41     ang       7      10      13       0   138.79849973    -0.01249607
      42     ang       9      10       2       0    94.91556232     0.01672309
      43     ang       9      10       3       0    83.86681280     0.03291370
      44     ang       9      10      13       0    37.35670260    -0.00963114
      45     ang       2      10      13       0    63.87416281     0.00753290
      46     ang       3      10      13       0    63.30359947     0.00536131
      47     ang      15      13      14       0    99.55285754     0.01958300
      48     ang      15      13       5       0   132.75068406    -0.03221700
      49     ang      15      13      10       0   124.97472883     0.11917296
      50     ang      14      13       5       0   125.97303453    -0.03517738
      51     ang      14      13      10       0   123.38674720     0.11533696
      52     ang       5      13      10       0    40.43363544    -0.00219694
      53     lao       4       5      13      14    86.11372342    -0.03239599
      54     dih       6       2       3       1   184.56458982     0.07334932
      55     dih       6       2       3       4     3.35403858     0.07701182
      56     dih       6       2       3      10    93.84878698     0.08970430
      57     dih      11       2       3       1    -3.79750553    -0.09911193
      58     dih      11       2       3       4   174.99194324    -0.09544943
      59     dih      11       2       3      10   265.48669163    -0.08275694
      60     dih      10       2       3       1    90.71580285    -0.01635498
      61     dih      10       2       3       4   -90.49474839    -0.01269249
      62     dih       1       3       4      12     2.81825766    -0.03709435
      63     dih       1       3       4       5   185.01262907     0.01799389
      64     dih       2       3       4      12   183.98054597    -0.04063176
      65     dih       2       3       4       5     6.17491738     0.01445649
      66     dih      10       3       4      12   128.20989235     0.11984705
      67     dih      10       3       4       5   -49.59573624     0.17493530
      68     dih       6       2      10       8    60.78264254     0.03030045
      69     dih       6       2      10       7   180.86727537     0.03215966
      70     dih       6       2      10       9   -59.05884592     0.03248522
      71     dih       6       2      10       3   239.55976964     0.00058731
      72     dih       6       2      10      13   -37.61515618    -0.00070969
      73     dih       3       2      10       8   181.22287290     0.02971315
      74     dih       3       2      10       7   -58.69249427     0.03157236
      75     dih       3       2      10       9    61.38138444     0.03189791
      76     dih       3       2      10      13    82.82507418    -0.00129700
      77     dih      11       2      10       8   -57.61063688     0.02934405
      78     dih      11       2      10       7    62.47399595     0.03120326
      79     dih      11       2      10       9   182.54787466     0.03152882
      80     dih      11       2      10       3   121.16649022    -0.00036909
      81     dih      11       2      10      13   203.99156440    -0.00166610
      82     dih       1       3      10       8   247.42148712     0.08452407
      83     dih       1       3      10       7     7.74084518     0.08946199
      84     dih       1       3      10       9   127.63620811     0.07415113
      85     dih       1       3      10       2   246.03800849     0.05102315
      86     dih       1       3      10      13   160.41112474     0.03946676
      87     dih       2       3      10       8     1.38347862     0.03350091
      88     dih       2       3      10       7   121.70283668     0.03843884
      89     dih       2       3      10       9   241.59819962     0.02312798
      90     dih       2       3      10      13   -85.62688375    -0.01155639
      91     dih       4       3      10       8   118.31208209    -0.03418981
      92     dih       4       3      10       7   238.63144016    -0.02925189
      93     dih       4       3      10       9    -1.47319691    -0.04456275
      94     dih       4       3      10       2   116.92860347    -0.06769073
      95     dih       4       3      10      13    31.30171972    -0.07924712
      96     dih       8      10      13      15   -13.94955178    -0.11299431
      97     dih       8      10      13      14   120.76694912     0.22750576
      98     dih       8      10      13       5   228.90100524     0.05523827
      99     dih       7      10      13      15   146.89672924    -0.05161836
     100     dih       7      10      13      14   -78.38676986     0.28888171
     101     dih       7      10      13       5    29.74728626     0.11661423
     102     dih       9      10      13      15   220.40915391    -0.06198107
     103     dih       9      10      13      14    -4.87434520     0.27851901
     104     dih       9      10      13       5   103.25971092     0.10625152
     105     dih       2      10      13      15    77.29992566    -0.11669107
     106     dih       2      10      13      14   212.01642656     0.22380900
     107     dih       2      10      13       5   -39.84951732     0.05154151
     108     dih       3      10      13      15   102.91434029    -0.13323159
     109     dih       3      10      13      14   237.63084118     0.20726848
     110     dih       3      10      13       5   -14.23510270     0.03500099
     111     dih      12       4      13      14   -41.90564876     0.12404404
 
----------------------------------------------------------------------
Geometry Convergence after Step   4       (Hartree/Angstrom,Angstrom)
----------------------------------------------------------------------
current energy                               -2.66582928 Hartree
energy change                      -0.00000365     0.00015000    T
constrained gradient max            0.00755744     0.00100000    F
constrained gradient rms            0.00250617     0.00066667    F
gradient max                        0.00755744
gradient rms                        0.00250617
cart. step max                      0.07232910     0.01000000    F
cart. step rms                      0.02163515     0.00666667    F
 
 
--------
Geometry
--------
Formula: C4H7Cl2OSn
Atoms
  Index Symbol   x (angstrom)   y (angstrom)   z (angstrom)
      1      H     0.19656188    -1.84731760    -0.24601580
      2      C    -0.94744297    -0.12280805     0.22838284
      3      C     0.19991215    -0.77098450    -0.07642262
      4      C     1.50011980    -0.10120338    -0.20913954
      5      O     1.72007754     1.08000871     0.02714272
      6      H    -0.96293192     0.95831360     0.32466355
      7      H    -1.14642319    -1.19607883     3.03027187
      8      H    -2.10191071     0.40367271     2.92680010
      9      H    -0.23942717     0.43436870     3.05976562
     10      C    -1.15426201    -0.12135097     2.89707208
     11      H    -1.89995858    -0.64562110     0.24975883
     12      H     2.33297088    -0.76314571    -0.55675255
     13     Sn     2.43002385     4.29331632     0.47726676
     14     Cl     4.42952580     5.14913095     1.51042946
     15     Cl     1.73568040     6.27444869    -0.70643568
 
Total System Charge             0.00000
 
 *** GOStep5 ***

 Energy gradients wrt nuclear displacements
 ==========================================

     Atom      Cartesian (a.u./angstrom)
                 X         Y         Z
 ----------------------------------------
     1 H    -0.000020 -0.000140 -0.000198
     2 C    -0.000067  0.002396  0.001306
     3 C     0.001766  0.000952  0.002478
     4 C    -0.005005  0.004611  0.002036
     5 O     0.000677  0.001341  0.000584
     6 H     0.000188  0.000156 -0.000153
     7 H    -0.000053  0.000075  0.000714
     8 H    -0.000069 -0.000031  0.000219
     9 H    -0.000070  0.000006  0.000811
    10 C     0.001427 -0.000738 -0.005297
    11 H    -0.001983 -0.001506  0.000201
    12 H     0.003985 -0.002804 -0.001610
    13 Sn    0.001251 -0.001870 -0.002661
    14 Cl   -0.003272 -0.000177 -0.001173
    15 Cl    0.001247 -0.002271  0.002742
 ----------------------------------------
 Mulliken charges used for AMS results%charges...
Hessian eigenvector     1(    -0.004) has overlap with TSRC:    0.27632E+00
Hessian eigenvector     1 has the largest overlap with TSRC:  0.27632
           Primitive Internal Coordinates (atoms in internal order)
-------------------------------------------------------------------------------
    index    type      i       j       k       l   value(A,deg)     Max Ovl Vect
-------------------------------------------------------------------------------
       1     bnd       1       3       0       0     1.08961737    -0.00074673
       2     bnd       2       6       0       0     1.08551090    -0.00078533
       3     bnd       2       3       0       0     1.35257637     0.02057167
       4     bnd       3       4       0       0     1.46859132    -0.00315889
       5     bnd       4      12       0       0     1.11921552    -0.00707529
       6     bnd       4       5       0       0     1.22452959     0.00702486
       7     bnd       8      10       0       0     1.08377658    -0.00047398
       8     bnd       7      10       0       0     1.08297904    -0.00046026
       9     bnd       9      10       0       0     1.08268940    -0.00047390
      10     bnd       2      11       0       0     1.08677339    -0.00442942
      11     bnd      13      15       0       0     2.41001033     0.01316823
      12     bnd      13      14       0       0     2.40787290     0.01223063
      13     bnd       2      10       0       0     2.67669171    -0.39006032
      14     bnd       5      13       0       0     3.32144264     0.02187015
      15     bnd       3      10       0       0     3.33128835    -0.08755781
      16     bnd      10      13       0       0     6.17995552    -0.01450219
      17     ang       6       2       3       0   120.62188579    -0.00706515
      18     ang       6       2      11       0   117.70201609    -0.00565148
      19     ang       6       2      10       0    84.83203743    -0.01376739
      20     ang       3       2      11       0   121.15641740    -0.00863210
      21     ang       3       2      10       0   106.88682528     0.13745169
      22     ang      11       2      10       0    85.00494004    -0.01710740
      23     ang       1       3       2       0   120.38714987    -0.00164383
      24     ang       1       3       4       0   116.05072746     0.00031753
      25     ang       1       3      10       0   109.28760274     0.03781314
      26     ang       2       3       4       0   123.56085665     0.00138191
      27     ang       2       3      10       0    50.25107605    -0.12558435
      28     ang       4       3      10       0   110.58640160     0.07217748
      29     ang       3       4      12       0   114.65478438    -0.00435095
      30     ang       3       4       5       0   125.55825597     0.00231155
      31     ang      12       4       5       0   119.78689663     0.00173528
      32     lai       4       5      13      14   180.23918908     0.01237962
      33     ang       8      10       7       0   118.92755975    -0.00183610
      34     ang       8      10       9       0   119.08193835    -0.00275446
      35     ang       8      10       2       0    95.46129439     0.00711738
      36     ang       8      10       3       0   118.32010819    -0.00474329
      37     ang       8      10      13       0    99.89346074     0.02024050
      38     ang       7      10       9       0   118.99729905    -0.00396245
      39     ang       7      10       2       0    96.98022009     0.00657663
      40     ang       7      10       3       0    85.02722257     0.01235502
      41     ang       7      10      13       0   138.83969221    -0.00519700
      42     ang       9      10       2       0    94.86512696     0.01014144
      43     ang       9      10       3       0    83.72750629     0.01501788
      44     ang       9      10      13       0    37.07091150    -0.02228698
      45     ang       2      10      13       0    64.22672282     0.02524242
      46     ang       3      10      13       0    63.51511304     0.01413370
      47     ang      15      13      14       0    99.08025383     0.03865199
      48     ang      15      13       5       0   131.84637692    -0.05725894
      49     ang      15      13      10       0   127.76668599     0.20599312
      50     ang      14      13       5       0   125.41511994    -0.04676498
      51     ang      14      13      10       0   124.57682550     0.09751501
      52     ang       5      13      10       0    40.35903974     0.00064445
      53     lao       4       5      13      14    86.17558252    -0.03517638
      54     dih       6       2       3       1   184.62410593     0.05155632
      55     dih       6       2       3       4     4.19829131     0.04418958
      56     dih       6       2       3      10    94.03117220     0.06676508
      57     dih      11       2       3       1    -3.83490744    -0.07826125
      58     dih      11       2       3       4   175.73927793    -0.08562800
      59     dih      11       2       3      10   265.57215882    -0.06305249
      60     dih      10       2       3       1    90.59293374    -0.01520876
      61     dih      10       2       3       4   -89.83288088    -0.02257551
      62     dih       1       3       4      12     4.93734147    -0.07522704
      63     dih       1       3       4       5   185.02940851     0.06618240
      64     dih       2       3       4      12   185.34619800    -0.06817003
      65     dih       2       3       4       5     5.43826503     0.07323941
      66     dih      10       3       4      12   130.13145231     0.04418818
      67     dih      10       3       4       5   -49.77648065     0.18559762
      68     dih       6       2      10       8    60.45873886    -0.00142626
      69     dih       6       2      10       7   180.54101444    -0.00059285
      70     dih       6       2      10       9   -59.42090579    -0.00140995
      71     dih       6       2      10       3   239.53310486    -0.00081021
      72     dih       6       2      10      13   -37.90769663    -0.02120175
      73     dih       3       2      10       8   180.92563400    -0.00061605
      74     dih       3       2      10       7   -58.99209042     0.00021736
      75     dih       3       2      10       9    61.04598935    -0.00059974
      76     dih       3       2      10      13    82.55919851    -0.02039155
      77     dih      11       2      10       8   -57.99539018    -0.00075235
      78     dih      11       2      10       7    62.08688540     0.00008106
      79     dih      11       2      10       9   182.12496517    -0.00073604
      80     dih      11       2      10       3   121.07897582    -0.00013630
      81     dih      11       2      10      13   203.63817433    -0.02052785
      82     dih       1       3      10       8   247.09311703     0.03426165
      83     dih       1       3      10       7     7.40160079     0.03819388
      84     dih       1       3      10       9   127.34169325     0.02992400
      85     dih       1       3      10       2   246.04639201     0.03502052
      86     dih       1       3      10      13   159.98459327    -0.00164141
      87     dih       2       3      10       8     1.04672501    -0.00075888
      88     dih       2       3      10       7   121.35520877     0.00317335
      89     dih       2       3      10       9   241.29530124    -0.00509652
      90     dih       2       3      10      13   -86.06179875    -0.03666194
      91     dih       4       3      10       8   118.15625323    -0.05694461
      92     dih       4       3      10       7   238.46473699    -0.05301238
      93     dih       4       3      10       9    -1.59517054    -0.06128226
      94     dih       4       3      10       2   117.10952822    -0.05618574
      95     dih       4       3      10      13    31.04772947    -0.09284767
      96     dih       8      10      13      15   -17.69618408    -0.23080153
      97     dih       8      10      13      14   123.24224140     0.23392690
      98     dih       8      10      13       5   229.25171500     0.06241701
      99     dih       7      10      13      15   143.30476865    -0.17648129
     100     dih       7      10      13      14   -75.75680586     0.28824715
     101     dih       7      10      13       5    30.25266773     0.11673726
     102     dih       9      10      13      15   216.31341703    -0.21179555
     103     dih       9      10      13      14    -2.74815749     0.25293288
     104     dih       9      10      13       5   103.26131611     0.08142299
     105     dih       2      10      13      15    73.62570878    -0.22851073
     106     dih       2      10      13      14   214.56413426     0.23621771
     107     dih       2      10      13       5   -39.42639214     0.06470782
     108     dih       3      10      13      15    99.11954315    -0.24664287
     109     dih       3      10      13      14   240.05796864     0.21808556
     110     dih       3      10      13       5   -13.93255777     0.04657568
     111     dih      12       4      13      14   -41.01139063     0.20802657
 
----------------------------------------------------------------------
Geometry Convergence after Step   5       (Hartree/Angstrom,Angstrom)
----------------------------------------------------------------------
current energy                               -2.66615536 Hartree
energy change                      -0.00032608     0.00015000    F
constrained gradient max            0.00528829     0.00100000    F
constrained gradient rms            0.00196498     0.00066667    F
[...]
     8     H      -0.003390   0.002182  -0.013757
     9     H      -0.002608   0.000155  -0.012312
    10     C       0.002365  -0.004702   0.006410
    11     H      -0.019349  -0.029655   0.299411
    12     H       0.060466   0.163855  -0.093191
    13    Sn       0.000084  -0.000331  -0.000187
    14    Cl      -0.000025  -0.000010   0.000144
    15    Cl      -0.000196   0.000294   0.000264
 
 Mode:    30      Frequency (cm-1):     1024.2267     Intensity (km/mol):        0.7778
 Index  Atom      ---- Displacements (x/y/z) ----
     1     H      -0.079871   0.075899  -0.211257
     2     C      -0.000670  -0.005152  -0.001467
     3     C       0.044723  -0.012933   0.091340
     4     C      -0.094498   0.046751  -0.187397
     5     O       0.020702  -0.015549   0.042875
     6     H       0.024004   0.012665  -0.018494
     7     H       0.000871   0.000753  -0.001056
     8     H      -0.000117  -0.000407  -0.000800
     9     H       0.000802   0.000168  -0.001147
    10     C       0.000463  -0.000144   0.001601
    11     H      -0.057151   0.034658  -0.099462
    12     H       0.380299  -0.241277   0.815880
    13    Sn       0.000011   0.000249  -0.000116
    14    Cl      -0.000038  -0.000167  -0.000017
    15    Cl      -0.000067   0.000026  -0.000218
 
 Mode:    31      Frequency (cm-1):     1062.4902     Intensity (km/mol):        3.5427
 Index  Atom      ---- Displacements (x/y/z) ----
     1     H      -0.437336  -0.445489   0.187044
     2     C       0.032809   0.096817   0.019217
     3     C      -0.010899  -0.159217  -0.042225
     4     C      -0.001445   0.019862  -0.010875
     5     O       0.012048   0.071002   0.018190
     6     H      -0.393222  -0.175657   0.203287
     7     H      -0.002077  -0.000223   0.000478
     8     H       0.000511  -0.005059   0.000839
     9     H       0.003960  -0.001172  -0.003215
    10     C      -0.000301   0.000930  -0.000852
    11     H       0.354007  -0.152512  -0.335557
    12     H       0.065978   0.181377   0.076771
    13    Sn      -0.000124  -0.000316  -0.000055
    14    Cl      -0.000050   0.000009  -0.000072
    15    Cl      -0.000190   0.000132   0.000123
 
 Mode:    32      Frequency (cm-1):     1274.6871     Intensity (km/mol):       11.4069
 Index  Atom      ---- Displacements (x/y/z) ----
     1     H      -0.708062  -0.275429   0.286301
     2     C       0.089861  -0.082602  -0.057606
     3     C      -0.065429   0.086998   0.052088
     4     C       0.009611   0.004740  -0.001881
     5     O      -0.009839   0.013429   0.008228
     6     H       0.459468   0.137391  -0.221567
     7     H       0.009391   0.005092  -0.000723
     8     H       0.002810   0.011954   0.010864
     9     H      -0.002126  -0.001600   0.008299
    10     C      -0.001490  -0.000245  -0.005238
    11     H       0.048934  -0.033631  -0.034295
    12     H      -0.032181  -0.146477  -0.028559
    13    Sn      -0.000128  -0.000134  -0.000027
    14    Cl       0.000045  -0.000010   0.000132
    15    Cl       0.000115   0.000001  -0.000053
 
 Mode:    33      Frequency (cm-1):     1377.0303     Intensity (km/mol):        7.2103
 Index  Atom      ---- Displacements (x/y/z) ----
     1     H      -0.022331  -0.013193   0.005082
     2     C       0.001819  -0.002259  -0.001710
     3     C       0.007235   0.002803  -0.002701
     4     C       0.003865  -0.002302  -0.002145
     5     O      -0.004062   0.006211   0.003395
     6     H      -0.022075  -0.015430   0.005960
     7     H      -0.486190  -0.242194   0.107152
     8     H       0.016398  -0.773435  -0.114843
     9     H       0.224654  -0.034888  -0.114859
    10     C       0.020382   0.088006   0.010656
    11     H      -0.031309   0.021024   0.021489
    12     H      -0.011822  -0.069528  -0.013391
    13    Sn       0.000001   0.000003   0.000042
    14    Cl       0.000011   0.000079  -0.000105
    15    Cl       0.000003  -0.000029  -0.000017
 
 Mode:    34      Frequency (cm-1):     1383.5149     Intensity (km/mol):       11.5795
 Index  Atom      ---- Displacements (x/y/z) ----
     1     H      -0.042243  -0.033235   0.012214
     2     C       0.004097  -0.001701  -0.002731
     3     C       0.021160   0.004115  -0.008926
     4     C       0.005433  -0.003390  -0.003940
     5     O      -0.007670   0.011803   0.006933
     6     H      -0.086459  -0.051728   0.027452
     7     H      -0.459805  -0.323895  -0.008799
     8     H       0.084567   0.180790   0.081086
     9     H      -0.634927   0.380166   0.172330
    10     C       0.084649  -0.019975  -0.019803
    11     H      -0.082809   0.059232   0.052434
    12     H      -0.027888  -0.149781  -0.026913
    13    Sn      -0.000018   0.000039   0.000027
    14    Cl       0.000015  -0.000048  -0.000040
    15    Cl      -0.000011  -0.000068  -0.000005
 
 Mode:    35      Frequency (cm-1):     1388.1286     Intensity (km/mol):      100.4148
 Index  Atom      ---- Displacements (x/y/z) ----
     1     H       0.109292   0.112884  -0.026172
     2     C      -0.000861   0.001837   0.001937
     3     C      -0.078344  -0.003270   0.038215
     4     C      -0.044346   0.012348   0.024456
     5     O       0.043214  -0.063330  -0.037953
     6     H       0.281193   0.155012  -0.089027
     7     H      -0.167166  -0.107340   0.010069
     8     H       0.024523  -0.036516   0.008837
     9     H      -0.136068   0.092055   0.030333
    10     C       0.023352   0.004951  -0.007238
    11     H       0.255810  -0.175081  -0.159638
    12     H       0.129476   0.784075   0.150748
    13    Sn       0.000018  -0.000105  -0.000160
    14    Cl       0.000093  -0.000112   0.000368
    15    Cl       0.000137   0.000216   0.000010
 
 Mode:    36      Frequency (cm-1):     1414.9020     Intensity (km/mol):       28.3210
 Index  Atom      ---- Displacements (x/y/z) ----
     1     H      -0.310753  -0.150375   0.113283
     2     C       0.035915  -0.031376  -0.021732
     3     C       0.093415   0.073448  -0.025830
     4     C      -0.083743  -0.021350   0.033930
     5     O       0.034854  -0.042694  -0.028245
     6     H      -0.363928  -0.238632   0.079755
     7     H       0.038127   0.025777  -0.002015
     8     H      -0.007606  -0.000894  -0.005946
     9     H       0.040380  -0.025745  -0.008985
    10     C      -0.006038  -0.000100   0.002841
    11     H      -0.453296   0.318786   0.276463
    12     H       0.021937   0.487885   0.124761
    13    Sn       0.000076   0.000126  -0.000019
    14    Cl       0.000001  -0.000038   0.000067
    15    Cl       0.000059   0.000046  -0.000018
 
 Mode:    37      Frequency (cm-1):     1541.8723     Intensity (km/mol):      449.1955
 Index  Atom      ---- Displacements (x/y/z) ----
     1     H       0.219018   0.202573  -0.064229
     2     C       0.256899   0.016808  -0.096395
     3     C      -0.275348  -0.101926   0.113202
     4     C       0.043011   0.266410   0.050868
     5     O       0.017370  -0.128560  -0.043271
     6     H      -0.459410  -0.377077   0.040553
     7     H       0.009329   0.007107   0.007798
     8     H       0.001628  -0.003708   0.000515
     9     H       0.012330  -0.009748  -0.001892
    10     C      -0.003246   0.003037  -0.013679
    11     H      -0.217555   0.386702   0.115035
    12     H      -0.052893  -0.260119  -0.045144
    13    Sn      -0.000636  -0.000699  -0.000222
    14    Cl       0.000326  -0.000151   0.000934
    15    Cl       0.000646  -0.000340  -0.000425
 
 Mode:    38      Frequency (cm-1):     1632.5060     Intensity (km/mol):      191.6803
 Index  Atom      ---- Displacements (x/y/z) ----
     1     H      -0.292564  -0.317124   0.058388
     2     C      -0.177171   0.005287   0.084335
     3     C       0.200809  -0.012410  -0.103621
     4     C      -0.081997   0.379160   0.142080
     5     O       0.056852  -0.224134  -0.088209
     6     H       0.223895   0.252804  -0.017928
     7     H      -0.010830  -0.004357  -0.005278
     8     H      -0.000096  -0.005279  -0.008965
     9     H      -0.005357   0.004882  -0.011344
    10     C       0.002172   0.000083   0.003727
    11     H       0.161237  -0.272775  -0.123820
    12     H      -0.260064  -0.436418   0.009769
    13    Sn      -0.000792  -0.000441  -0.000045
    14    Cl       0.000358  -0.000172   0.000772
    15    Cl       0.000932  -0.001063  -0.000829
 
 Mode:    39      Frequency (cm-1):     2976.6019     Intensity (km/mol):       18.6421
 Index  Atom      ---- Displacements (x/y/z) ----
     1     H       0.025445  -0.044127  -0.024002
     2     C      -0.000060  -0.000434  -0.000168
     3     C      -0.003998   0.001966   0.002448
     4     C       0.075689  -0.007958  -0.038263
     5     O      -0.000501  -0.000856  -0.000074
     6     H      -0.002209   0.001615   0.001646
     7     H      -0.000119   0.000508   0.000091
     8     H       0.000411   0.000027   0.000097
     9     H      -0.000138  -0.000521   0.000076
    10     C      -0.000028  -0.000024   0.000074
    11     H       0.003769   0.003996  -0.000347
    12     H      -0.878588   0.120689   0.450580
    13    Sn       0.000057   0.000022   0.000003
    14    Cl      -0.000013   0.000028  -0.000032
    15    Cl       0.000014   0.000133   0.000040
 
 Mode:    40      Frequency (cm-1):     3065.3405     Intensity (km/mol):        0.2447
 Index  Atom      ---- Displacements (x/y/z) ----
     1     H      -0.000585   0.001778   0.000791
     2     C       0.001580  -0.000117  -0.000677
     3     C       0.000003  -0.000013  -0.000085
     4     C      -0.000112  -0.000335  -0.000057
     5     O      -0.000005   0.000185   0.000061
     6     H      -0.007113   0.016025   0.006131
     7     H      -0.283862   0.483771   0.095151
     8     H       0.578040   0.021906  -0.156477
     9     H      -0.287625  -0.479068  -0.064980
    10     C      -0.000528  -0.002275   0.010778
    11     H      -0.010221  -0.014246   0.000144
    12     H       0.000551   0.000048  -0.000273
    13    Sn      -0.000003  -0.000003  -0.000007
    14    Cl       0.000001  -0.000009   0.000020
    15    Cl      -0.000000   0.000004   0.000003
 
 Mode:    41      Frequency (cm-1):     3120.2942     Intensity (km/mol):        3.3632
 Index  Atom      ---- Displacements (x/y/z) ----
     1     H      -0.107311   0.261719   0.120041
     2     C       0.058080  -0.001042  -0.021507
     3     C       0.004472  -0.022177  -0.007861
     4     C       0.001984  -0.000876  -0.001208
     5     O      -0.000329   0.000463   0.000291
     6     H      -0.244453   0.570022   0.227127
     7     H       0.008746  -0.014920  -0.003153
     8     H      -0.013082  -0.000437   0.003676
     9     H       0.006899   0.012141   0.001262
    10     C      -0.000417   0.000353  -0.000517
    11     H      -0.393665  -0.555738   0.008426
    12     H      -0.015508   0.002347   0.008175
    13    Sn       0.000001   0.000000  -0.000002
    14    Cl       0.000000  -0.000002   0.000004
    15    Cl      -0.000001   0.000008   0.000004
 
 Mode:    42      Frequency (cm-1):     3132.3611     Intensity (km/mol):        6.5830
 Index  Atom      ---- Displacements (x/y/z) ----
     1     H      -0.329785   0.799480   0.368221
     2     C      -0.021847   0.010147   0.010926
     3     C       0.031404  -0.068733  -0.033362
     4     C       0.005533   0.001395  -0.002239
     5     O      -0.000075   0.000148   0.000069
     6     H       0.106624  -0.247889  -0.098782
     7     H      -0.002273   0.004132   0.000446
     8     H       0.003940   0.000316  -0.001157
     9     H      -0.001280  -0.002206  -0.000182
    10     C       0.000038  -0.000269   0.000337
    11     H       0.089333   0.125286  -0.002124
    12     H      -0.046156   0.001562   0.022159
    13    Sn       0.000010   0.000006   0.000003
    14    Cl      -0.000005   0.000006  -0.000013
    15    Cl      -0.000010   0.000005   0.000007
 
 Mode:    43      Frequency (cm-1):     3219.5492     Intensity (km/mol):        0.2308
 Index  Atom      ---- Displacements (x/y/z) ----
     1     H      -0.035150   0.080838   0.038171
     2     C      -0.013442  -0.096956  -0.018484
     3     C       0.003375  -0.007759  -0.003691
     4     C       0.000383   0.000002  -0.000162
     5     O      -0.000140   0.000250   0.000117
     6     H      -0.268599   0.586893   0.241631
     7     H       0.007665  -0.012529  -0.002808
     8     H      -0.008923  -0.000001   0.002623
     9     H      -0.012377  -0.020469  -0.002815
    10     C       0.001165   0.003008   0.000311
    11     H       0.420312   0.572691  -0.015874
    12     H       0.000717  -0.000561  -0.000569
    13    Sn       0.000001   0.000002   0.000000
    14    Cl      -0.000000  -0.000001  -0.000000
    15    Cl      -0.000003  -0.000002   0.000001
 
 Mode:    44      Frequency (cm-1):     3245.0967     Intensity (km/mol):        1.2533
 Index  Atom      ---- Displacements (x/y/z) ----
     1     H       0.000195  -0.000420  -0.000289
     2     C      -0.000169  -0.000418   0.000047
     3     C       0.000088  -0.000015   0.000004
     4     C       0.000035   0.000064  -0.000011
     5     O      -0.000002  -0.000028  -0.000005
     6     H      -0.000334  -0.000097   0.000791
     7     H       0.282503  -0.508531  -0.089976
     8     H       0.739036   0.036139  -0.208480
     9     H       0.101976   0.202596   0.033638
    10     C      -0.094532   0.022748   0.022155
    11     H       0.002741   0.004269   0.000169
    12     H      -0.000018  -0.000015  -0.000032
    13    Sn       0.000000   0.000001   0.000001
    14    Cl       0.000000  -0.000002  -0.000002
    15    Cl       0.000001  -0.000002  -0.000001
 
 Mode:    45      Frequency (cm-1):     3254.2446     Intensity (km/mol):        0.1825
 Index  Atom      ---- Displacements (x/y/z) ----
     1     H       0.000861  -0.001629  -0.000719
     2     C       0.000212   0.002815   0.000618
     3     C      -0.000018   0.000132   0.000035
     4     C      -0.000038  -0.000065  -0.000018
     5     O       0.000007   0.000035  -0.000002
     6     H       0.008796  -0.019308  -0.007143
     7     H       0.293264  -0.479290  -0.088999
     8     H      -0.192107   0.007051   0.056835
     9     H      -0.409564  -0.668949  -0.100013
    10     C       0.025943   0.096032   0.011162
    11     H      -0.011978  -0.016029  -0.000490
    12     H      -0.000048  -0.000052   0.000099
    13    Sn      -0.000001  -0.000001  -0.000004
    14    Cl       0.000002  -0.000002   0.000010
    15    Cl      -0.000001   0.000002   0.000002

PES point character: Geometry corresponds to a transition state.
                     (Hint: Very small negative frequencies do not count towards being a
                     transition state, as they usually indicate noise on a very flat PES. See
                     the PESPointCharacter%NegativeFrequenciesTolerance keyword documentation.)




 ============================
 Statistical Thermal Analysis  ***  ideal gas assumed  ***
 ============================
  
 Pressure:                  1.000000 atm.
 Temperature:             298.150000 K



 Moments of Inertia [amu*bohr^2] and principal axis
 ==================================================

        1647.5273       4209.8414       4910.7974
 ------------------------------------------------
           0.6177         -0.0374         -0.7856
           0.7648          0.2614          0.5889
          -0.1833          0.9645         -0.1901


 The rotational contribution to the molecular entropy includes
 a term, dependent on the symmetry number sigma. The results 
 reported below were computed using sigma = 1, determined from
 the point group symmetry of the input geometry (NOSYM). 
 If this is not the correct symmetry, try symmetrizing the molecule before
 running the calculation (note: linear molecules should be aligned along one
 of the Cartesian axes).
 Contributions from frequencies below 20 1/cm are not included in vibrational sums.
 Their contributions, if any, are reported separately.


     Temp                                                        Transl      Rotat     Vibrat     Total
     ----                                                        ------      -----     ------     -----

     298.15   Entropy (cal/mol-K):                               42.576     31.899     44.239    118.715
              Nuclear Internal Energy (kcal/mol):                 0.889      0.889     65.852     67.629
              Constant Volume Heat Capacity (cal/mol-K):          2.981      2.981     32.640     38.602
          (c) Constant Volume Heat Capacity (cal/mol-K):          2.981      2.981     28.621     34.582

 Contributions from frequencies below 20 1/cm
 Frequency (1/cm):                                   15.402
 Entropy (cal/mol-K):                                 7.153
 Nuclear Internal Energy (kcal/mol):                  0.593
 Constant Volume Heat Capacity (cal/mol-K):           1.986

       Summary of energy terms
                                                   hartree              eV         kcal/mol           kJ/mol
                                      --------------------     -----------       ----------      -----------
      Energy from Engine:               -2.679608213784307        -72.9158         -1681.48         -7035.31
      Nuclear Internal Energy:           0.107774396606007          2.9327            67.63           282.96
  (c) Nuclear Internal Energy:           0.105717746753867          2.8767            66.34           277.56
      Internal Energy U:                -2.571833817178300        -69.9832         -1613.85         -6752.35
      pV/n = RT:                         0.000944186013486          0.0257             0.59             2.48
      Enthalpy H:                       -2.570889631164814        -69.9575         -1613.26         -6749.87
      -T*S:                             -0.056405255130630         -1.5349           -35.39          -148.09
  (c) -T*S:                             -0.056109915391382         -1.5268           -35.21          -147.32
      Gibbs free energy:                -2.627294886295444        -71.4923         -1648.65         -6897.96
 
 
 
  (c) The properties marked with this symbol have been corrected using 'low vibrational frequency free rotor
      interpolation corrections'. For those terms all positive frequencies are used (also ones below 20 1/cm),
      but the contribution to the partition function of small vibrational frequencies is modified as described
      in the following paper:
      S. Grimme, 'Supramolecular Binding Thermodynamics by Dispersion-Corrected Density Functional Theory'
      (Chem. Eur. J. 2012, 18, 9955-9964)
      Configuration: Dampener Frequency          :   100.000 1/cm
                     Dampener Alpha              :     4.000
                     Averaging Moment of Inertia : 1.000E-44 kg m2

--------------
Atomic charges
--------------
  Index   Atom    Charge
      1      H   -0.2108
      2      C    0.4950
      3      C    0.1716
      4      C    0.7292
      5      O   -0.5678
      6      H   -0.1746
      7      H   -0.1551
      8      H   -0.1611
      9      H   -0.1241
     10      C    0.5326
     11      H   -0.2030
     12      H   -0.2154
     13     Sn    0.7193
     14     Cl   -0.4150
     15     Cl   -0.4209


Dipole moment vector    (Debye):    -6.00782438   -3.76950287   -0.63839927
              magnitude (Debye):     7.12114171


Final PES point is a transition state. Transition state search successful!


AMS application finished. Exiting.
NORMAL TERMINATION
     Total cpu time:   71826.74
  Total system time:     388.52
 Total elapsed time:  145580.33
 WARNING: total elapsed time is much higher than the (CPU+system) time. 
 Make sure the machine is not oversubscribed and has enough memory, SCM_TMPDIR p
 oints to a fast file system, and the network is fast enough.
