

 Parallel Execution: Process Information
 ==============================================================================
 Rank   Node Name                              NodeID   MyNodeRank  NodeMaster
    0   node125                                   0          0          0
    1   node125                                   0          1         -1
    2   node125                                   0          2         -1
    3   node125                                   0          3         -1
 ==============================================================================


May use up to 61518MB of RAM as shared memory on node 0

 *******************************************************************************
 *                                                                             *
 *  --------------------------------                                           *
 *   Amsterdam Modeling Suite (AMS)              2021.102                      *
 *  --------------------------------                                           *
 *                                               r95042 2021-06-07             *
 *                                                                             *
 *                                                                             *
 *                              =================                              *
 *                              |               |                              *
 *                              |     A M S     |                              *
 *                              |               |                              *
 *                              =================                              *
 *                                                                             *
 *                                                                             *
 *   Online information and documentation:  https://www.scm.com/support/       *
 *   E-mail:  support@scm.com   info@scm.com                                   *
 *                                                                             *
 *   Scientific publications using AMS results must be properly referenced     *
 *   See the User Manuals (or the web site) for recommended citations          *
 *   The terms and conditions of the End User License Agreement apply to       *
 *   the use of AMS, https://www.scm.com/license-terms/                        *
 *                                                                             *
 **********************  x86_64_linux_intel / intelmpi  ************************
 
 Licensed to: VU/FEW (+ SARA) / ALGEMEEN / Amsterdam / THE NETHERLANDS
 SCM User ID: u7668
  
 AMS 2021.102  RunTime: Jan24-2022 14:08:01  ShM Nodes: 1  Procs: 4

 AMS jobname: 2.achiral_catalyst.H_H_I2.Rrad
 AMS jobid  : 1562826440

 Start   directory: /scistor/tc/yhk800/MasterProject/calculations/achiral_catalyst_H_H_I2.002/2.achiral_catalyst.H_H_I2.Rrad/
 Results directory: /scistor/tc/yhk800/MasterProject/calculations/achiral_catalyst_H_H_I2.002/2.achiral_catalyst.H_H_I2.Rrad/
 Scratch directory: /scratch/4121/amstmp_2.achiral_catalyst.H_H_I2.Rrad_kid0.1562826440/


 Communication costs MPI_COMM_WORLD:      0.756 usec per message,   0.0032 usec per 8-byte item
 Communication costs for intra-node:      0.763 usec per message,   0.0031 usec per 8-byte item

 RNG seed: -938368378 1525833687 116876553 -2044794306 -1626663288 -241122294 -446969318 233313594



                      ************************************************************************
                      *  ADF 2021.102  RunTime: Jan24-2022 14:08:02  ShM Nodes: 1  Procs: 4  *
                      ************************************************************************
  
       ***************************
       *  GEOMETRY OPTIMIZATION  *
       ***************************

Optimization Method                    Quasi Newton
Optimization Coordinates               Delocalized Coordinates
Optimize lattice                       F
 
 ------------------------------------------------------
 Convergence criteria (Hartree,Angstrom)
 ------------------------------------------------------
 Maximum gradient               0.001000000000
 Maximum rms gradient           0.000666666667
 Maximum step allowed           0.010000000000
 Maximum rms step allowed       0.006666666667
 Maximum energy change allowe   0.000040000000
 Maximum stress energy allowe   0.000500000000
 
Initial model Hessian                  Automatic Hessian
 
------------------------------------
Quasi-Newton Optimizer Parameters
------------------------------------
Hessian Update Method                  BFGS
Maximum number of steps                  250
First GDIIS cycle                          0
Maximum GDIIS vectors                      0
Trust radius (bohr)                        0.200000
Trust radius varies                        T
Constraints converged at all steps         T
Use projector                              T
 
 Rigid motions settings for: old optimizer
 Atomic rotations (x,y,z):     T T T
 Atomic translations (x,y,z):  T T T
 Tolerance:                   1.000000000000000E-006
 
--------
Geometry
--------
Formula: CH3
Atoms
  Index Symbol   x (angstrom)   y (angstrom)   z (angstrom)
      1      H     2.05357037    -0.80344073     0.00000000
      2      C     0.97293718    -0.69574113     0.00000000
      3      H     0.66346652    -0.15035116     0.88661716
      4      H     0.66346652     0.15035116    -0.88661716
 
Total System Charge             0.00000
 
 
----------------
ADF Engine Input
----------------
 
 NumericalQuality VeryGood
 SCF
 Converge 1.0e-6
 Iterations 99
 End
 SYMMETRY NOSYM
 SpinPolarization 1.0
 Unrestricted Yes
 XC
 GGA OLYP
 End
 basis
 core None
 type TZ2P
 End
 

 Title: *** (NO TITLE) ***

 Using automatic Hessian for delocalized coordinates.
 *** GOStep1 ***

 Energy gradients wrt nuclear displacements
 ==========================================

     Atom      Cartesian (a.u./angstrom)
                 X         Y         Z
 ----------------------------------------
     1 H    -0.005530  0.030502  0.006775
     2 C     0.008409 -0.160874  0.083333
     3 H     0.018418  0.026064 -0.025197
     4 H    -0.021298  0.104308 -0.064911
 ----------------------------------------
 Mulliken charges used for AMS results%charges...
 
----------------------------------------------------------------------
Geometry Convergence after Step   1       (Hartree/Angstrom,Angstrom)
----------------------------------------------------------------------
current energy                               -0.61784933 Hartree
energy change                      -0.61784933     0.00004000    F
constrained gradient max            0.16087428     0.00100000    F
constrained gradient rms            0.06525784     0.00066667    F
gradient max                        0.16087428
gradient rms                        0.06525784
cart. step max                      0.03789453     0.01000000    F
cart. step rms                      0.01692117     0.00666667    F
 
 
--------
Geometry
--------
Formula: CH3
Atoms
  Index Symbol   x (angstrom)   y (angstrom)   z (angstrom)
      1      H     2.05275252    -0.80846367    -0.01650196
      2      C     0.97343086    -0.65784660    -0.01031243
      3      H     0.64889235    -0.15578480     0.90309625
      4      H     0.67836486     0.12291320    -0.87628186
 
Total System Charge             0.00000
 
 *** GOStep2 ***

 Energy gradients wrt nuclear displacements
 ==========================================

     Atom      Cartesian (a.u./angstrom)
                 X         Y         Z
 ----------------------------------------
     1 H     0.000976  0.026110  0.003383
     2 C    -0.000206 -0.133473  0.061115
     3 H     0.012612  0.025966 -0.014073
     4 H    -0.013382  0.081397 -0.050425
 ----------------------------------------
 Mulliken charges used for AMS results%charges...

 dE(predicted):    -0.84758E-02, dE(actual):    -0.10688E-01, Trust radius:    0.400000, all in a.u.
 
----------------------------------------------------------------------
Geometry Convergence after Step   2       (Hartree/Angstrom,Angstrom)
----------------------------------------------------------------------
current energy                               -0.62853719 Hartree
energy change                      -0.01068786     0.00004000    F
constrained gradient max            0.13347270     0.00100000    F
constrained gradient rms            0.05213982     0.00066667    F
gradient max                        0.13347270
gradient rms                        0.05213982
cart. step max                      0.07281860     0.01000000    F
cart. step rms                      0.03354442     0.00666667    F
 
 
--------
Geometry
--------
Formula: CH3
Atoms
  Index Symbol   x (angstrom)   y (angstrom)   z (angstrom)
      1      H     2.04089209    -0.81188222    -0.04212689
      2      C     0.97214674    -0.58502799    -0.03726895
      3      H     0.63078218    -0.16625276     0.91536760
      4      H     0.70961958     0.06398111    -0.83597176
 
Total System Charge             0.00000
 
 *** GOStep3 ***

 Energy gradients wrt nuclear displacements
 ==========================================

     Atom      Cartesian (a.u./angstrom)
                 X         Y         Z
 ----------------------------------------
     1 H     0.006555  0.020364 -0.000140
     2 C    -0.036548 -0.035289 -0.038522
     3 H     0.007883  0.021406 -0.001515
     4 H     0.022110 -0.006481  0.040177
 ----------------------------------------
 Mulliken charges used for AMS results%charges...

 dE(predicted):    -0.13754E-01, dE(actual):    -0.10651E-01, Trust radius:    0.800000, all in a.u.
 
----------------------------------------------------------------------
Geometry Convergence after Step   3       (Hartree/Angstrom,Angstrom)
----------------------------------------------------------------------
current energy                               -0.63918818 Hartree
energy change                      -0.01065098     0.00004000    F
constrained gradient max            0.04017636     0.00100000    F
constrained gradient rms            0.02447855     0.00066667    F
gradient max                        0.04017636
gradient rms                        0.02447855
cart. step max                      0.05066219     0.01000000    F
cart. step rms                      0.02572289     0.00666667    F
 
 
--------
Geometry
--------
Formula: CH3
Atoms
  Index Symbol   x (angstrom)   y (angstrom)   z (angstrom)
      1      H     2.04365206    -0.83660368    -0.02740310
      2      C     0.99591557    -0.53436581    -0.03012049
      3      H     0.62988883    -0.19127812     0.93905411
      4      H     0.68398413     0.06306575    -0.88153052
 
Total System Charge             0.00000
 
 *** GOStep4 ***

 Energy gradients wrt nuclear displacements
 ==========================================

     Atom      Cartesian (a.u./angstrom)
                 X         Y         Z
 ----------------------------------------
     1 H     0.006081  0.011460  0.003982
     2 C    -0.021484 -0.030841 -0.013154
     3 H     0.007820  0.010957  0.003120
     4 H     0.007582  0.008423  0.006052
 ----------------------------------------
 Mulliken charges used for AMS results%charges...

 dE(predicted):    -0.33246E-02, dE(actual):    -0.46991E-02, Trust radius:    0.800000, all in a.u.
 
----------------------------------------------------------------------
Geometry Convergence after Step   4       (Hartree/Angstrom,Angstrom)
----------------------------------------------------------------------
current energy                               -0.64388726 Hartree
energy change                      -0.00469909     0.00004000    F
constrained gradient max            0.03084097     0.00100000    F
constrained gradient rms            0.01331012     0.00066667    F
gradient max                        0.03084097
gradient rms                        0.01331012
cart. step max                      0.06275230     0.01000000    F
cart. step rms                      0.02425708     0.00666667    F
 
 
--------
Geometry
--------
Formula: CH3
Atoms
  Index Symbol   x (angstrom)   y (angstrom)   z (angstrom)
      1      H     2.03987034    -0.86026115    -0.02716980
      2      C     1.02524143    -0.47161350    -0.02240384
      3      H     0.61910180    -0.21378672     0.95060268
      4      H     0.66922702     0.04647952    -0.90102904
 
Total System Charge             0.00000
 
 *** GOStep5 ***

 Energy gradients wrt nuclear displacements
 ==========================================

     Atom      Cartesian (a.u./angstrom)
                 X         Y         Z
 ----------------------------------------
     1 H     0.003066  0.005364  0.004405
     2 C    -0.016160 -0.009794 -0.011547
     3 H     0.007199  0.002853  0.002405
     4 H     0.005894  0.001577  0.004736
 ----------------------------------------
 Mulliken charges used for AMS results%charges...

 dE(predicted):    -0.18707E-02, dE(actual):    -0.25257E-02, Trust radius:    0.800000, all in a.u.
 
----------------------------------------------------------------------
Geometry Convergence after Step   5       (Hartree/Angstrom,Angstrom)
----------------------------------------------------------------------
current energy                               -0.64641295 Hartree
energy change                      -0.00252569     0.00004000    F
constrained gradient max            0.01615978     0.00100000    F
constrained gradient rms            0.00749094     0.00066667    F
gradient max                        0.01615978
gradient rms                        0.00749094
cart. step max                      0.04256834     0.01000000    F
cart. step rms                      0.01843417     0.00666667    F
 
 
--------
Geometry
--------
Formula: CH3
Atoms
  Index Symbol   x (angstrom)   y (angstrom)   z (angstrom)
      1      H     2.03977743    -0.87931970    -0.03649224
      2      C     1.05474206    -0.42904516    -0.00893595
      3      H     0.60081101    -0.22432372     0.95152069
      4      H     0.65811009     0.03350672    -0.90609250
 
Total System Charge             0.00000
 
 *** GOStep6 ***

 Energy gradients wrt nuclear displacements
 ==========================================

     Atom      Cartesian (a.u./angstrom)
                 X         Y         Z
 ----------------------------------------
     1 H     0.000646  0.002807  0.001067
     2 C    -0.006038 -0.006461  0.001099
     3 H     0.003673  0.001145 -0.000979
     4 H     0.001720  0.002510 -0.001188
 ----------------------------------------
 Mulliken charges used for AMS results%charges...

 dE(predicted):    -0.74010E-03, dE(actual):    -0.10149E-02, Trust radius:    0.800000, all in a.u.
 
----------------------------------------------------------------------
Geometry Convergence after Step   6       (Hartree/Angstrom,Angstrom)
----------------------------------------------------------------------
current energy                               -0.64742785 Hartree
energy change                      -0.00101490     0.00004000    F
constrained gradient max            0.00646149     0.00100000    F
constrained gradient rms            0.00309945     0.00066667    F
gradient max                        0.00646149
gradient rms                        0.00309945
cart. step max                      0.03559794     0.01000000    F
cart. step rms                      0.01468663     0.00666667    F
 
 
--------
Geometry
--------
Formula: CH3
Atoms
  Index Symbol   x (angstrom)   y (angstrom)   z (angstrom)
      1      H     2.03700005    -0.89365508    -0.04193868
      2      C     1.07840370    -0.39344722    -0.00191907
      3      H     0.58822430    -0.23345526     0.94848760
      4      H     0.64981255     0.02137570    -0.90462984
 
Total System Charge             0.00000
 
 *** GOStep7 ***

 Energy gradients wrt nuclear displacements
 ==========================================

     Atom      Cartesian (a.u./angstrom)
                 X         Y         Z
 ----------------------------------------
     1 H    -0.000701  0.001396 -0.000316
     2 C    -0.001323 -0.002265  0.000998
     3 H     0.001035  0.000673 -0.002090
     4 H     0.000989  0.000196  0.001408
 ----------------------------------------
 Mulliken charges used for AMS results%charges...

 dE(predicted):    -0.25684E-03, dE(actual):    -0.31410E-03, Trust radius:    0.800000, all in a.u.
 
----------------------------------------------------------------------
Geometry Convergence after Step   7       (Hartree/Angstrom,Angstrom)
----------------------------------------------------------------------
current energy                               -0.64774195 Hartree
energy change                      -0.00031410     0.00004000    F
constrained gradient max            0.00226492     0.00100000    F
constrained gradient rms            0.00126838     0.00066667    F
gradient max                        0.00226492
gradient rms                        0.00126838
cart. step max                      0.01558833     0.01000000    F
cart. step rms                      0.00604972     0.00666667    T
 
 
--------
Geometry
--------
Formula: CH3
Atoms
  Index Symbol   x (angstrom)   y (angstrom)   z (angstrom)
      1      H     2.03469124    -0.89934965    -0.04182061
      2      C     1.08734353    -0.37785889    -0.00015987
      3      H     0.58543962    -0.23884946     0.94848447
      4      H     0.64596621     0.01687614    -0.90650399
 
Total System Charge             0.00000
 
 *** GOStep8 ***

 Energy gradients wrt nuclear displacements
 ==========================================

     Atom      Cartesian (a.u./angstrom)
                 X         Y         Z
 ----------------------------------------
     1 H    -0.000723  0.000557 -0.000054
     2 C     0.000378 -0.000728  0.000513
     3 H     0.000266  0.000151 -0.001004
     4 H     0.000079  0.000020  0.000545
 ----------------------------------------
 Mulliken charges used for AMS results%charges...

 dE(predicted):    -0.33295E-04, dE(actual):    -0.38472E-04, Trust radius:    0.800000, all in a.u.
 
----------------------------------------------------------------------
Geometry Convergence after Step   8       (Hartree/Angstrom,Angstrom)
----------------------------------------------------------------------
current energy                               -0.64778042 Hartree
energy change                      -0.00003847     0.00004000    T
constrained gradient max            0.00100384     0.00100000    F
constrained gradient rms            0.00051469     0.00066667    T
gradient max                        0.00100384
gradient rms                        0.00051469
cart. step max                      0.00311587     0.01000000    T
cart. step rms                      0.00118216     0.00666667    T
 
 
--------
Geometry
--------
Formula: CH3
Atoms
  Index Symbol   x (angstrom)   y (angstrom)   z (angstrom)
      1      H     2.03414861    -0.90031737    -0.04176237
      2      C     1.08848070    -0.37474301     0.00006494
      3      H     0.58520702    -0.24011155     0.94931254
      4      H     0.64560426     0.01599007    -0.90761511
 
Total System Charge             0.00000
 
 *** GOStep9 ***

 Energy gradients wrt nuclear displacements
 ==========================================

     Atom      Cartesian (a.u./angstrom)
                 X         Y         Z
 ----------------------------------------
     1 H    -0.000270  0.000148 -0.000001
     2 C     0.000186 -0.000112  0.000107
     3 H     0.000065 -0.000014 -0.000170
     4 H     0.000019 -0.000022  0.000063
 ----------------------------------------
 Mulliken charges used for AMS results%charges...

 dE(predicted):    -0.18129E-05, dE(actual):    -0.21068E-05, Trust radius:    0.800000, all in a.u.
 
---------------------------------------------------------
Geometry Convergence after Step   9       ** CONVERGED **
---------------------------------------------------------
current energy                               -0.64778253 Hartree
energy change                      -0.00000211     0.00004000    T
constrained gradient max            0.00026933     0.00100000    T
constrained gradient rms            0.00012627     0.00066667    T
gradient max                        0.00026933
gradient rms                        0.00012627
cart. step max                      0.00013068     0.01000000    T
cart. step rms                      0.00007016     0.00666667    T
 
Geometry optimization converged

Optimized geometry:
 
--------
Geometry
--------
Formula: CH3
Atoms
  Index Symbol   x (angstrom)   y (angstrom)   z (angstrom)
      1      H     2.03414861    -0.90031737    -0.04176237
      2      C     1.08848070    -0.37474301     0.00006494
      3      H     0.58520702    -0.24011155     0.94931254
      4      H     0.64560426     0.01599007    -0.90761511
 
Total System Charge             0.00000
 
Performing a single point calculation on the final geometry ...

 *** adf ***



 ===========================
 A T T A C H E D   F I L E S
 ===========================
  
 Restart
 /scratch/4121/amstmp_2.achiral_catalyst.H_H_I2.Rrad_kid0.1562826440/GOStep9.rkf
 *** GOStep9 ***



 ===============================
 M O D E L   P A R A M E T E R S
 ===============================
  
 DENSITY FUNCTIONAL POTENTIAL (scf)
    LDA:                               Exchange only                           == Not Default ==
    Gradient Corrections:              OPTX LYP                                == Not Default ==

 SPIN  (restricted / unrestr.)
    Molecule:                          UNrestricted                            == Not Default ==
    Fragments:                         Restricted                               

 OTHER ASPECTS
    Relativistic Corrections:          scalar (ZORA,MAPA)                       

    Nuclear Charge Density Model:      Point Charge Nuclei                      
    Core Treatment:                    Frozen Orbital(s)                        

    Hyperfine or Zeeman Interaction:   ---                                      



 ===============
 G E O M E T R Y  ***  3D  Molecule  ***
 ===============
  

 ATOMS
 =====                            X Y Z                    CHARGE
                                (Angstrom)             Nucl     +Core       At.Mass
                       --------------------------    ----------------       -------
    1  H               2.0341   -0.9003   -0.0418      1.00      1.00        1.0078
    2  C               1.0885   -0.3747    0.0001      6.00      6.00       12.0000
    3  H               0.5852   -0.2401    0.9493      1.00      1.00        1.0078
    4  H               0.6456    0.0160   -0.9076      1.00      1.00        1.0078


 FRAGMENTS
 =========                                     Atoms in this Fragment     Cart. coord.s (Angstrom)
                                               -------------------------------------------------------
    1  H                                                 1  H            2.0341   -0.9003   -0.0418
    2  H                                                 3  H            0.5852   -0.2401    0.9493
    3  H                                                 4  H            0.6456    0.0160   -0.9076
    4  C                                                 2  C            1.0885   -0.3747    0.0001


 Interatomic Distance Matrix (Angstrom)
 --------------------------------------

   1)     0.000
   2)     1.083   0.000
   3)     1.876   1.083   0.000
   4)     1.875   1.083   1.875   0.000

 Min. Distance =    1.0827
 Max. Distance =    1.8755



 =====================================
 S Y M M E T R Y ,   E L E C T R O N S
 =====================================
  
 Symmetry: NOSYM

 Irreducible Representations, including subspecies
 -------------------------------------------------
 A


 Configuration of Valence Electrons
 ==================================
 ( determined in the SCF procedure )

 Total:   5 (Spin-A)  + 4 (Spin-B)

 Net Charge: 0 (Nuclei minus Electrons)
 Spin polar: 1 (Spin_A minus Spin_B electrons)

 Aufbau principle for MO occupations will be applied through SCF cycle no.      49
 Thereafter, the program will assign electrons to MOs that are spatially
 similar to the occupied MOs in a "reference" cycle ("KeepOrbitals").
 The reference cycle is always the PREVIOUS cycle: it will evolve with
 the SCF procedure.
1
 ***************************************************************************************************



                                      ****************************************
                                      *  B U I L D : (Fragments, Functions)  *
                                      ****************************************
  



 =======
 S F O s  ***  (Symmetrized Fragment Orbitals)  ***
 =======
  
 SFOs are linear combinations of (valence) Fragment Orbitals (FOs), such that the SFOs transform as the
 irreducible representations of the (molecular) symmetry group. Each SFO is therefore characterized by
 an irrep of the molecule and by a few (or only one) generating FOs.
 The SFOs constitute a symmetry-adapted basis for the Fock matrix. The MO eigenvector coefficients in
 this basis provide a direct interpretation of the MOs in terms of Frontier Orbital Theory.

 The SFOs are combined with auxiliary Core Functions (CFs) to ensure orthogonalization on the (frozen)
 Core Orbitals (COs). The Core-orthogonalized SFOs (CSFOs) constitute the true Fock basis.

 The FOs, and hence also the (C)SFOs are combinations of the elementary basis functions (BAS). The basis
 functions that participate in the description of the SFOs depend on the irrep. The indices of the
 involved functions are printed below for each irrep.
 (The complete list of primitive basis functions is printed in another section)

 Total nr. of (C)SFOs (summation over all irreps) :    59

 NOTE: a (C)SFO that is defined as a combination of more than one FO is usually NOT normalized.



                                       === A ===
 Nr. of SFOs :   59
 Cartesian basis functions that participate in this irrep (total number =    66) :
      1     2     3     4     5     6     7     8     9    10
     11    12    13    14    15    16    17    18    19    20
     21    22    23    24    25    26    27    28    29    30
     31    32    33    34    35    36    37    38    39    40
     41    42    45    48    43    46    49    44    47    50
     51    52    53    54    55    56    57    58    59    60
     61    62    63    64    65    66

    SFO  (index         Fragment          Generating    Expansion in Fragment Orbitals
  indx  incl.CFs)   Occup   Orb.Energy   FragmentType  Coeff.   Orbital     on Fragment
 --------------------------------------------------------------------------------------
     1       1      1.000      -0.238 au  H             1.00      1 S               1
                        (      -6.484 eV)
     2       2       --         0.077 au  H             1.00      2 S               1
                        (       2.096 eV)
     3       3       --         1.521 au  H             1.00      3 S               1
                        (      41.380 eV)
     4       4       --         0.410 au  H             1.00      1 P:x             1
                        (      11.162 eV)
     5       5       --         0.410 au  H             1.00      1 P:y             1
                        (      11.162 eV)
     6       6       --         0.410 au  H             1.00      1 P:z             1
                        (      11.162 eV)
     7       7       --         2.567 au  H             1.00      1 D:z2            1
                        (      69.838 eV)
     8       8       --         2.567 au  H             1.00      1 D:x2-y2         1
                        (      69.838 eV)
     9       9       --         2.567 au  H             1.00      1 D:xy            1
                        (      69.838 eV)
    10      10       --         2.567 au  H             1.00      1 D:xz            1
                        (      69.838 eV)
    11      11       --         2.567 au  H             1.00      1 D:yz            1
                        (      69.838 eV)
    12      12      1.000      -0.238 au  H             1.00      1 S               2
                        (      -6.484 eV)
    13      13       --         0.077 au  H             1.00      2 S               2
                        (       2.096 eV)
    14      14       --         1.521 au  H             1.00      3 S               2
                        (      41.380 eV)
    15      15       --         0.410 au  H             1.00      1 P:x             2
                        (      11.162 eV)
    16      16       --         0.410 au  H             1.00      1 P:y             2
                        (      11.162 eV)
    17      17       --         0.410 au  H             1.00      1 P:z             2
                        (      11.162 eV)
    18      18       --         2.567 au  H             1.00      1 D:z2            2
                        (      69.838 eV)
    19      19       --         2.567 au  H             1.00      1 D:x2-y2         2
                        (      69.838 eV)
    20      20       --         2.567 au  H             1.00      1 D:xy            2
                        (      69.838 eV)
    21      21       --         2.567 au  H             1.00      1 D:xz            2
                        (      69.838 eV)
    22      22       --         2.567 au  H             1.00      1 D:yz            2
                        (      69.838 eV)
    23      23      1.000      -0.238 au  H             1.00      1 S               3
                        (      -6.484 eV)
    24      24       --         0.077 au  H             1.00      2 S               3
                        (       2.096 eV)
    25      25       --         1.521 au  H             1.00      3 S               3
                        (      41.380 eV)
    26      26       --         0.410 au  H             1.00      1 P:x             3
                        (      11.162 eV)
    27      27       --         0.410 au  H             1.00      1 P:y             3
                        (      11.162 eV)
    28      28       --         0.410 au  H             1.00      1 P:z             3
                        (      11.162 eV)
    29      29       --         2.567 au  H             1.00      1 D:z2            3
                        (      69.838 eV)
    30      30       --         2.567 au  H             1.00      1 D:x2-y2         3
                        (      69.838 eV)
    31      31       --         2.567 au  H             1.00      1 D:xy            3
                        (      69.838 eV)
    32      32       --         2.567 au  H             1.00      1 D:xz            3
                        (      69.838 eV)
    33      33       --         2.567 au  H             1.00      1 D:yz            3
                        (      69.838 eV)
    34      34      2.000     -10.064 au  C             1.00      1 S               4
                        (    -273.865 eV)
    35      35      2.000      -0.507 au  C             1.00      2 S               4
                        (     -13.802 eV)
    36      36       --         0.384 au  C             1.00      3 S               4
                        (      10.456 eV)
    37      37       --         5.458 au  C             1.00      4 S               4
                        (     148.511 eV)
    38      38       --        49.970 au  C             1.00      5 S               4
                        (    1359.766 eV)
    39      39      0.667      -0.189 au  C             1.00      1 P:x             4
                        (      -5.135 eV)
    40      40       --         0.168 au  C             1.00      2 P:x             4
                        (       4.559 eV)
    41      41       --         2.056 au  C             1.00      3 P:x             4
                        (      55.959 eV)
    42      42      0.667      -0.189 au  C             1.00      1 P:y             4
                        (      -5.135 eV)
    43      43       --         0.168 au  C             1.00      2 P:y             4
                        (       4.559 eV)
    44      44       --         2.056 au  C             1.00      3 P:y             4
                        (      55.959 eV)
    45      45      0.667      -0.189 au  C             1.00      1 P:z             4
                        (      -5.135 eV)
    46      46       --         0.168 au  C             1.00      2 P:z             4
                        (       4.559 eV)
    47      47       --         2.056 au  C             1.00      3 P:z             4
                        (      55.959 eV)
    48      48       --         1.235 au  C             1.00      1 D:z2            4
                        (      33.605 eV)
    49      49       --         1.235 au  C             1.00      1 D:x2-y2         4
                        (      33.605 eV)
    50      50       --         1.235 au  C             1.00      1 D:xy            4
                        (      33.605 eV)
    51      51       --         1.235 au  C             1.00      1 D:xz            4
                        (      33.605 eV)
    52      52       --         1.235 au  C             1.00      1 D:yz            4
                        (      33.605 eV)
    53      53       --         4.005 au  C             1.00      1 F:z3            4
                        (     108.969 eV)
    54      54       --         4.005 au  C             1.00      1 F:z             4
                        (     108.969 eV)
    55      55       --         4.005 au  C             1.00      1 F:xyz           4
                        (     108.969 eV)
    56      56       --         4.005 au  C             1.00      1 F:z2x           4
                        (     108.969 eV)
    57      57       --         4.005 au  C             1.00      1 F:z2y           4
                        (     108.969 eV)
    58      58       --         4.005 au  C             1.00      1 F:x             4
                        (     108.969 eV)
    59      59       --         4.005 au  C             1.00      1 F:y             4
                        (     108.969 eV)



 ================================
 (Slater-type)  F U N C T I O N S  ***  (Basis and Fit)  ***
 ================================
  

 Atom Type    1  (H)
 ==============

 Valence Basis Sets:   5
 -----------------------
   1 S    0.690000
   1 S    0.920000
   1 S    1.580000
   2 P    1.250000
   3 D    2.500000

 Atom Type    2  (C)
 ==============

 Valence Basis Sets:  10
 -----------------------
   1 S    7.680000
   1 S    5.000000
   2 S    1.280000
   2 S    2.100000
   2 S    4.600000
   2 P    0.820000
   2 P    1.480000
   2 P    2.940000
   3 D    2.200000
   4 F    3.300000


 BAS: List of all Elementary Cartesian Basis Functions
 =====================================================

 The numbering in the list below (to the right of the function characteristics) is referred
 to in print-outs of MO eigenvectors and Mulliken populations in the BAS representation
 (as contrasted to the SFO representation).

 Notes:
 1. The functions are characterized by a polynomial prefactor (powers of x,y,z and r) and
    an exponential decay factor alpha.
 2. Since the basis sets are specific for an atom TYPE, the individual functions occur on
    all atoms of that type.
 3. The word 'Core' in the left margin signals that it is a Core Function (CF) : not a
    degree of freedom in the valence set, but only used to ensure orthogonalization of
    the other valence basis functions on the frozen Core Orbitals.


 (power of) X  Y  Z  R     Alpha  on Atom
            ==========     =====     ==========

 H                                    1    2    3
                                  ---------------------------------------------------------------------------
            0  0  0  0     0.690      1   13   25
            0  0  0  0     0.920      2   14   26
            0  0  0  0     1.580      3   15   27
            1  0  0  0     1.250      4   16   28
            0  1  0  0     1.250      5   17   29
            0  0  1  0     1.250      6   18   30
            2  0  0  0     2.500      7   19   31
            1  1  0  0     2.500      8   20   32
            1  0  1  0     2.500      9   21   33
            0  2  0  0     2.500     10   22   34
            0  1  1  0     2.500     11   23   35
            0  0  2  0     2.500     12   24   36

 C                                    4
                                  ---------------------------------------------------------------------------
            0  0  0  0     7.680     37
            0  0  0  0     5.000     38
            0  0  0  1     1.280     39
            0  0  0  1     2.100     40
            0  0  0  1     4.600     41
            1  0  0  0     0.820     42
            0  1  0  0     0.820     43
            0  0  1  0     0.820     44
            1  0  0  0     1.480     45
            0  1  0  0     1.480     46
            0  0  1  0     1.480     47
            1  0  0  0     2.940     48
            0  1  0  0     2.940     49
            0  0  1  0     2.940     50
            2  0  0  0     2.200     51
            1  1  0  0     2.200     52
            1  0  1  0     2.200     53
            0  2  0  0     2.200     54
            0  1  1  0     2.200     55
            0  0  2  0     2.200     56
            3  0  0  0     3.300     57
            2  1  0  0     3.300     58
            2  0  1  0     3.300     59
            1  2  0  0     3.300     60
            1  1  1  0     3.300     61
            1  0  2  0     3.300     62
            0  3  0  0     3.300     63
            0  2  1  0     3.300     64
            0  1  2  0     3.300     65
            0  0  3  0     3.300     66

 Total number of charge fitting functions (nprimf)       234
 Total number of Cartesian basis functions (naos)         66
 Total number of Cartesian core functions  (ncos)          0

1
 ***************************************************************************************************



                                              ***********************
                                              *  T E C H N I C A L  *
                                              ***********************
  



 =============================================================
 P A R A L L E L I Z A T I O N  and  V E C T O R I Z A T I O N
 =============================================================
  
 Nr of parallel processes:                                4
 Maximum vector length in NumInt loops:                 128



 =====================
 S C F   U P D A T E S
 =====================
  
 Max. nr. of cycles:                                99
 Convergence criterion:                              0.0000010000
   secondary criterion:                              0.0010000000

 Mix parameter (when DIIS does not apply):           0.2000000000
 Mixed ADIIS+SDIIS will be used                  
    Max number of expansion vectors:                10
    Pure ADIIS when Max([F,P]) is above              0.1000000000
    Pure SDIIS when Max([F,P]) is below              0.0010000000
 Automatic ElectronSmearing (in case of problematic SCF convergence) disabled



 =================
 P R E C I S I O N  ***  (General: NumInt, NeglectFunctionTails, ...)  ***
 =================
  

 NumInt:           Target precision:                 8.0000000000
 -------           Initial precision:                8.0000000000
                   Min. precision (optimization):    8.0000000000

 Neglect Functions:          Basis functions:        0.1000000000E-09
 ------------------          Fit functions:          0.1000000000E-09



 ===========================
 L I N E A R   S C A L I N G
 ===========================
  

 Cut-off radii density fit:                        0.1000000000E-11
 Overlap cut-off criterion AO matrix elements:     0.1000000000E-09
 Cut-offs for Coulomb potential and fitted density:0.1000000000E-11
 Cut-off criterion for Coulomb multipole terms:    0.1000000000E-11
 Progressive Convergence parameter:                 0.000000000    

 Number of elements of the density matrix on this node (used, total):       609      2211



 ===========================================
 Numerical Integration : Fuzzy Cells (Becke)
 ===========================================
  
 Becke grid quality: VERYGOOD       
  
 Lebedev angular grid order:             min:  13 max:  41
 Nr. of radial points:                   min:  64 max:  72

 Total nr. of points:      92946
 Nr. of blocks:              727
 Block length:               128
 Nr. of dummy points:        110


 Test of Precision of the Numerical Integration Grid
 ===================================================

 Integral of the Total Core Density:                   0.00000000000000



 ========================
 Density Fitting (zlmFit)
 ========================
  
 ZlmFit Fit Quality: VERYGOOD       
  
 Max L-expansion:                        min:  10 max:  11
 Nr. of radial interpolation points:     min: 130 max: 160



 =====
 S C F  ***  ScaSCF  ***
 =====
  
 Initial density matrix is taken from previous geometry

 CYCLE    1
  ***********************************************************
  ** : orbital data taken from :/scratch/4121/amstmp_2.achiral_catalyst.H_H_I2.Rrad_kid0.1562826440/GOStep9.rkf
  ***********************************************************
 SCF Error: norm([F,P])=      0.000000054725, max([F,P])=      0.000000009156
 ***** SPIN 1 *****
 orbitals (Q,E):
 ---------------
 A :1...15           ( 1.00    -9.9190)  ( 1.00    -0.6233)  ( 1.00    -0.3757)  ( 1.00    -0.3757)
                     ( 1.00    -0.1924)  ( 0.00    -0.0053)  ( 0.00     0.0493)  ( 0.00     0.0493)
                     ( 0.00     0.1542)  ( 0.00     0.1542)  ( 0.00     0.1695)  ( 0.00     0.2169)
                     ( 0.00     0.3830)  ( 0.00     0.3831)  ( 0.00     0.4803)
 ***** SPIN 2 *****
 orbitals (Q,E):
 ---------------
 A :1...14           ( 1.00    -9.9108)  ( 1.00    -0.5864)  ( 1.00    -0.3635)  ( 1.00    -0.3635)
                     ( 0.00    -0.1049)  ( 0.00    -0.0035)  ( 0.00     0.0500)  ( 0.00     0.0500)
                     ( 0.00     0.1544)  ( 0.00     0.1545)  ( 0.00     0.2010)  ( 0.00     0.2393)
                     ( 0.00     0.3926)  ( 0.00     0.3927)
  
 Spin polar: 1 (Spin_A minus Spin_B electrons)

 CYCLE    2
  SDIIS (wt  0.000):  0.3963  0.6037
 A-DIIS (wt  1.000):  0.0000  1.0000
  DIIS coefficients:  0.0000  1.0000
 SCF Error: norm([F,P])=      0.000000036926, max([F,P])=      0.000000007756
 ***** SPIN 1 *****
 orbitals (Q,E):
 ---------------
 A :1...6            ( 1.00    -9.9190)  ( 1.00    -0.6233)  ( 1.00    -0.3757)  ( 1.00    -0.3757)
                     ( 1.00    -0.1924)  ( 0.00    -0.0053)
 ***** SPIN 2 *****
 orbitals (Q,E):
 ---------------
 A :1...5            ( 1.00    -9.9108)  ( 1.00    -0.5864)  ( 1.00    -0.3635)  ( 1.00    -0.3635)
                     ( 0.00    -0.1049)
  
 Spin polar: 1 (Spin_A minus Spin_B electrons)

 SCF CONVERGED

 CYCLE    3
1
 ***************************************************************************************************



                                                *******************
                                                *  R E S U L T S  *
                                                *******************
  
 *** Using FIT density in Focky
  SDIIS (wt  0.000): -0.0668  1.0668
 A-DIIS (wt  1.000):  0.0000  1.0000
  DIIS coefficients:  0.0000  1.0000
 SCF Error: norm([F,P])=      0.000000034986, max([F,P])=      0.000000007412


                                   ***** SPIN 1 *****

 Scaled ZORA Orbital Energies, per Irrep and Spin:
 =================================================
                        Occup              E (au)              E (eV)       Diff (eV) with prev. cycle
                        -----      --------------------        ------       --------------------------
 A
               1        1.000     -0.99189603993845E+01      -269.909              -9.59E-07
               2        1.000     -0.62334302667897E+00       -16.962              -3.45E-07
               3        1.000     -0.37571851898386E+00       -10.224              -3.10E-07
               4        1.000     -0.37566010680257E+00       -10.222              -2.60E-07
               5        1.000     -0.19243459844203E+00        -5.236              -3.44E-07
               6        0.000     -0.53134359461814E-02        -0.145
               7        0.000      0.49329601661052E-01         1.342
               8        0.000      0.49331725186152E-01         1.342
               9        0.000      0.15420507322531E+00         4.196
              10        0.000      0.15424807856678E+00         4.197
              11        0.000      0.16945940392053E+00         4.611
              12        0.000      0.21688312706540E+00         5.902
              13        0.000      0.38302589857990E+00        10.423
              14        0.000      0.38309400546177E+00        10.425
              15        0.000      0.48027647100093E+00        13.069
  
 HOMO :        5 A                -0.19243459844203E+00
 LUMO :        6 A                -0.53134359461814E-02
  


                                   ***** SPIN 2 *****

 Scaled ZORA Orbital Energies, per Irrep and Spin:
 =================================================
                        Occup              E (au)              E (eV)       Diff (eV) with prev. cycle
                        -----      --------------------        ------       --------------------------
 A
               1        1.000     -0.99107812908941E+01      -269.686              -9.64E-07
               2        1.000     -0.58642053033838E+00       -15.957              -3.34E-07
               3        1.000     -0.36351229546717E+00        -9.892              -3.05E-07
               4        1.000     -0.36345411723092E+00        -9.890              -2.49E-07
               5        0.000     -0.10494115109186E+00        -2.856
               6        0.000     -0.34639154411443E-02        -0.094
               7        0.000      0.49988457720936E-01         1.360
               8        0.000      0.49992701161972E-01         1.360
               9        0.000      0.15442111904975E+00         4.202
              10        0.000      0.15446478263815E+00         4.203
              11        0.000      0.20102412376323E+00         5.470
              12        0.000      0.23934361312545E+00         6.513
              13        0.000      0.39263271589111E+00        10.684
              14        0.000      0.39270083217732E+00        10.686
  
 HOMO :        4 A                -0.36345411723092E+00
 LUMO :        5 A                -0.10494115109186E+00
  


 Orbital Energies, both Spins
 ========================================

 Irrep        no.  (spin)   Occup              E (au)                E (eV)
 ---------------------------------------------------------------------------
 A             1     A       1.00       -0.99189603993845E+01      -269.9086
 A             1      B      1.00       -0.99107812908941E+01      -269.6861
 A             2     A       1.00       -0.62334302667897E+00       -16.9620
 A             2      B      1.00       -0.58642053033838E+00       -15.9573
 A             3     A       1.00       -0.37571851898386E+00       -10.2238
 A             4     A       1.00       -0.37566010680257E+00       -10.2222
 A             3      B      1.00       -0.36351229546717E+00        -9.8917
 A             4      B      1.00       -0.36345411723092E+00        -9.8901
 A             5     A       1.00       -0.19243459844203E+00        -5.2364
 A             5      B      0.00       -0.10494115109186E+00        -2.8556
 A             6     A       0.00       -0.53134359461814E-02        -0.1446
 A             6      B      0.00       -0.34639154411443E-02        -0.0943
 A             7     A       0.00        0.49329601661052E-01         1.3423
 A             8     A       0.00        0.49331725186152E-01         1.3424
 A             7      B      0.00        0.49988457720936E-01         1.3603
 A             8      B      0.00        0.49992701161972E-01         1.3604
 A             9     A       0.00        0.15420507322531E+00         4.1961
 A            10     A       0.00        0.15424807856678E+00         4.1973
 A             9      B      0.00        0.15442111904975E+00         4.2020
 A            10      B      0.00        0.15446478263815E+00         4.2032
 A            11     A       0.00        0.16945940392053E+00         4.6112
 A            11      B      0.00        0.20102412376323E+00         5.4701
 A            12     A       0.00        0.21688312706540E+00         5.9017
 A            12      B      0.00        0.23934361312545E+00         6.5129
 A            13     A       0.00        0.38302589857990E+00        10.4227
 A            14     A       0.00        0.38309400546177E+00        10.4245
 A            13      B      0.00        0.39263271589111E+00        10.6841
 A            14      B      0.00        0.39270083217732E+00        10.6859
 A            15     A       0.00        0.48027647100093E+00        13.0690
 A            16     A       0.00        0.48030105215784E+00        13.0697
 A            15      B      0.00        0.49604284760332E+00        13.4980
 A            16      B      0.00        0.49606508766527E+00        13.4986
 A            17     A       0.00        0.66338960021902E+00        18.0517
 A            17      B      0.00        0.71248990001774E+00        19.3878
 A            18      B      0.00        0.77393719063400E+00        21.0599
 A            18     A       0.00        0.77857992359318E+00        21.1862
 A            19      B      0.00        0.84648605022984E+00        23.0341
 A            20      B      0.00        0.84651506980576E+00        23.0348
 A            19     A       0.00        0.84686878799474E+00        23.0445
 A            20     A       0.00        0.84689754662426E+00        23.0453
 A            21     A       0.00        0.91233832627556E+00        24.8260
 A            21      B      0.00        0.93124935376952E+00        25.3406
 A            22     A       0.00        0.11267987367000E+01        30.6618
 A            22      B      0.00        0.11762637098985E+01        32.0078
 A            23     A       0.00        0.13720572361822E+01        37.3356
 A            24     A       0.00        0.13721033782133E+01        37.3368
 A            23      B      0.00        0.13759538895863E+01        37.4416
 A            24      B      0.00        0.13760038416282E+01        37.4430
 A            25     A       0.00        0.15790495883454E+01        42.9681
 A            26     A       0.00        0.15792110359718E+01        42.9725
 A            25      B      0.00        0.16293454425342E+01        44.3367
 A            26      B      0.00        0.16295041077874E+01        44.3411
 A            27     A       0.00        0.16411663173115E+01        44.6584
 A            27      B      0.00        0.16483580700232E+01        44.8541
 A            28     A       0.00        0.18923943999830E+01        51.4947
 A            29     A       0.00        0.18924051900300E+01        51.4950
 A            28      B      0.00        0.19031721194676E+01        51.7879
 A            29      B      0.00        0.19031828775428E+01        51.7882
 A            30     A       0.00        0.22364306528641E+01        60.8564
 A            31     A       0.00        0.22549621646484E+01        61.3606
 A            32     A       0.00        0.22549746505000E+01        61.3610
 A            30      B      0.00        0.22661829642117E+01        61.6660
 A            31      B      0.00        0.22661939635905E+01        61.6663
 A            32      B      0.00        0.23238289606872E+01        63.2346
 A            33     A       0.00        0.25870214062705E+01        70.3964
 A            34     A       0.00        0.25871595335766E+01        70.4002
 A            33      B      0.00        0.26025230412453E+01        70.8183
 A            34      B      0.00        0.26026630093447E+01        70.8221
 A            35     A       0.00        0.27787091060845E+01        75.6125
 A            35      B      0.00        0.27928402432955E+01        75.9970
 A            36     A       0.00        0.27949783758400E+01        76.0552
 A            37     A       0.00        0.27951075839232E+01        76.0587
 A            36      B      0.00        0.27969141226024E+01        76.1079
 A            37      B      0.00        0.27970419741914E+01        76.1114
 A            38     A       0.00        0.27982592180774E+01        76.1445
 A            38      B      0.00        0.28014205228646E+01        76.2305
 A            39     A       0.00        0.30742417436759E+01        83.6544
 A            39      B      0.00        0.31323117690313E+01        85.2345
 A            40     A       0.00        0.32325043457771E+01        87.9609
 A            40      B      0.00        0.32330199370804E+01        87.9749
 A            41     A       0.00        0.34153622070913E+01        92.9367
 A            41      B      0.00        0.34739422947817E+01        94.5308
 A            42     A       0.00        0.38624217045782E+01       105.1018
 A            43     A       0.00        0.38629587390459E+01       105.1165
 A            42      B      0.00        0.38895797858465E+01       105.8409
 A            43      B      0.00        0.38901312252522E+01       105.8559
 A            44     A       0.00        0.40039235187723E+01       108.9523
 A            45     A       0.00        0.40042401921192E+01       108.9609
 A            44      B      0.00        0.40358947498982E+01       109.8223
 A            45      B      0.00        0.40362151377588E+01       109.8310
 A            46     A       0.00        0.44077712241269E+01       119.9416
 A            47     A       0.00        0.44079254595632E+01       119.9458
 A            46      B      0.00        0.44479089446238E+01       121.0338
 A            47      B      0.00        0.44480302446386E+01       121.0371
 A            48     A       0.00        0.47759898776018E+01       129.9613
 A            48      B      0.00        0.47805122077294E+01       130.0844
 A            49     A       0.00        0.53292760921216E+01       145.0170
 A            50     A       0.00        0.53292993307730E+01       145.0176
 A            49      B      0.00        0.53521927078767E+01       145.6406
 A            50      B      0.00        0.53522036968422E+01       145.6409
 A            51     A       0.00        0.56272402771231E+01       153.1250
 A            52     A       0.00        0.56274870675988E+01       153.1317
 A            51      B      0.00        0.56712971786355E+01       154.3238
 A            52      B      0.00        0.56715474636371E+01       154.3307
 A            53     A       0.00        0.60455983678020E+01       164.5091
 A            53      B      0.00        0.60704590877714E+01       165.1856
 A            54     A       0.00        0.60995952634974E+01       165.9784
 A            54      B      0.00        0.61699971643001E+01       167.8942
 A            55     A       0.00        0.69321655695040E+01       188.6338
 A            55      B      0.00        0.69423900893004E+01       188.9120
 A            56     A       0.00        0.73598587426499E+01       200.2719
 A            57     A       0.00        0.73601798136495E+01       200.2807
 A            56      B      0.00        0.73754357853593E+01       200.6958
 A            57      B      0.00        0.73757584223539E+01       200.7046
 A            58     A       0.00        0.74649497417442E+01       203.1316
 A            58      B      0.00        0.75043256836062E+01       204.2031
 A            59     A       0.00        0.53115326113458E+02      1445.3416
 A            59      B      0.00        0.53137563142332E+02      1445.9467
  
 Spin polar: 1 (Spin_A minus Spin_B electrons)


 All Electron Calculation, thus no Orbital Energies of the Core Orbitals are calculated


 Fit test: (difference of exact and fit density, squared integrated, result summed over spins)
         Sum-of-Fragments:                             0.00000000012143
         Orthogonalized Fragments:                     0.00000012714369
         SCF:                                          0.00000051236415



 ==========================
 Electron Density at Nuclei
 ==========================
  
 The electron density is calculated at points on a small sphere around the center of a nucleus.
 The printed electron density is the average electron density on these points.
 The radius of the sphere is the printed approximate finite nuclear radius.
 Note: ZORA-4 density is used, which includes small component density

         Atom        Nuclear Radius (Angstrom)             Electron Density (a.u.)
         ----        -------------------------             -----------------------
     1)   H                 0.0000181514                                0.50458
     2)   C                 0.0000320678                              126.86202
     3)   H                 0.0000181514                                0.50452
     4)   H                 0.0000181514                                0.50447



 =======================================
 M U L L I K E N   P O P U L A T I O N S
 =======================================
  
 The survey below gives for each atom:
 a) the total charge (Z minus electrons)
 b) the net spin polarization (nr of electrons spin-A minus spin-B)
 c) for each spin the atomic electron valence density (integrated) per L-value.

 Atom              Charge    Spin density          S         P         D         F
 ----              ------    ------------       ------    ------    ------    ------
 1 H              -0.1557         -0.0365   A:  0.5037    0.0524    0.0035    0.0000
                                            B:  0.5638    0.0305    0.0019    0.0000
 2 C               0.4670          1.1096   A:  1.5433    1.7703    0.0074    0.0003
                                            B:  1.4415    0.7575    0.0116    0.0012
 3 H              -0.1557         -0.0365   A:  0.5036    0.0524    0.0035    0.0000
                                            B:  0.5638    0.0305    0.0019    0.0000
 4 H              -0.1556         -0.0365   A:  0.5036    0.0524    0.0035    0.0000
                                            B:  0.5637    0.0305    0.0019    0.0000

 Populations of individual BAS functions
 ----------------------------------------
 1 H            0.0767  0.2580  0.1689  0.0184  0.0223  0.0117  0.0045  0.0008  0.0009  0.0004
                0.0003 -0.0032
         B:     0.0850  0.3097  0.1690  0.0134  0.0044  0.0127  0.0038  0.0003  0.0009 -0.0010
                0.0003 -0.0025
 3 H            0.0767  0.2581  0.1689  0.0156  0.0212  0.0156 -0.0007  0.0003  0.0008 -0.0021
                0.0012  0.0039
         B:     0.0850  0.3098  0.1690  0.0109  0.0034  0.0162 -0.0006  0.0001  0.0006 -0.0028
                0.0002  0.0044
 4 H            0.0766  0.2581  0.1689  0.0154  0.0218  0.0153 -0.0012  0.0003  0.0009 -0.0008
                0.0010  0.0034
         B:     0.0850  0.3098  0.1690  0.0107  0.0039  0.0159 -0.0011  0.0002  0.0005 -0.0018
                0.0002  0.0038
 2 C            0.2390  0.7695  0.0840  0.4930 -0.0422 -0.0224  0.1485 -0.0953  0.4594  0.5248
                0.4314  0.1047  0.1220  0.0972  0.0011  0.0007  0.0028  0.0002  0.0009  0.0017
               -0.0003  0.0001  0.0000  0.0006 -0.0000 -0.0001  0.0006  0.0002 -0.0006 -0.0002
         B:     0.2366  0.7750  0.0065  0.4665 -0.0432 -0.0856 -0.0285 -0.1100  0.3033  0.1009
                0.3898  0.0717  0.0238  0.0921  0.0038  0.0027  0.0031 -0.0097  0.0011  0.0106
               -0.0003  0.0018 -0.0001 -0.0003  0.0002  0.0009 -0.0017 -0.0021  0.0004  0.0024

 Gross Charges per Atom (Z minus electrons)
 ==========================================
            -0.1557    0.4670   -0.1557   -0.1556
 Net Total: -0.00000000


 Atom-Atom Population Matrix (off-diagonal elements not doubled)
 ===============================================================


                                   ***** SPIN 1 *****

     1 :     0.4350
     2 :     0.2197    2.6622
     3 :    -0.0476    0.2197    0.4350
     4 :    -0.0476    0.2197   -0.0476    0.4350

                                   ***** SPIN 2 *****

     1 :     0.5087
     2 :     0.1870    1.6508
     3 :    -0.0498    0.1870    0.5086
     4 :    -0.0498    0.1870   -0.0497    0.5086



 =================================================
 H I R S H F E L D   C H A R G E   A N A L Y S I S
 =================================================
  
 For each fragment: the (numerical) integral of rho(scf) * rho(fragment)/rho(sum-of-fragments)
 (nuclear charges are included, electrons are counted negative)

 The fragments and their ordering are defined in the early G E O M E T R Y output section.
 If you use single-atom fragments, this usually implies that all atoms of the same
 chemical type are grouped together. This may not be the order in which you listed them
 in the input file!

    1  H                         0.0381
    2  H                         0.0381
    3  H                         0.0381
    4  C                        -0.1142

 Sum of these charges (accuracy NumInt/Tails) =           0.00000045



 =============================
 V O R O N O I   C H A R G E S
 =============================
  
 For each atom: the (numerical) integral of the total electronic charge density in its Voronoi cell,
 i.e. the region of space that is closer to that atom than to any other atom.
 (cf. Wigner-Seitz cells in crystals)

 Within the Voronoi cell the subintegrals over the atomic sphere and the remaining part are evaluated
 separately to give the numbers of electrons (negative charge) in these regions.
 The net total charge in the cell (including the nuclear charge) is also given.

 Values are provided for
    a) the Initial (sum-of-fragments) density
    b) the Orthogonalized-Fragments density
    c) the SCF density
    d) the Voronoi Deformation Density (VDD): the difference SCF-Initial for the complete atomic cell


  Atom                Initial                    OrthFrag                   SCF
             Sphere RestCell NetTotal   Sphere RestCell NetTotal   Sphere RestCell NetTotal      VDD
 -----       ------------------------   ------------------------   ------------------------    -----
    1 H      -0.081   -1.416   -0.497   -0.103   -1.274   -0.376   -0.115   -1.368   -0.483    0.014
    2 C      -2.145   -2.361    1.494   -2.237   -2.630    1.133   -2.171   -2.375    1.454   -0.040
    3 H      -0.081   -1.418   -0.498   -0.103   -1.276   -0.378   -0.115   -1.370   -0.485    0.013
    4 H      -0.081   -1.418   -0.498   -0.103   -1.276   -0.378   -0.115   -1.370   -0.485    0.013
 ---------------------------------------------------------------------------------------------------
 Total NetCharge:               0.000                      0.000                      0.000    0.000
 (accuracy NumInt/Tails)

 Remark: the 'NetTotal' Voronoi charges often do not match the Mulliken and/or Hirshfeld charges very
 well. This is caused by the fact that chemically different atoms are not treated in accordance with
 their relative sizes. (Voronoi cells are defined by boundary planes halfway between the atoms.)
 However, the CHANGES in charge, comparing 'Initial' to 'SCF' for instance, do give a fair indication
 of the flow of charge caused by the relaxation from sum-of-fragments to self-consistency.

 Warning: the absolute accuracy of the VDD charges obtained using the Fuzzy Cells (Becke) integration
 scheme is much poorer than the one obtained with an 'equivalent' Voronoi integration grid. 



 =================================================================
 M U L T I P O L E   D E R I V E D   C H A R G E   A N A L Y S I S
 =================================================================

 This charge analysis uses the atomic multipoles (obtained from the fitted density) up to some level X,
 and reconstructs these multipoles exactly (up to level X) by distributing charges over all atoms.
 This is achieved by using Lagrange multipliers and a weight function to keep the multipoles local.

 Dummy atoms can be included (by setting INCDUM in MDC-block to 1) to obtain a fractional charge.
 This is generally useful and necessary only for small symmetrical molecules, when there are not
 enough degrees of freedom to reconstruct the multipoles.

 Since the atomic multipoles are reconstructed up to level X,
 the molecular multipoles are represented also up to level X.
 The recommended level is to reconstruct up to quadrupole : -> MDC-q charges.

 See: M. Swart, P.Th. van Duijnen, J.G. Snijders, J.Comput.Chem., (2001), p. 79-88.

 ------------------------------------------------------------------------ 
 Atomic electronic multipole moments from SCF equations (a.u.) for spin A
 ------------------------------------------------------------------------ 

   atom        charge        dip-x     dip-y     dip-z      quad-xx   quad-xy   quad-xz   quad-yy   quad-yz   quad-zz
 --------------------------------------------------------------------------------------------------------------------
    1 H     -0.051975     0.026628 -0.014789 -0.001183     0.091606 -0.105123 -0.012824 -0.102004 -0.014073  0.010398
    2 C     -0.344099    -0.000100 -0.000196 -0.000027     0.180357 -0.517929 -0.080946 -0.763830 -0.143796  0.583473
    3 H     -0.051966    -0.014176  0.003804  0.026725     0.000761 -0.064557 -0.054214 -0.138583 -0.004080  0.137822
    4 H     -0.051960    -0.012473  0.011012 -0.025559    -0.007340 -0.074497  0.028879 -0.119519 -0.049639  0.126859

 ------------------------------------------------------------------------ 
 Atomic electronic multipole moments from SCF equations (a.u.) for spin B
 ------------------------------------------------------------------------ 

   atom        charge        dip-x     dip-y     dip-z      quad-xx   quad-xy   quad-xz   quad-yy   quad-yz   quad-zz
 --------------------------------------------------------------------------------------------------------------------
    1 H     -0.010952    -0.005553  0.003078  0.000238     0.059564 -0.028798 -0.001261  0.005269  0.005616 -0.064832
    2 C      0.532874     0.000046  0.000057  0.000017    -0.038300  0.110164  0.017176  0.162509  0.030620 -0.124209
    3 H     -0.010958     0.002939 -0.000792 -0.005572    -0.022235  0.007714 -0.038528 -0.027667  0.014616  0.049902
    4 H     -0.010964     0.002589 -0.002294  0.005319    -0.029529 -0.001241  0.036286 -0.010509 -0.026415  0.040038

 ----------------------------------------------------- 
 MDC atomic charges (includes spinA + spinB electrons)
 ----------------------------------------------------- 

 The MDC-m charges are just the Monopole terms in the multipole expansion, while for the MDC-d charges
 also the Dipoles are reconstructed. The usually preferred charges are the MDC-q charges.
 These reconstruct the Monopoles, Dipoles and Quadrupoles (both atomic AND molecular).

 Given here are the atomic charges of both spins added. These should be compared
 to the values from a "normal" RESTRICTED calculation.

        Atom    Level:     MDC-m        MDC-d        MDC-q
 ---------------------------------------------------------
     1     H           -0.062927     0.123033    -0.008940
     2     C            0.188775    -0.369027    -0.085210
     3     H           -0.062923     0.123012     0.049781
     4     H           -0.062924     0.122982     0.044369

 -------------------------------- 
 MDC spin density (spinA - spinB)
 -------------------------------- 
 Reported here are the the number of Alpha-electrons minus the number of Beta-electrons
 per atom, which usually are regarded as spin densities.

        Atom    Level:     MDC-m        MDC-d        MDC-q
 ---------------------------------------------------------
     1     H            0.041023    -0.270731    -0.093259
     2     C            0.876973     1.812074     1.407007
     3     H            0.041008    -0.270697    -0.163542
     4     H            0.040996    -0.270646    -0.150207

 --------------------------------------------- 
 Represented total molecular multipole moments
 --------------------------------------------- 

 Given here are the Molecular multipole moments from the atomic charges, and from the Fit Density.
 Note that the atomic charges represent the latter, NOT the ones from the Exact density.

 Reported here are the Molecular multipole moments of both spins added.
 They should be compared to the values from a "normal" RESTRICTED calculation.

            Q (a.u.)             Dipole moment (Debye)                                          Quadrupole moment (a.u.)
                                 x         y         z              xx        xy        xz        yy        yz        zz
------------------------------------------------------------------------------------------------------------------------
MDC-m        -0.0000        0.0001    0.0001    0.0001         -0.0575    0.2487    0.0390    0.2444    0.0690   -0.1869
MDC-d        -0.0000       -0.0001   -0.0002   -0.0000          0.1127   -0.4864   -0.0761   -0.4778   -0.1349    0.3651
MDC-q        -0.0000       -0.2553    0.1380    0.0353         -0.4819    0.2389    0.0129   -0.0208   -0.0660    0.5027
 
Fit.Dens.    -0.0000       -0.0001   -0.0002   -0.0000          0.1986   -0.5191   -0.0812   -0.8413   -0.1440    0.6427



 ==========
 S**2 value  ***  see also R. Bulo et al., J.Am.Chem.Soc., 124 (2002) 13903-13910, note (29)  ***
 ==========
  
                                       exact      expectation value

 Total S2 (S squared)                  0.75000             0.75428



 =============
 Dipole Moment  ***  (Debye)  ***
 =============
  
 Vector   :        -0.00011726     -0.00023625     -0.00003817
 Magnitude:         0.00026650

 This molecular dipole moment is calculated with analytic integration



 =========================================
 Quadrupole Moment (Buckingham convention)  ***  (a.u.)  ***
 =========================================
  
      quad-xx        quad-xy        quad-xz        quad-yy        quad-yz        quad-zz
      0.19858106    -0.85622554    -0.13393977    -0.84129277    -0.23754064     0.64271171

 This molecular quadrupole moment is calculated with analytic integration
1



 ===========================
 B O N D I N G   E N E R G Y  ***  (decomposition)  ***
 ===========================
  
*** IMPORTANT NOTE ***

The bond energy is computed as an energy difference between molecule and
fragments. In particular when the fragments are single atoms, they are usually
computed as SPHERICALLY SYMMETRIC and SPIN-RESTRICTED. Obviously, this usually
does NOT represent the true atomic groundstate.

To obtain the 'real' bond energy, (atomic) correction terms must be applied
for the true (multiplet) fragment ground state. See ref: E.J.Baerends,
V.Branchadell, M.Sodupe, Chem.Phys.Lett.265 (1997) 481

General theoretical background on the bond energy decomposition scheme used
here (Morokuma-Ziegler) can be found in the review paper:
F.M. Bickelhaupt and E.J. Baerends,
"Kohn-Sham Density Functional Theory: Predicting and Understanding Chemistry"
In: Rev. Comput. Chem.; Lipkowitz, K. B. and Boyd, D. B., Eds.;
Wiley-VCH: New York, 2000, Vol. 15, 1-86.

Symbols used in the Bickelhaupt-Baerends (BB) paper are given below to make
the direct connection to that paper, where detailed explanations can be found
on the meaning of the various terms.


                                                   hartree              eV         kcal/mol           kJ/mol
                                      --------------------     -----------       ----------      -----------

Pauli Repulsion
  Kinetic (Delta T^0):                   3.995061639563470        108.7112          2506.94         10489.03
  Delta V^Pauli Coulomb:                -1.627786654831484        -44.2943         -1021.45         -4273.75
  Delta V^Pauli LDA-XC:                 -0.501128324982757        -13.6364          -314.46         -1315.71
  Delta V^Pauli GGA-Exchange:            0.039706901904899          1.0805            24.92           104.25
  Delta V^Pauli GGA-Correlation:        -0.039497567101428         -1.0748           -24.79          -103.70
                                      --------------------     -----------       ----------      -----------
  Total Pauli Repulsion:                 1.866355994552701         50.7861          1171.16          4900.12
 (Total Pauli Repulsion =
  Delta E^Pauli in BB paper)

Steric Interaction
  Pauli Repulsion (Delta E^Pauli):       1.866355994552701         50.7861          1171.16          4900.12
  Electrostatic Interaction:            -0.254194996424446         -6.9170          -159.51          -667.39
 (Electrostatic Interaction =
  Delta V_elstat in the BB paper)
                                      --------------------     -----------       ----------      -----------
  Total Steric Interaction:              1.612160998128255         43.8691          1011.65          4232.73
 (Total Steric Interaction =
  Delta E^0 in the BB paper)

Orbital Interactions
  A:                                    -2.259943422314929        -61.4962         -1418.14         -5933.48
                                      --------------------     -----------       ----------      -----------
  Total Orbital Interactions:           -2.259943422314928        -61.4962         -1418.14         -5933.48

Alternative Decomposition Orb.Int.
  Kinetic:                              -3.360856256215053        -91.4536         -2108.97         -8823.93
  Coulomb:                               1.172460838771148         31.9043           735.73          3078.30
  XC:                                   -0.071548004871024         -1.9469           -44.90          -187.85
                                      --------------------     -----------       ----------      -----------
  Total Orbital Interactions:           -2.259943422314929        -61.4962         -1418.14         -5933.48

  Residu (E=Steric+OrbInt+Res):         -0.000000105572996         -0.0000            -0.00            -0.00

Total Bonding Energy:                   -0.647782529759670        -17.6271          -406.49         -1700.75


Summary of Bonding Energy (energy terms are taken from the energy decomposition above)
======================================================================================

  Electrostatic Energy:                 -0.254194996424446         -6.9170          -159.51          -667.39
  Kinetic Energy:                        0.634205383348417         17.2576           397.97          1665.11
  Coulomb (Steric+OrbInt) Energy:       -0.455325921633332        -12.3900          -285.72         -1195.46
  XC Energy:                            -0.572466995050310        -15.5776          -359.23         -1503.01
                                      --------------------     -----------       ----------      -----------
  Total Bonding Energy:                 -0.647782529759670        -17.6271          -406.49         -1700.75


Correction terms (incorporated in energies above; only for test purposes):

1. Indication of fit-quality: 1st-order fit-correction used in the energy (hartree):   0.0000027621
2. Electrostatic (Fit correction):   0.0000000000

Scaled ZORA energy correction, not included in bonding energy (hartree):           -0.0000019987
 NOTE: This scaled ZORA energy correction should only be used to compare two calculations
 in which the only difference in the calculation is the electron configuration.
 Then the difference in energy of this term should be added to the difference in energy of
 the two electron configurations.
 This term should not be used otherwise.
 In practice it is useful only for core excitation energy calculations.



 =========================================
 F R A G M E N T   E N E R G Y   T E R M S  ***  (summed over all fragments)  ***
 =========================================
  

The energy terms below are (parts of) the Total Energy of the fragments from which the molecule
 is built.

Exchange and Correlation
  Exchange LDA:                         -4.979299407619507       -135.4936         -3124.56        -13073.15
  Exchange GGA:                         -0.707138175859501        -19.2422          -443.74         -1856.59
  Correlation LDA:                       0.000000000000000          0.0000             0.00             0.00
  Correlation GGA:                      -0.215698441517929         -5.8695          -135.35          -566.32
                                      --------------------     -----------       ----------      -----------
  Total XC:                             -5.902136024996937       -160.6053         -3703.65        -15496.06
1



 =======================================================
 S F O   P O P U L A T I O N S ,   M O   A N A L Y S I S
 =======================================================
  
 A Mulliken population analysis is performed on (input-)selected MOs. All populations refer to SFOs.
 BAS populations may have been printed directly after the SCF part.



                                   ***** SPIN 1 *****



                                       === A ===


 SFO contributions (%) per orbital
 (multiplication by the orbital occupation yields the SFO Gross Populations)

 Orb.:        1      2      3      4      5      6      7      8      9
 occup:     1.00   1.00   1.00   1.00   1.00   0.00   0.00   0.00   0.00
 CF+SFO     ----   ----   ----   ----   ----   ----   ----   ----   ----
 ------
      1:    0.02  14.11  33.32   3.44   0.00  14.04  30.77  12.54   2.30
      2:    0.00  -0.64   0.30   0.03   0.00  24.67  32.20  13.12  -2.09
      3:    0.00  -0.29   0.07   0.01   0.00  -0.94   2.86   1.17  -0.67
      4:    0.01   1.49  -0.23  -0.00   0.58   0.53   0.38   0.15  -0.13
      5:    0.00   0.46  -0.02  -0.03   1.82   0.16   0.11   0.06   0.10
      6:    0.00   0.00   0.08   1.04   0.04   0.00   0.01  -0.01   2.98
     12:    0.02  14.11  20.18  16.58   0.00  14.04  34.10   9.20  11.68
     13:    0.00  -0.64   0.18   0.15   0.00  24.68  35.67   9.63 -10.62
     14:    0.00  -0.29   0.04   0.03   0.00  -0.94   3.17   0.86  -3.39
     16:    0.00   0.03   0.05   0.21   1.82   0.01   0.02  -0.01   0.32
     17:    0.01   1.50   0.43  -0.42   0.04   0.53   0.36   0.16   0.61
     23:    0.02  14.10   1.64  35.12   0.00  14.05   0.09  43.22  24.34
     24:    0.00  -0.64   0.01   0.32   0.00  24.68   0.09  45.19 -22.13
     25:    0.00  -0.29   0.00   0.07   0.00  -0.94   0.01   4.02  -7.06
     27:    0.00   0.25   0.08   0.03   1.82   0.09  -0.00   0.09  -0.26
     28:    0.01   1.37   0.50  -0.40   0.04   0.49   0.01   0.47  -0.60
     34:   99.90   0.01  -0.00   0.00  -0.00  -0.00   0.00  -0.00  -0.00
     35:   -0.00  55.00   0.00   0.00   0.00   3.96  -0.00  -0.00   0.00
     36:    0.00  -0.57   0.00   0.00  -0.00 -19.66  -0.00  -0.00  -0.00
     39:   -0.00   0.00  30.53   2.41  21.75   0.00   1.26   0.44   2.63
     40:   -0.00   0.00  -0.16  -0.01  -0.00  -0.00 -24.61  -8.50   3.03
     42:   -0.00   0.00   7.62   3.34  68.75   0.00   0.25   0.32   3.74
[...]
                                    2.22%     1 P:z            -5.135  0.67     4 C
                                    1.41%     3 S              41.380  0.00     2 H
       4.202  0.00     9 A         48.25%     2 P:z             4.559  0.00     4 C
                                   45.08%     1 P:z            -5.135  0.67     4 C
                                   23.64%     1 S              -6.484  1.00     3 H
                                  -22.27%     2 S               2.096  0.00     3 H
                                   11.58%     1 S              -6.484  1.00     2 H
                                  -10.91%     2 S               2.096  0.00     2 H
                                   -6.96%     3 S              41.380  0.00     3 H
                                    4.09%     2 P:y             4.559  0.00     4 C
                                    3.82%     1 P:y            -5.135  0.67     4 C
                                   -3.41%     3 S              41.380  0.00     2 H
                                    3.17%     1 P:z            11.162  0.00     1 H
                                    2.78%     2 P:x             4.559  0.00     4 C
                                    2.60%     1 P:x            -5.135  0.67     4 C
                                    2.13%     1 S              -6.484  1.00     1 H
                                   -2.00%     2 S               2.096  0.00     1 H
                                   -1.14%     3 P:z            55.959  0.00     4 C
       4.203  0.00    10 A         39.35%     2 P:x             4.559  0.00     4 C
                                   36.76%     1 P:x            -5.135  0.67     4 C
                                   22.77%     1 S              -6.484  1.00     1 H
                                  -21.46%     2 S               2.096  0.00     1 H
                                   13.32%     1 S              -6.484  1.00     2 H
                                  -12.56%     2 S               2.096  0.00     2 H
                                    9.92%     2 P:y             4.559  0.00     4 C
                                    9.27%     1 P:y            -5.135  0.67     4 C
                                   -6.71%     3 S              41.380  0.00     1 H
                                    5.87%     2 P:z             4.559  0.00     4 C
                                    5.49%     1 P:z            -5.135  0.67     4 C
                                   -3.93%     3 S              41.380  0.00     2 H
                                    2.25%     1 P:x            11.162  0.00     3 H
                                    1.33%     1 P:x            11.162  0.00     2 H
                                    1.26%     1 S              -6.484  1.00     3 H
                                   -1.19%     2 S               2.096  0.00     3 H

 Energy gradients wrt nuclear displacements
 ==========================================

     Atom      Cartesian (a.u./angstrom)
                 X         Y         Z
 ----------------------------------------
     1 H    -0.000270  0.000148 -0.000001
     2 C     0.000186 -0.000112  0.000107
     3 H     0.000065 -0.000014 -0.000170
     4 H     0.000019 -0.000022  0.000063
 ----------------------------------------



 =======================================================================
 Electrostatic potential at the Nuclei due to electrons and other nuclei
 =======================================================================
  
         Atom                  Potential
         ----                  ---------
     1)   H                   1.10711711
     2)   C                  14.79040945
     3)   H                   1.10710112
     4)   H                   1.10711361

=============================================================
=== CALCULATE ANALYTICAL SECOND DERIVATIVES OF THE ENERGY ===
=============================================================


-----------------------------------------------
*** RESTART ***
*** CHECKING FOR HESSIAN ON RESTART FILE ***
@@@ WARNING: Cannot find section: Hessian                                                                                                                                                         
*** NO HESSIAN EXISTS ON RESTART FILE ***
*** HESSIAN FROM RESTART FILE IS NOT COMPLETE ***
*** FURTHER CALCULATIONS WILL BE DONE         ***
-----------------------------------------------
                  ------------------------------------------------
                  
                  This Analytical Second Derivatives Progam    
                            was written for ADF by             
                  
                                Stephen K. Wolff               
                  
                         Scientific Computing & Modelling      
                  
                                Vrije University
                              Theoretical Chemistry
                                De Boelelaan 1083
                                1081 HV Amsterdam
                                 The Netherlands
                  
                  ------------------------------------------------
                  
                                    References:                
                                    ===========                
                  
                   Attila Berces, Ross M. Dickson, Liangyou Fan
                   Heiko Jacobsen, David Swerhone, Tom Ziegler,
                   Computer Physics Communications 100 (1997) 247.
                  
                   Heiko Jacobsen, Attila Berces
                   David Swerhone, Tom Ziegler,
                   Computer Physics Communications 100 (1997) 263.
                  
                   Stephen K. Wolff
                   Int. J. Quantum Chem. 104 (2005) 645.
                  
                  ------------------------------------------------
                  
              <><><><><><><><><><><><><><><><><><><><><><><><><>
 
                 SECOND DERIVATIVES INFORMATION:
                 -------------------------------
 
                 === PRINT
 
                   EIGS,  lprint_eigbas =  F
                   U1,    lprint_u1     =  F
                   PARTS, lprint_parts  =  F
 
                 === DEBUG
 
                   ALL        =  F
                   B1         =  F
                   DENSITIES  =  F
                   FIT        =  F
                   HESSIAN    =  F
                   NUMBERS    =  F
                   SYMMETRY   =  F
                   U1         =  F
 
                 === CPKS
 
                   MAX_CPKS_ITERATIONS    =    20
                   U1_ACCURACY PARAMETER  =     5.00
                   U1 ACCURACY            =     0.0000100
 

                 Estimated peak private memory usage    100 MB per process
                                 shared memory usage    153 MB per node

              <><><><><><><><><><><><><><><><><><><><><><><><><>

######## LOOPING OVER NUCLEI ########

==========================
###### NUCLEUS:     1  H  
==========================

====================  solving CPKS equations  ====================

NUCLEUS  COORD.    ITERATION   ACCURACY
-------  ------    ---------   --------
    1       1          1       0.18459188D-01
    1       1          2       0.42751830D-02
    1       1          3       0.21389280D-02
    1       1          4       0.31121193D-03
    1       1          5       0.24404547D-04
    1       1          6       0.98475020D-05
*** CPKS converged.
----------------------------------------------
    1       2          1       0.11676025D-01
    1       2          2       0.47273057D-02
    1       2          3       0.17922911D-02
    1       2          4       0.27656638D-03
    1       2          5       0.34490648D-04
    1       2          6       0.14030627D-04
    1       2          7       0.23259813D-05
*** CPKS converged.
----------------------------------------------
    1       3          1       0.43462381D-02
    1       3          2       0.86404084D-03
    1       3          3       0.38219808D-03
    1       3          4       0.90879365D-04
    1       3          5       0.13537236D-04
    1       3          6       0.28647061D-05
*** CPKS converged.
----------------------------------------------

====================  end of solving CPKS equations  ====================

==========================
###### NUCLEUS:     3  H  
==========================

====================  solving CPKS equations  ====================

NUCLEUS  COORD.    ITERATION   ACCURACY
-------  ------    ---------   --------
    3       1          1       0.10520607D-01
    3       1          2       0.25221099D-02
    3       1          3       0.13618547D-02
    3       1          4       0.22953059D-03
    3       1          5       0.22329481D-04
    3       1          6       0.93534944D-05
*** CPKS converged.
----------------------------------------------
    3       2          1       0.14139131D-01
    3       2          2       0.28919931D-02
    3       2          3       0.72423651D-03
    3       2          4       0.13622610D-03
    3       2          5       0.22956607D-04
    3       2          6       0.86753533D-05
*** CPKS converged.
----------------------------------------------
    3       3          1       0.17750769D-01
    3       3          2       0.27368290D-02
    3       3          3       0.74281364D-03
    3       3          4       0.18641328D-03
    3       3          5       0.21101522D-04
    3       3          6       0.38534094D-05
*** CPKS converged.
----------------------------------------------

====================  end of solving CPKS equations  ====================

==========================
###### NUCLEUS:     4  H  
==========================

====================  solving CPKS equations  ====================

NUCLEUS  COORD.    ITERATION   ACCURACY
-------  ------    ---------   --------
    4       1          1       0.93915511D-02
    4       1          2       0.32219987D-02
    4       1          3       0.17386376D-02
    4       1          4       0.21186383D-03
    4       1          5       0.21873540D-04
    4       1          6       0.92083466D-05
*** CPKS converged.
----------------------------------------------
    4       2          1       0.12213722D-01
    4       2          2       0.44376516D-02
    4       2          3       0.15823153D-02
    4       2          4       0.22874732D-03
    4       2          5       0.31802666D-04
    4       2          6       0.13107873D-04
    4       2          7       0.22779231D-05
*** CPKS converged.
----------------------------------------------
    4       3          1       0.17050376D-01
    4       3          2       0.32002522D-02
    4       3          3       0.86067746D-03
    4       3          4       0.24653857D-03
    4       3          5       0.23843973D-04
    4       3          6       0.36185873D-05
*** CPKS converged.
----------------------------------------------

====================  end of solving CPKS equations  ====================

==========================
###### NUCLEUS:     2  C  
==========================

====================  solving CPKS equations  ====================

NUCLEUS  COORD.    ITERATION   ACCURACY
-------  ------    ---------   --------
    2       1          1       0.23657643D-01
    2       1          2       0.65155388D-02
    2       1          3       0.12579841D-02
    2       1          4       0.12119740D-03
    2       1          5       0.99601549D-05
*** CPKS converged.
----------------------------------------------
    2       2          1       0.41037242D-01
    2       2          2       0.97125591D-02
    2       2          3       0.95621308D-03
    2       2          4       0.11103949D-03
    2       2          5       0.16909576D-04
    2       2          6       0.17152638D-05
*** CPKS converged.
----------------------------------------------
    2       3          1       0.26507853D-01
    2       3          2       0.19187904D-02
    2       3          3       0.73894562D-03
    2       3          4       0.55932433D-04
    2       3          5       0.71852001D-05
*** CPKS converged.
----------------------------------------------

====================  end of solving CPKS equations  ====================


====================================================================
*** DONE CALCULATING ANALYTICAL SECOND DERIVATIVES OF THE ENERGY ***
====================================================================

 Mulliken charges used for AMS results%charges...
Scanning modes in range provided by user.


    =====================
     CALCULATION RESULTS
    =====================

Energy (hartree)            -0.64778253

Gradients (hartree/bohr)
  Index   Atom            d/dx            d/dy            d/dz
      1      H   -0.0001427627    0.0000780768   -0.0000004424
      2      C    0.0000985985   -0.0000590269    0.0000568237
      3      H    0.0000341616   -0.0000074836   -0.0000899275
      4      H    0.0000100026   -0.0000115663    0.0000335462

 -----------------------
 Normal Mode Frequencies
 -----------------------

 Index   Frequency (cm-1)   Intensity (km/mol)
     7           519.6984              48.4954
     8          1369.5238               2.7646
     9          1369.8619               2.7702
    10          3068.1105               0.0001
    11          3250.8705               4.5140
    12          3252.0673               4.4951

 Zero-point energy (Hartree):     0.0292

 ------------
 Normal Modes
 ------------

 Number of removed rigid normal modes: 6
 
 Mode:     7      Frequency (cm-1):      519.6984     Intensity (km/mol):       48.4954
 Index  Atom      ---- Displacements (x/y/z) ----
     1     H       0.277659   0.493480   0.077029
     2     C      -0.069929  -0.124320  -0.019410
     3     H       0.277499   0.493442   0.077121
     4     H       0.277474   0.493330   0.076966
 
 Mode:     8      Frequency (cm-1):     1369.5238     Intensity (km/mol):        2.7646
 Index  Atom      ---- Displacements (x/y/z) ----
     1     H      -0.041773  -0.097424   0.774154
     2     C      -0.018510   0.024117  -0.087805
     3     H       0.449554  -0.287458   0.221140
     4     H      -0.187384   0.097720   0.050189
 
 Mode:     9      Frequency (cm-1):     1369.8619     Intensity (km/mol):        2.7702
 Index  Atom      ---- Displacements (x/y/z) ----
     1     H       0.054065  -0.062880   0.208683
     2     C       0.079069  -0.040153  -0.027699
     3     H      -0.397995   0.271932  -0.308105
     4     H      -0.597530   0.269042   0.429233
 
 Mode:    10      Frequency (cm-1):     3068.1105     Intensity (km/mol):        0.0001
 Index  Atom      ---- Displacements (x/y/z) ----
     1     H      -0.502052   0.279014   0.022131
     2     C      -0.000278   0.000164  -0.000162
     3     H       0.268270  -0.071751  -0.506236
     4     H       0.237091  -0.209217   0.486033
 
 Mode:    11      Frequency (cm-1):     3250.8705     Intensity (km/mol):        4.5140
 Index  Atom      ---- Displacements (x/y/z) ----
     1     H       0.202139  -0.109567  -0.026599
     2     C      -0.021548   0.026780  -0.093871
     3     H      -0.271121   0.076460   0.486340
     4     H       0.325550  -0.285762   0.657960
 
 Mode:    12      Frequency (cm-1):     3252.0673     Intensity (km/mol):        4.4951
 Index  Atom      ---- Displacements (x/y/z) ----
     1     H       0.681810  -0.379745  -0.024932
     2     C      -0.084692   0.042700   0.031621
     3     H       0.263071  -0.066654  -0.520009
     4     H       0.063532  -0.062020   0.168434

PES point character: Geometry corresponds to a local minimum on the PES.




 ============================
 Statistical Thermal Analysis  ***  ideal gas assumed  ***
 ============================
  
 Pressure:                  1.000000 atm.
 Temperature:             298.150000 K



 Moments of Inertia [amu*bohr^2] and principal axis
 ==================================================

           6.3295          6.3298         12.6593
 ------------------------------------------------
          -0.7156          0.5020          0.4858
           0.3043         -0.4020          0.8636
           0.6288          0.7658          0.1349


 The rotational contribution to the molecular entropy includes
 a term, dependent on the symmetry number sigma. The results 
 reported below were computed using sigma = 1, determined from
 the point group symmetry of the input geometry (NOSYM). 
 If this is not the correct symmetry, try symmetrizing the molecule before
 running the calculation (note: linear molecules should be aligned along one
 of the Cartesian axes).
 Contributions from frequencies below 20 1/cm are not included in vibrational sums.
 Their contributions, if any, are reported separately.


     Temp                                                        Transl      Rotat     Vibrat     Total
     ----                                                        ------      -----     ------     -----

     298.15   Entropy (cal/mol-K):                               34.068     13.992      0.651     48.711
              Nuclear Internal Energy (kcal/mol):                 0.889      0.889     18.484     20.261
              Constant Volume Heat Capacity (cal/mol-K):          2.981      2.981      1.441      7.403
          (c) Constant Volume Heat Capacity (cal/mol-K):          2.981      2.981      1.441      7.403

       Summary of energy terms
                                                   hartree              eV         kcal/mol           kJ/mol
                                      --------------------     -----------       ----------      -----------
      Energy from Engine:               -0.647782529759670        -17.6271          -406.49         -1700.75
      Nuclear Internal Energy:           0.032288538142256          0.8786            20.26            84.77
  (c) Nuclear Internal Energy:           0.032287105472238          0.8786            20.26            84.77
      Internal Energy U:                -0.615493991617413        -16.7484          -386.23         -1615.98
      pV/n = RT:                         0.000944186013486          0.0257             0.59             2.48
      Enthalpy H:                       -0.614549805603928        -16.7228          -385.64         -1613.50
      -T*S:                             -0.023144263401843         -0.6298           -14.52           -60.77
  (c) -T*S:                             -0.023144663564895         -0.6298           -14.52           -60.77
      Gibbs free energy:                -0.637694069005770        -17.3525          -400.16         -1674.27
 
 
 
  (c) The properties marked with this symbol have been corrected using 'low vibrational frequency free rotor
      interpolation corrections'. For those terms all positive frequencies are used (also ones below 20 1/cm),
      but the contribution to the partition function of small vibrational frequencies is modified as described
      in the following paper:
      S. Grimme, 'Supramolecular Binding Thermodynamics by Dispersion-Corrected Density Functional Theory'
      (Chem. Eur. J. 2012, 18, 9955-9964)
      Configuration: Dampener Frequency          :   100.000 1/cm
                     Dampener Alpha              :     4.000
                     Averaging Moment of Inertia : 1.000E-44 kg m2

--------------
Atomic charges
--------------
  Index   Atom    Charge
      1      H   -0.1557
      2      C    0.4670
      3      H   -0.1557
      4      H   -0.1556


Dipole moment vector    (Debye):    -0.00011726   -0.00023625   -0.00003817
              magnitude (Debye):     0.00026650


Final PES point is a local minimum. Geometry optimization successful!


AMS application finished. Exiting.
NORMAL TERMINATION
     Total cpu time:     226.75
  Total system time:       3.01
 Total elapsed time:     235.59
