

 Parallel Execution: Process Information
 ==============================================================================
 Rank   Node Name                              NodeID   MyNodeRank  NodeMaster
    0   node115                                   0          0          0
    1   node115                                   0          1         -1
    2   node115                                   0          2         -1
    3   node115                                   0          3         -1
 ==============================================================================


May use up to 122928MB of RAM as shared memory on node 0

 *******************************************************************************
 *                                                                             *
 *  --------------------------------                                           *
 *   Amsterdam Modeling Suite (AMS)              2021.102                      *
 *  --------------------------------                                           *
 *                                               r95042 2021-06-07             *
 *                                                                             *
 *                                                                             *
 *                              =================                              *
 *                              |               |                              *
 *                              |     A M S     |                              *
 *                              |               |                              *
 *                              =================                              *
 *                                                                             *
 *                                                                             *
 *   Online information and documentation:  https://www.scm.com/support/       *
 *   E-mail:  support@scm.com   info@scm.com                                   *
 *                                                                             *
 *   Scientific publications using AMS results must be properly referenced     *
 *   See the User Manuals (or the web site) for recommended citations          *
 *   The terms and conditions of the End User License Agreement apply to       *
 *   the use of AMS, https://www.scm.com/license-terms/                        *
 *                                                                             *
 **********************  x86_64_linux_intel / intelmpi  ************************
 
 Licensed to: VU/FEW (+ SARA) / ALGEMEEN / Amsterdam / THE NETHERLANDS
 SCM User ID: u7668
  
 AMS 2021.102  RunTime: Jan22-2022 23:31:51  ShM Nodes: 1  Procs: 4

 AMS jobname: 27.achiral_catalyst.H_H_BF3.TS
 AMS jobid  : 2119716776

 Start   directory: /scistor/tc/yhk800/MasterProject/calculations/achiral_catalyst_H_H_BF3/27.achiral_catalyst.H_H_BF3.TS/
 Results directory: /scistor/tc/yhk800/MasterProject/calculations/achiral_catalyst_H_H_BF3/27.achiral_catalyst.H_H_BF3.TS/
 Scratch directory: /scratch/3979/amstmp_27.achiral_catalyst.H_H_BF3.TS_kid0.2119716776/


 Communication costs MPI_COMM_WORLD:      0.911 usec per message,   0.0066 usec per 8-byte item
 Communication costs for intra-node:      0.892 usec per message,   0.0067 usec per 8-byte item

 RNG seed: 1351060883 407372618 -1781757560 -887705899 1710239856 506451725 -138347423 -1252856232



                      ************************************************************************
                      *  ADF 2021.102  RunTime: Jan22-2022 23:31:52  ShM Nodes: 1  Procs: 4  *
                      ************************************************************************
  
       *****************************
       *  TRANSITION STATE SEARCH  *
       *****************************

Optimization Method                    Quasi Newton
Optimization Coordinates               Delocalized Coordinates
Optimize lattice                       F
 
 ------------------------------------------------------
 Convergence criteria (Hartree,Angstrom)
 ------------------------------------------------------
 Maximum gradient               0.001000000000
 Maximum rms gradient           0.000666666667
 Maximum step allowed           0.010000000000
 Maximum rms step allowed       0.006666666667
 Maximum energy change allowe   0.000160000000
 Maximum stress energy allowe   0.000500000000
 
Initial model Hessian                  Automatic Hessian
 
------------------------------------
Quasi-Newton Optimizer Parameters
------------------------------------
Hessian Update Method                  Bofill
Maximum number of steps                  250
First GDIIS cycle                          0
Maximum GDIIS vectors                      0
Trust radius (bohr)                        0.200000
Trust radius varies                        F
Constraints converged at all steps         T
Use projector                              T
 
 Rigid motions settings for: old optimizer
 Atomic rotations (x,y,z):     T T T
 Atomic translations (x,y,z):  T T T
 Tolerance:                   1.000000000000000E-006
 
           1  TSRC entries:
    i   type      a1    a2    a3    a4    coef
    1 Distance     2    10               -1.000
 
--------
Geometry
--------
Formula: C4H7BF3O
Atoms
  Index Symbol   x (angstrom)   y (angstrom)   z (angstrom)
      1      H     0.19369716    -1.85361092    -0.24516176
      2      C    -0.92057816    -0.12292898     0.28183759
      3      C     0.21368396    -0.77846351    -0.06958517
      4      C     1.52168394    -0.13059856    -0.22805405
      5      O     1.77804810     1.04912696    -0.01680607
      6      H    -0.93117356     0.95749943     0.37346659
      7      H    -1.16677948    -1.14795174     3.01281369
      8      H    -2.10496465     0.45730942     2.86041604
      9      H    -0.24714630     0.47546451     3.02589233
     10      C    -1.16197426    -0.07675120     2.85297480
     11      H    -1.86354143    -0.62823164     0.30157320
     12      H     2.30109647    -0.78460704    -0.55924738
     13      B     2.49853305     4.24557076     0.37517415
     14      F     2.84621363     4.01474637     1.61839649
     15      F     1.25807254     4.56028402     0.08885834
     16      F     3.39131299     4.16168188    -0.58173237
 
Total System Charge             0.00000
 
 
----------------
ADF Engine Input
----------------
 
 NumericalQuality VeryGood
 SCF
 Converge 1.0e-6
 Iterations 99
 End
 SYMMETRY NOSYM
 SpinPolarization 1.0
 Unrestricted Yes
 XC
 GGA OLYP
 End
 basis
 core None
 type TZ2P
 End
 

 Title: *** (NO TITLE) ***

Bad geometry: added dihedral    12    4   13   14
 Using automatic Hessian for delocalized coordinates.
 *** GOStep1 ***

 Energy gradients wrt nuclear displacements
 ==========================================

     Atom      Cartesian (a.u./angstrom)
                 X         Y         Z
 ----------------------------------------
     1 H     0.000370  0.000476 -0.000083
     2 C    -0.016136 -0.007287  0.001838
     3 C     0.003176 -0.002573 -0.001670
     4 C     0.030445 -0.029369 -0.014077
     5 O     0.004719 -0.003062 -0.001889
     6 H    -0.001674 -0.001429  0.000467
     7 H    -0.000029 -0.000040  0.000036
     8 H     0.000105  0.000120 -0.000075
     9 H    -0.000349 -0.000030  0.000197
    10 C    -0.000004 -0.000043 -0.001516
    11 H     0.017353  0.009303 -0.000180
    12 H    -0.038158  0.032883  0.016720
    13 B     0.000345  0.012526  0.002754
    14 F    -0.007314  0.000970 -0.025611
    15 F     0.024936 -0.010022  0.005164
    16 F    -0.017788 -0.002424  0.017925
 ----------------------------------------
 Mulliken charges used for AMS results%charges...
           Primitive Internal Coordinates (atoms in internal order)
-------------------------------------------------------------------------------
    index    type      i       j       k       l   value(A,deg)     TSRC Vect
-------------------------------------------------------------------------------
       1     bnd       1       3       0       0     1.08957265     0.00000000
       2     bnd       2       6       0       0     1.08435865    -0.00000000
       3     bnd       2       3       0       0     1.35638270     0.09406642
       4     bnd       3       4       0       0     1.46823204     0.00154805
       5     bnd       4      12       0       0     1.07000000    -0.00000000
       6     bnd       4       5       0       0     1.22560214     0.00372991
       7     bnd       8      10       0       0     1.08374674    -0.00000000
       8     bnd       7      10       0       0     1.08307071     0.00000000
       9     bnd       9      10       0       0     1.08247534     0.00000000
      10     bnd       2      11       0       0     1.07000000     0.00000000
      11     bnd      13      15       0       0     1.31139752     0.00000000
      12     bnd      13      14       0       0     1.31139753     0.00000000
      13     bnd      13      16       0       0     1.31139752     0.00000000
      14     bnd       2      10       0       0     2.58285714    -0.49471364
      15     bnd       3      10       0       0     3.30547916    -0.20169086
      16     bnd       5      13       0       0     3.30000000     0.00387535
      17     bnd      10      13       0       0     6.18233588    -0.00471006
      18     ang       6       2       3       0   120.77103538    -0.00150333
      19     ang       6       2      11       0   117.41061259    -0.00517022
      20     ang       6       2      10       0    84.09702452    -0.03671051
      21     ang       3       2      11       0   120.89733866     0.00246247
      22     ang       3       2      10       0   110.16403203     0.10154422
      23     ang      11       2      10       0    84.70507552    -0.04672808
      24     ang       1       3       2       0   120.21909900     0.00775149
      25     ang       1       3       4       0   115.74474309    -0.02837460
      26     ang       1       3      10       0   110.14017713     0.02761192
      27     ang       2       3       4       0   124.03410402     0.02028267
      28     ang       2       3      10       0    47.18020735    -0.11477552
      29     ang       4       3      10       0   111.87064539     0.05591937
      30     ang       3       4      12       0   114.37019830     0.00493353
      31     ang       3       4       5       0   126.33327012    -0.00787502
      32     ang      12       4       5       0   119.29637410     0.00291637
      33     lai       4       5      13      14   177.16575658    -0.00710307
      34     ang       8      10       7       0   118.84988012     0.00017172
      35     ang       8      10       9       0   118.87311123     0.00088807
      36     ang       8      10       2       0    95.56458342    -0.00515071
      37     ang       8      10       3       0   118.21664669     0.00808155
      38     ang       8      10      13       0    99.98629260     0.00269190
      39     ang       7      10       9       0   118.99448321    -0.00010080
      40     ang       7      10       2       0    97.44889075     0.00039869
      41     ang       7      10       3       0    85.54757082    -0.00614508
      42     ang       7      10      13       0   138.87295541    -0.00276444
      43     ang       9      10       2       0    95.11483796     0.00208413
      44     ang       9      10       3       0    84.13492797    -0.00466827
      45     ang       9      10      13       0    37.53046017    -0.00337701
      46     ang       2      10      13       0    63.78081501     0.00297928
      47     ang       3      10      13       0    63.10523560     0.00132096
      48     ang      15      13      14       0   120.00000020     0.00877055
      49     ang      15      13      16       0   120.00000038     0.00122144
      50     ang      15      13       5       0    89.99999981    -0.00305343
      51     ang      15      13      10       0    72.25517968    -0.00212888
      52     ang      14      13      16       0   119.99999942    -0.00999198
      53     ang      14      13       5       0    90.00000002     0.00351019
      54     ang      14      13      10       0    69.75509862     0.01328277
      55     ang      16      13       5       0    89.99999989     0.00365372
      56     ang      16      13      10       0   130.60283348    -0.00330013
      57     ang       5      13      10       0    40.63572331    -0.00704246
      58     lao       4       5      13      14    88.66175515     0.00879556
      59     dih       6       2       3       1   185.43025046    -0.01471678
      60     dih       6       2       3       4     5.97435318     0.03052865
      61     dih       6       2       3      10    95.22935729     0.01802920
      62     dih      11       2       3       1    -5.83693566    -0.04077453
      63     dih      11       2       3       4   174.70716706     0.00447091
      64     dih      11       2       3      10   263.96217117    -0.00802855
      65     dih      10       2       3       1    90.20089317    -0.03274598
      66     dih      10       2       3       4   -89.25500411     0.01249945
      67     dih       1       3       4      12     3.58206089    -0.02290375
      68     dih       1       3       4       5   183.72850675    -0.01122820
      69     dih       2       3       4      12   183.06008625    -0.06614320
      70     dih       2       3       4       5     3.20653211    -0.05446765
      71     dih      10       3       4      12   130.84520156     0.04230165
      72     dih      10       3       4       5   -49.00835258     0.05397720
      73     dih       6       2      10       8    60.32627910     0.00468636
      74     dih       6       2      10       7   180.43650753     0.00386818
      75     dih       6       2      10       9   -59.39742086     0.00426009
      76     dih       6       2      10       3   239.33945908     0.00512904
      77     dih       6       2      10      13   -38.08258143    -0.00088159
      78     dih       3       2      10       8   180.98682002    -0.00044268
      79     dih       3       2      10       7   -58.90295155    -0.00126086
      80     dih       3       2      10       9    61.26312006    -0.00086895
      81     dih       3       2      10      13    82.57795949    -0.00601063
      82     dih      11       2      10       8   -57.99296306    -0.00378165
      83     dih      11       2      10       7    62.11726537    -0.00459983
      84     dih      11       2      10       9   182.28333697    -0.00420792
      85     dih      11       2      10       3   121.02021691    -0.00333897
      86     dih      11       2      10      13   203.59817640    -0.00934960
      87     dih       1       3      10       8   248.09637082     0.01307264
      88     dih       1       3      10       7     8.59151161     0.01155003
      89     dih       1       3      10       9   128.37671670     0.01314211
      90     dih       1       3      10       2   246.98173076     0.01347854
      91     dih       1       3      10      13   161.04778232     0.01327845
      92     dih       2       3      10       8     1.11464006    -0.00040590
      93     dih       2       3      10       7   121.60978085    -0.00192851
      94     dih       2       3      10       9   241.39498594    -0.00033643
      95     dih       2       3      10      13   -85.93394844    -0.00020009
      96     dih       4       3      10       8   117.87482254    -0.01743115
      97     dih       4       3      10       7   238.36996333    -0.01895376
      98     dih       4       3      10       9    -1.84483158    -0.01736169
      99     dih       4       3      10       2   116.76018248    -0.01702526
     100     dih       4       3      10      13    30.82623404    -0.01722535
     101     dih       8      10      13      15   -18.98624423     0.00110775
     102     dih       8      10      13      14   113.66756736     0.00406770
     103     dih       8      10      13      16   226.35910284     0.00132983
     104     dih       8      10      13       5   229.12022793    -0.00226066
     105     dih       7      10      13      15   142.19535838     0.00197654
     106     dih       7      10      13      14   -85.15083002     0.00493650
     107     dih       7      10      13      16    27.54070545     0.00219862
     108     dih       7      10      13       5    30.30183054    -0.00139187
     109     dih       9      10      13      15   215.87011845     0.00110689
     110     dih       9      10      13      14   -11.47606995     0.00406685
     111     dih       9      10      13      16   101.21546552     0.00132897
     112     dih       9      10      13       5   103.97659061    -0.00226152
     113     dih       2      10      13      15    72.33375117    -0.00552030
     114     dih       2      10      13      14   204.98756277    -0.00256034
     115     dih       2      10      13      16   -42.32090176    -0.00529822
     116     dih       2      10      13       5   -39.55977667    -0.00888871
     117     dih       3      10      13      15    97.69288320     0.00881521
     118     dih       3      10      13      14   230.34669479     0.01177517
     119     dih       3      10      13      16   -16.96176973     0.00903729
     120     dih       3      10      13       5   -14.20064464     0.00544680
     121     dih      12       4      13      14   -89.11210876    -0.04518196
Hessian eigenvector     1(     0.001) has overlap with TSRC:    0.10300E-01
Hessian eigenvector     2(     0.003) has overlap with TSRC:    0.80020E-01
Hessian eigenvector     3(     0.005) has overlap with TSRC:    0.30238E+00
Hessian eigenvector     4(     0.006) has overlap with TSRC:    0.28835E+00
Hessian eigenvector     5(     0.007) has overlap with TSRC:    0.31173E+00
Hessian eigenvector     6(     0.011) has overlap with TSRC:    0.22589E-01
Hessian eigenvector     7(     0.012) has overlap with TSRC:    0.28003E-01
Hessian eigenvector     8(     0.017) has overlap with TSRC:    0.17143E-02
Hessian eigenvector     9(     0.019) has overlap with TSRC:    0.29233E-01
Hessian eigenvector    10(     0.021) has overlap with TSRC:    0.86698E-02
Hessian eigenvector    11(     0.027) has overlap with TSRC:    0.14323E-01
Hessian eigenvector    12(     0.027) has overlap with TSRC:    0.17081E+00
Hessian eigenvector    13(     0.028) has overlap with TSRC:    0.27417E-01
Hessian eigenvector    14(     0.031) has overlap with TSRC:    0.77763E-02
Hessian eigenvector    15(     0.033) has overlap with TSRC:    0.63725E-02
Hessian eigenvector    16(     0.043) has overlap with TSRC:    0.20742E-01
Hessian eigenvector    17(     0.044) has overlap with TSRC:    0.11573E-01
Hessian eigenvector    18(     0.052) has overlap with TSRC:    0.20145E-01
Hessian eigenvector    19(     0.055) has overlap with TSRC:    0.29478E-01
Hessian eigenvector    20(     0.070) has overlap with TSRC:    0.32138E-02
Hessian eigenvector    21(     0.084) has overlap with TSRC:    0.56470E-01
Hessian eigenvector    22(     0.089) has overlap with TSRC:    0.89420E-01
Hessian eigenvector    23(     0.097) has overlap with TSRC:    0.87853E-01
Hessian eigenvector    24(     0.104) has overlap with TSRC:    0.59677E-01
Hessian eigenvector    25(     0.119) has overlap with TSRC:    0.92154E-01
Hessian eigenvector    26(     0.144) has overlap with TSRC:    0.13934E-01
Hessian eigenvector    27(     0.148) has overlap with TSRC:    0.70910E-03
Hessian eigenvector    28(     0.166) has overlap with TSRC:    0.95242E-02
Hessian eigenvector    29(     0.229) has overlap with TSRC:    0.30430E-03
Hessian eigenvector    30(     0.461) has overlap with TSRC:    0.76347E-01
Hessian eigenvector    31(     0.487) has overlap with TSRC:    0.55539E-02
Hessian eigenvector    32(     0.500) has overlap with TSRC:    0.13557E-14
Hessian eigenvector    33(     0.503) has overlap with TSRC:    0.28755E-14
Hessian eigenvector    34(     0.503) has overlap with TSRC:    0.27031E-14
Hessian eigenvector    35(     0.503) has overlap with TSRC:    0.78912E-15
Hessian eigenvector    36(     0.503) has overlap with TSRC:    0.24464E-15
Hessian eigenvector    37(     0.509) has overlap with TSRC:    0.31675E-15
Hessian eigenvector    38(     0.509) has overlap with TSRC:    0.19107E-14
Hessian eigenvector    39(     0.567) has overlap with TSRC:    0.12021E-01
Hessian eigenvector    40(     0.580) has overlap with TSRC:    0.84064E-15
Hessian eigenvector    41(     0.580) has overlap with TSRC:    0.22246E-14
Hessian eigenvector    42(     0.580) has overlap with TSRC:    0.10834E-15
Hessian eigenvector     5 has the largest overlap with TSRC:  0.31173
           Primitive Internal Coordinates (atoms in internal order)
-------------------------------------------------------------------------------
    index    type      i       j       k       l   value(A,deg)     Max Ovl Vect
-------------------------------------------------------------------------------
       1     bnd       1       3       0       0     1.08957265    -0.00000000
       2     bnd       2       6       0       0     1.08435865     0.00000000
       3     bnd       2       3       0       0     1.35638270     0.01553231
       4     bnd       3       4       0       0     1.46823204    -0.00007250
       5     bnd       4      12       0       0     1.07000000     0.00000000
       6     bnd       4       5       0       0     1.22560214     0.00010512
       7     bnd       8      10       0       0     1.08374674     0.00000000
       8     bnd       7      10       0       0     1.08307071    -0.00000000
       9     bnd       9      10       0       0     1.08247534    -0.00000000
      10     bnd       2      11       0       0     1.07000000    -0.00000000
      11     bnd      13      15       0       0     1.31139752    -0.00000000
      12     bnd      13      14       0       0     1.31139753    -0.00000000
      13     bnd      13      16       0       0     1.31139752     0.00000000
      14     bnd       2      10       0       0     2.58285714    -0.44085334
      15     bnd       3      10       0       0     3.30547916    -0.09746743
      16     bnd       5      13       0       0     3.30000000     0.00041664
      17     bnd      10      13       0       0     6.18233588    -0.00378816
      18     ang       6       2       3       0   120.77103538    -0.01152716
      19     ang       6       2      11       0   117.41061259    -0.00941454
      20     ang       6       2      10       0    84.09702452    -0.00781497
      21     ang       3       2      11       0   120.89733866    -0.00724914
      22     ang       3       2      10       0   110.16403203     0.15893430
      23     ang      11       2      10       0    84.70507552    -0.01033936
      24     ang       1       3       2       0   120.21909900     0.00334369
      25     ang       1       3       4       0   115.74474309     0.00418060
      26     ang       1       3      10       0   110.14017713    -0.00677531
      27     ang       2       3       4       0   124.03410402    -0.00848684
      28     ang       2       3      10       0    47.18020735    -0.14361574
      29     ang       4       3      10       0   111.87064539     0.03905987
      30     ang       3       4      12       0   114.37019830     0.00154182
      31     ang       3       4       5       0   126.33327012    -0.00333647
      32     ang      12       4       5       0   119.29637410     0.00094487
      33     lai       4       5      13      14   177.16575658    -0.01567296
      34     ang       8      10       7       0   118.84988012    -0.00085028
      35     ang       8      10       9       0   118.87311123     0.00115951
      36     ang       8      10       2       0    95.56458342     0.00741003
      37     ang       8      10       3       0   118.21664669    -0.00816347
      38     ang       8      10      13       0    99.98629260     0.00269246
      39     ang       7      10       9       0   118.99448321     0.00161290
      40     ang       7      10       2       0    97.44889075    -0.00562110
      41     ang       7      10       3       0    85.54757082    -0.00842533
      42     ang       7      10      13       0   138.87295541    -0.00720790
      43     ang       9      10       2       0    95.11483796    -0.00710822
      44     ang       9      10       3       0    84.13492797     0.01187106
      45     ang       9      10      13       0    37.53046017     0.00777262
      46     ang       2      10      13       0    63.78081501    -0.01568648
      47     ang       3      10      13       0    63.10523560    -0.00167329
      48     ang      15      13      14       0   120.00000020     0.00280649
      49     ang      15      13      16       0   120.00000038     0.00090539
      50     ang      15      13       5       0    89.99999981    -0.00650068
      51     ang      15      13      10       0    72.25517968     0.00897568
      52     ang      14      13      16       0   119.99999942    -0.00371188
      53     ang      14      13       5       0    90.00000002     0.00577497
      54     ang      14      13      10       0    69.75509862    -0.00753465
      55     ang      16      13       5       0    89.99999989     0.00056865
      56     ang      16      13      10       0   130.60283348    -0.00009464
      57     ang       5      13      10       0    40.63572331     0.00010239
      58     lao       4       5      13      14    88.66175515     0.01530160
      59     dih       6       2       3       1   185.43025046    -0.01049696
      60     dih       6       2       3       4     5.97435318     0.11696962
      61     dih       6       2       3      10    95.22935729     0.08581511
      62     dih      11       2       3       1    -5.83693566    -0.18213776
      63     dih      11       2       3       4   174.70716706    -0.05467118
      64     dih      11       2       3      10   263.96217117    -0.08582569
      65     dih      10       2       3       1    90.20089317    -0.09631207
      66     dih      10       2       3       4   -89.25500411     0.03115450
      67     dih       1       3       4      12     3.58206089    -0.37890679
      68     dih       1       3       4       5   183.72850675     0.01621654
      69     dih       2       3       4      12   183.06008625    -0.50118977
      70     dih       2       3       4       5     3.20653211    -0.10606644
      71     dih      10       3       4      12   130.84520156    -0.34923086
      72     dih      10       3       4       5   -49.00835258     0.04589248
      73     dih       6       2      10       8    60.32627910     0.03407355
      74     dih       6       2      10       7   180.43650753     0.03368054
      75     dih       6       2      10       9   -59.39742086     0.03287889
      76     dih       6       2      10       3   239.33945908    -0.00030776
      77     dih       6       2      10      13   -38.08258143     0.03505661
      78     dih       3       2      10       8   180.98682002     0.03438131
      79     dih       3       2      10       7   -58.90295155     0.03398830
      80     dih       3       2      10       9    61.26312006     0.03318665
      81     dih       3       2      10      13    82.57795949     0.03536436
      82     dih      11       2      10       8   -57.99296306     0.04066999
      83     dih      11       2      10       7    62.11726537     0.04027698
      84     dih      11       2      10       9   182.28333697     0.03947534
      85     dih      11       2      10       3   121.02021691     0.00628869
      86     dih      11       2      10      13   203.59817640     0.04165305
      87     dih       1       3      10       8   248.09637082     0.02909851
      88     dih       1       3      10       7     8.59151161     0.02141257
      89     dih       1       3      10       9   128.37671670     0.02266126
      90     dih       1       3      10       2   246.98173076    -0.00963790
      91     dih       1       3      10      13   161.04778232     0.02229062
      92     dih       2       3      10       8     1.11464006     0.03873641
      93     dih       2       3      10       7   121.60978085     0.03105047
      94     dih       2       3      10       9   241.39498594     0.03229916
      95     dih       2       3      10      13   -85.93394844     0.03192852
      96     dih       4       3      10       8   117.87482254    -0.00291914
      97     dih       4       3      10       7   238.36996333    -0.01060508
      98     dih       4       3      10       9    -1.84483158    -0.00935639
      99     dih       4       3      10       2   116.76018248    -0.04165555
     100     dih       4       3      10      13    30.82623404    -0.00972703
     101     dih       8      10      13      15   -18.98624423    -0.01441595
     102     dih       8      10      13      14   113.66756736    -0.01202641
     103     dih       8      10      13      16   226.35910284    -0.02275238
     104     dih       8      10      13       5   229.12022793     0.00938854
     105     dih       7      10      13      15   142.19535838    -0.03518697
     106     dih       7      10      13      14   -85.15083002    -0.03279743
     107     dih       7      10      13      16    27.54070545    -0.04352340
     108     dih       7      10      13       5    30.30183054    -0.01138248
     109     dih       9      10      13      15   215.87011845    -0.00708390
     110     dih       9      10      13      14   -11.47606995    -0.00469436
     111     dih       9      10      13      16   101.21546552    -0.01542033
     112     dih       9      10      13       5   103.97659061     0.01672060
     113     dih       2      10      13      15    72.33375117    -0.00996651
     114     dih       2      10      13      14   204.98756277    -0.00757697
     115     dih       2      10      13      16   -42.32090176    -0.01830294
     116     dih       2      10      13       5   -39.55977667     0.01383798
     117     dih       3      10      13      15    97.69288320    -0.02477505
     118     dih       3      10      13      14   230.34669479    -0.02238551
     119     dih       3      10      13      16   -16.96176973    -0.03311148
     120     dih       3      10      13       5   -14.20064464    -0.00097055
     121     dih      12       4      13      14   -89.11210876     0.32778059
 
----------------------------------------------------------------------
Geometry Convergence after Step   1       (Hartree/Angstrom,Angstrom)
----------------------------------------------------------------------
current energy                               -3.15932080 Hartree
energy change                      -3.15932080     0.00016000    F
constrained gradient max            0.03816750     0.00100000    F
constrained gradient rms            0.01277956     0.00066667    F
gradient max                        0.03816750
gradient rms                        0.01277956
cart. step max                      0.04615930     0.01000000    F
cart. step rms                      0.01697198     0.00666667    F
 
 
--------
Geometry
--------
Formula: C4H7BF3O
Atoms
  Index Symbol   x (angstrom)   y (angstrom)   z (angstrom)
      1      H     0.17241785    -1.86101739    -0.25015459
      2      C    -0.92268532    -0.11876491     0.28016175
      3      C     0.20303669    -0.78579703    -0.07512682
      4      C     1.51748271    -0.14804222    -0.23166104
      5      O     1.76726179     1.03327888    -0.01775562
      6      H    -0.91583447     0.96220369     0.37377056
      7      H    -1.17117599    -1.16002455     3.00748184
      8      H    -2.10052062     0.45132377     2.86716779
      9      H    -0.24172002     0.45794782     3.02726984
     10      C    -1.16050964    -0.08791004     2.85435397
     11      H    -1.88174986    -0.61434706     0.29349665
     12      H     2.32448351    -0.82928406    -0.52448454
     13      B     2.49391583     4.22818001     0.36556723
     14      F     2.86226241     4.05737868     1.62444638
     15      F     1.25611748     4.60557299     0.09013564
     16      F     3.40340164     4.20784118    -0.59385262
 
Total System Charge             0.00000
 
 *** GOStep2 ***

 Energy gradients wrt nuclear displacements
 ==========================================

     Atom      Cartesian (a.u./angstrom)
                 X         Y         Z
 ----------------------------------------
     1 H     0.000341  0.000123  0.000079
     2 C    -0.005209 -0.003288  0.002680
     3 C     0.000829  0.000426  0.001772
     4 C     0.010957 -0.014281 -0.014969
     5 O     0.001954  0.000117  0.002686
     6 H    -0.000716 -0.000556  0.000276
     7 H    -0.000071 -0.000026  0.000051
     8 H     0.000015  0.000059 -0.000066
     9 H    -0.000161  0.000025  0.000151
    10 C    -0.000053 -0.000153 -0.001287
    11 H     0.005790  0.003342 -0.000754
    12 H    -0.014042  0.012134  0.009064
    13 B    -0.006053 -0.020717 -0.002004
    14 F     0.000532  0.008713 -0.004595
    15 F     0.007584  0.006358  0.002107
    16 F    -0.001696  0.007725  0.004810
 ----------------------------------------
 Mulliken charges used for AMS results%charges...
Hessian eigenvector     1(    -0.005) has overlap with TSRC:    0.63805E-01
Hessian eigenvector     1 has the largest overlap with TSRC:  0.06381
           Primitive Internal Coordinates (atoms in internal order)
-------------------------------------------------------------------------------
    index    type      i       j       k       l   value(A,deg)     Max Ovl Vect
-------------------------------------------------------------------------------
       1     bnd       1       3       0       0     1.08980322    -0.00025537
       2     bnd       2       6       0       0     1.08503579    -0.00093465
       3     bnd       2       3       0       0     1.35588047     0.00363917
       4     bnd       3       4       0       0     1.46935444     0.00155028
       5     bnd       4      12       0       0     1.09594085    -0.03515554
       6     bnd       4       5       0       0     1.22624006     0.00502083
       7     bnd       8      10       0       0     1.08377024     0.00001669
       8     bnd       7      10       0       0     1.08304729     0.00005569
       9     bnd       9      10       0       0     1.08260569    -0.00015575
      10     bnd       2      11       0       0     1.07962228    -0.01153676
      11     bnd      13      15       0       0     1.32303922    -0.00804686
      12     bnd      13      14       0       0     1.32273543    -0.00750224
      13     bnd      13      16       0       0     1.32214392    -0.00661975
      14     bnd       2      10       0       0     2.58533906    -0.09034938
      15     bnd       3      10       0       0     3.30577715    -0.00828344
      16     bnd       5      13       0       0     3.29884158     0.01385786
      17     bnd      10      13       0       0     6.17879587    -0.00901063
      18     ang       6       2       3       0   120.49579990     0.01242811
      19     ang       6       2      11       0   117.50690646    -0.00167351
      20     ang       6       2      10       0    84.42149114    -0.01776011
      21     ang       3       2      11       0   120.99433278    -0.01097156
      22     ang       3       2      10       0   110.06898644     0.03862620
      23     ang      11       2      10       0    84.92053591    -0.02104656
      24     ang       1       3       2       0   120.27359263    -0.01433374
      25     ang       1       3       4       0   115.86508543    -0.01315671
      26     ang       1       3      10       0   109.81723466     0.03922745
      27     ang       2       3       4       0   123.85615928     0.02796657
      28     ang       2       3      10       0    47.27173439    -0.03385184
      29     ang       4       3      10       0   111.82445243     0.03973390
      30     ang       3       4      12       0   114.66979313    -0.01242035
      31     ang       3       4       5       0   125.57546519     0.02544112
      32     ang      12       4       5       0   119.69949541    -0.01252500
      33     lai       4       5      13      14   177.03973760     0.01140683
      34     ang       8      10       7       0   118.83686070     0.00107674
      35     ang       8      10       9       0   118.90437353    -0.00439067
      36     ang       8      10       2       0    95.59510686    -0.00235470
      37     ang       8      10       3       0   118.24722016    -0.00667532
      38     ang       8      10      13       0    99.79929838     0.03302875
      39     ang       7      10       9       0   119.00549585    -0.00270981
      40     ang       7      10       2       0    97.46198810     0.00386634
      41     ang       7      10       3       0    85.43293821     0.02553164
      42     ang       7      10      13       0   138.96037432    -0.00927512
      43     ang       9      10       2       0    94.98993278     0.01521579
      44     ang       9      10       3       0    84.14132958    -0.00303966
      45     ang       9      10      13       0    37.83122861    -0.06389117
      46     ang       2      10      13       0    63.44040993     0.06754400
      47     ang       3      10      13       0    63.03586980     0.02222723
      48     ang      15      13      14       0   119.70245561     0.02152984
      49     ang      15      13      16       0   119.79435275    -0.01392995
      50     ang      15      13       5       0    92.63569538     0.03555965
      51     ang      15      13      10       0    74.32193039     0.05939380
      52     ang      14      13      16       0   119.80689183    -0.00759989
      53     ang      14      13       5       0    92.68653370     0.03232280
      54     ang      14      13      10       0    72.01023272     0.00728822
      55     ang      16      13       5       0    92.99826178     0.08751162
      56     ang      16      13      10       0   133.50299298     0.08788693
      57     ang       5      13      10       0    40.53582380     0.00162734
      58     lao       4       5      13      14    88.16492753    -0.04151085
      59     dih       6       2       3       1   185.17964506     0.05941174
      60     dih       6       2       3       4     6.04118198    -0.00357328
      61     dih       6       2       3      10    95.45440014     0.00765941
      62     dih      11       2       3       1    -6.56151414     0.05791643
      63     dih      11       2       3       4   174.30002277    -0.00506859
      64     dih      11       2       3      10   263.71324093     0.00616410
      65     dih      10       2       3       1    89.72524493     0.05175233
      66     dih      10       2       3       4   -89.41321815    -0.01123269
      67     dih       1       3       4      12     0.88776391     0.32572271
      68     dih       1       3       4       5   183.61531065     0.09522760
      69     dih       2       3       4      12   180.06088514     0.38612779
      70     dih       2       3       4       5     2.78843187     0.15563268
      71     dih      10       3       4      12   127.75815394     0.40582887
      72     dih      10       3       4       5   -49.51429933     0.17533376
      73     dih       6       2      10       8    60.89811555    -0.07099134
      74     dih       6       2      10       7   181.00380485    -0.06964697
      75     dih       6       2      10       9   -58.84183093    -0.06863612
      76     dih       6       2      10       3   239.52456047    -0.01056784
      77     dih       6       2      10      13   -37.27807827    -0.11069112
      78     dih       3       2      10       8   181.37355508    -0.06042349
      79     dih       3       2      10       7   -58.52075562    -0.05907913
      80     dih       3       2      10       9    61.63360860    -0.05806828
      81     dih       3       2      10      13    83.19736126    -0.10012328
      82     dih      11       2      10       8   -57.43289127    -0.07566974
      83     dih      11       2      10       7    62.67279803    -0.07432538
      84     dih      11       2      10       9   182.82716225    -0.07331452
      85     dih      11       2      10       3   121.19355365    -0.01524624
      86     dih      11       2      10      13   204.39091491    -0.11536952
      87     dih       1       3      10       8   248.18468053    -0.01523076
      88     dih       1       3      10       7     8.60552986    -0.00076318
      89     dih       1       3      10       9   128.41970970    -0.00722520
      90     dih       1       3      10       2   246.63282897     0.05308631
      91     dih       1       3      10      13   161.42659727    -0.07277639
      92     dih       2       3      10       8     1.55185156    -0.06831707
      93     dih       2       3      10       7   121.97270089    -0.05384949
      94     dih       2       3      10       9   241.78688073    -0.06031151
      95     dih       2       3      10      13   -85.20623170    -0.12586270
      96     dih       4       3      10       8   118.10667120    -0.06277916
      97     dih       4       3      10       7   238.52752053    -0.04831158
      98     dih       4       3      10       9    -1.65829963    -0.05477360
      99     dih       4       3      10       2   116.55481964     0.00553791
     100     dih       4       3      10      13    31.34858794    -0.12032479
     101     dih       8      10      13      15   -17.47886480     0.07186068
     102     dih       8      10      13      14   111.73653470     0.04728938
     103     dih       8      10      13      16   226.08900258     0.03928886
     104     dih       8      10      13       5   228.83658429     0.09362382
     105     dih       7      10      13      15   143.23434101     0.17447033
     106     dih       7      10      13      14   -87.55025948     0.14989903
     107     dih       7      10      13      16    26.80220839     0.14189851
     108     dih       7      10      13       5    29.54979010     0.19623347
     109     dih       9      10      13      15   217.25911814     0.08339376
     110     dih       9      10      13      14   -13.52548236     0.05882247
     111     dih       9      10      13      16   100.82698552     0.05082195
     112     dih       9      10      13       5   103.57456723     0.10515691
     113     dih       2      10      13      15    73.91221479     0.06420103
     114     dih       2      10      13      14   203.12761429     0.03962974
     115     dih       2      10      13      16   -42.51991783     0.03162922
     116     dih       2      10      13       5   -39.77233612     0.08596417
     117     dih       3      10      13      15    99.32874747     0.04725449
     118     dih       3      10      13      14   228.54414698     0.02268320
     119     dih       3      10      13      16   -17.10338515     0.01468267
     120     dih       3      10      13       5   -14.35580344     0.06901763
     121     dih      12       4      13      14   -86.07031399    -0.37429308
 
----------------------------------------------------------------------
Geometry Convergence after Step   2       (Hartree/Angstrom,Angstrom)
----------------------------------------------------------------------
current energy                               -3.16045663 Hartree
energy change                      -0.00113583     0.00016000    F
constrained gradient max            0.02072154     0.00100000    F
constrained gradient rms            0.00618819     0.00066667    F
gradient max                        0.02072154
gradient rms                        0.00618819
cart. step max                      0.05385129     0.01000000    F
cart. step rms                      0.01334667     0.00666667    F
 
 
--------
Geometry
--------
Formula: C4H7BF3O
Atoms
  Index Symbol   x (angstrom)   y (angstrom)   z (angstrom)
      1      H     0.18732254    -1.86665837    -0.23537591
      2      C    -0.92511751    -0.12793721     0.26342580
      3      C     0.21039225    -0.79057570    -0.06442106
      4      C     1.52223967    -0.14621610    -0.21692305
      5      O     1.76510191     1.03747142    -0.00845346
      6      H    -0.92832852     0.95390726     0.34727181
      7      H    -1.17204308    -1.14731301     3.02593265
      8      H    -2.10617954     0.45996415     2.87014081
      9      H    -0.24782887     0.47347204     3.03236258
     10      C    -1.16463627    -0.07669116     2.86253043
     11      H    -1.87957196    -0.63390441     0.28112458
     12      H     2.31916306    -0.80970579    -0.57833583
     13      B     2.49835905     4.23084896     0.37306616
     14      F     2.87826142     4.03990177     1.62650427
     15      F     1.25380269     4.59852853     0.11102719
     16      F     3.39524715     4.20344740    -0.59906056
 
Total System Charge             0.00000
 
 *** GOStep3 ***

 Energy gradients wrt nuclear displacements
 ==========================================

     Atom      Cartesian (a.u./angstrom)
                 X         Y         Z
 ----------------------------------------
     1 H     0.000203  0.000279 -0.000465
     2 C    -0.005994 -0.002297  0.001711
     3 C     0.000899  0.001546 -0.000793
     4 C     0.011980 -0.017237 -0.000063
     5 O     0.001176  0.002377 -0.002218
     6 H    -0.000672 -0.000486 -0.000238
     7 H    -0.000030  0.000097  0.000418
     8 H     0.000093  0.000087  0.000115
     9 H    -0.000253 -0.000019  0.000582
    10 C     0.000479 -0.000529 -0.003105
    11 H     0.005026  0.002650  0.000138
    12 H    -0.013237  0.011648  0.003640
    13 B    -0.004599 -0.014274 -0.001370
    14 F     0.000694  0.006067 -0.002724
    15 F     0.005113  0.004683  0.001223
    16 F    -0.000881  0.005408  0.003149
 ----------------------------------------
 Mulliken charges used for AMS results%charges...
Hessian eigenvector     1(    -0.004) has overlap with TSRC:    0.11489E+00
Hessian eigenvector     1 has the largest overlap with TSRC:  0.11489
           Primitive Internal Coordinates (atoms in internal order)
-------------------------------------------------------------------------------
    index    type      i       j       k       l   value(A,deg)     Max Ovl Vect
-------------------------------------------------------------------------------
       1     bnd       1       3       0       0     1.08982186     0.00031077
       2     bnd       2       6       0       0     1.08509351     0.00027327
       3     bnd       2       3       0       0     1.35497445    -0.00949998
       4     bnd       3       4       0       0     1.46948964     0.00372534
       5     bnd       4      12       0       0     1.09814601     0.00665398
       6     bnd       4       5       0       0     1.22619646    -0.00221458
       7     bnd       8      10       0       0     1.08377146     0.00016624
       8     bnd       7      10       0       0     1.08304492     0.00019140
       9     bnd       9      10       0       0     1.08261642     0.00016734
      10     bnd       2      11       0       0     1.08041629     0.00177227
      11     bnd      13      15       0       0     1.32392342    -0.00070569
      12     bnd      13      14       0       0     1.32359123    -0.00124332
      13     bnd      13      16       0       0     1.32294726    -0.00067650
      14     bnd       2      10       0       0     2.61062066     0.16233706
      15     bnd       3      10       0       0     3.31170342     0.05572193
      16     bnd       5      13       0       0     3.29861841     0.00476321
      17     bnd      10      13       0       0     6.17817683    -0.04075073
      18     ang       6       2       3       0   120.58081521     0.00919825
      19     ang       6       2      11       0   117.58250471     0.00353585
      20     ang       6       2      10       0    84.44665536    -0.00174753
      21     ang       3       2      11       0   121.01545627    -0.00244363
      22     ang       3       2      10       0   109.10970119    -0.04661026
      23     ang      11       2      10       0    84.94179769    -0.00325298
      24     ang       1       3       2       0   120.20471562    -0.00701227
      25     ang       1       3       4       0   115.82235235    -0.00459530
      26     ang       1       3      10       0   110.04132957     0.00521054
      27     ang       2       3       4       0   123.97274682     0.01249976
      28     ang       2       3      10       0    48.14715512     0.04473649
      29     ang       4       3      10       0   111.58369089     0.03862050
      30     ang       3       4      12       0   114.64975511    -0.01173513
      31     ang       3       4       5       0   125.62382346     0.01874950
      32     ang      12       4       5       0   119.70044878    -0.00733810
      33     lai       4       5      13      14   177.41879682    -0.03381893
      34     ang       8      10       7       0   118.84836042     0.00201165
      35     ang       8      10       9       0   118.87958023    -0.00091770
      36     ang       8      10       2       0    95.53297912    -0.00876632
      37     ang       8      10       3       0   118.27226310    -0.00655952
      38     ang       8      10      13       0    99.94307848     0.05578656
      39     ang       7      10       9       0   118.97800991    -0.00012237
      40     ang       7      10       2       0    97.55224822     0.00067473
      41     ang       7      10       3       0    85.58917787     0.01411721
      42     ang       7      10      13       0   138.94412360    -0.03028603
      43     ang       9      10       2       0    95.07497926     0.00534203
      44     ang       9      10       3       0    84.06384580    -0.01041594
      45     ang       9      10      13       0    37.51546922    -0.09665570
      46     ang       2      10      13       0    63.77625640     0.07943316
      47     ang       3      10      13       0    63.12752659     0.02851870
      48     ang      15      13      14       0   119.82271678     0.00492772
      49     ang      15      13      16       0   119.84250640    -0.00741239
      50     ang      15      13       5       0    92.12047342    -0.02336708
      51     ang      15      13      10       0    73.50300635    -0.02255804
      52     ang      14      13      16       0   119.88738838     0.00248467
      53     ang      14      13       5       0    91.92960420    -0.03613374
      54     ang      14      13      10       0    71.82035561    -0.01911614
      55     ang      16      13       5       0    92.61710169     0.00726327
      56     ang      16      13      10       0   133.12561009     0.00352188
      57     ang       5      13      10       0    40.52126703    -0.00426236
      58     lao       4       5      13      14    87.76508272    -0.08131234
      59     dih       6       2       3       1   185.54638893     0.01240701
      60     dih       6       2       3       4     5.38312361    -0.10573702
      61     dih       6       2       3      10    94.92106141    -0.02770693
      62     dih      11       2       3       1    -5.08113850     0.07507335
      63     dih      11       2       3       4   174.75559619    -0.04307068
      64     dih      11       2       3      10   264.29353399     0.03495942
      65     dih      10       2       3       1    90.62532751     0.04011394
      66     dih      10       2       3       4   -89.53793780    -0.07803009
      67     dih       1       3       4      12     5.38868428     0.08071379
      68     dih       1       3       4       5   183.51807543     0.23125614
      69     dih       2       3       4      12   185.54543537     0.19403573
      70     dih       2       3       4       5     3.67482652     0.34457809
      71     dih      10       3       4      12   132.31954444     0.11925836
      72     dih      10       3       4       5   -49.55106442     0.26980071
      73     dih       6       2      10       8    60.52358084    -0.04911435
      74     dih       6       2      10       7   180.64515993    -0.04874354
      75     dih       6       2      10       9   -59.19521367    -0.04766201
      76     dih       6       2      10       3   239.51745168    -0.00465640
      77     dih       6       2      10      13   -37.85226083    -0.11759369
      78     dih       3       2      10       8   181.00612916    -0.04445794
      79     dih       3       2      10       7   -58.87229175    -0.04408714
      80     dih       3       2      10       9    61.28733465    -0.04300560
      81     dih       3       2      10      13    82.63028750    -0.11293729
      82     dih      11       2      10       8   -57.87702913    -0.05354020
      83     dih      11       2      10       7    62.24454996    -0.05316939
      84     dih      11       2      10       9   182.40417636    -0.05208786
      85     dih      11       2      10       3   121.11684171    -0.00908225
      86     dih      11       2      10      13   203.74712920    -0.12201954
      87     dih       1       3      10       8   248.04637274    -0.03648921
      88     dih       1       3      10       7     8.57640232    -0.02749814
      89     dih       1       3      10       9   128.34861811    -0.02837567
      90     dih       1       3      10       2   246.90926810     0.01378048
      91     dih       1       3      10      13   161.06923955    -0.12607596
      92     dih       2       3      10       8     1.13710464    -0.05026969
      93     dih       2       3      10       7   121.66713422    -0.04127862
      94     dih       2       3      10       9   241.43935001    -0.04215615
      95     dih       2       3      10      13   -85.84002855    -0.13985644
      96     dih       4       3      10       8   118.03564622    -0.06628309
      97     dih       4       3      10       7   238.56567579    -0.05729203
      98     dih       4       3      10       9    -1.66210842    -0.05816956
      99     dih       4       3      10       2   116.89854157    -0.01601341
     100     dih       4       3      10      13    31.05851302    -0.15586985
     101     dih       8      10      13      15   -16.87162241     0.10711857
     102     dih       8      10      13      14   113.15732763     0.14638782
     103     dih       8      10      13      16   227.42662749     0.13470349
     104     dih       8      10      13       5   229.18165656     0.11302391
     105     dih       7      10      13      15   144.40623621     0.22412635
     106     dih       7      10      13      14   -85.56481375     0.26339560
     107     dih       7      10      13      16    28.70448611     0.25171127
     108     dih       7      10      13       5    30.45951518     0.23003169
     109     dih       9      10      13      15   217.89914737     0.12289189
     110     dih       9      10      13      14   -12.07190259     0.16216114
     111     dih       9      10      13      16   102.19739727     0.15047681
     112     dih       9      10      13       5   103.95242634     0.12879723
     113     dih       2      10      13      15    74.43312805     0.08307503
     114     dih       2      10      13      14   204.46207809     0.12234428
     115     dih       2      10      13      16   -41.26862205     0.11065995
     116     dih       2      10      13       5   -39.51359298     0.08898038
     117     dih       3      10      13      15    99.88934661     0.07137383
     118     dih       3      10      13      14   229.91829665     0.11064307
     119     dih       3      10      13      16   -15.81240349     0.09895874
     120     dih       3      10      13       5   -14.05737442     0.07727917
     121     dih      12       4      13      14   -89.64971496    -0.01296227
 
----------------------------------------------------------------------
Geometry Convergence after Step   3       (Hartree/Angstrom,Angstrom)
----------------------------------------------------------------------
current energy                               -3.16088278 Hartree
energy change                      -0.00042615     0.00016000    F
constrained gradient max            0.01723935     0.00100000    F
constrained gradient rms            0.00506179     0.00066667    F
gradient max                        0.01723935
gradient rms                        0.00506179
cart. step max                      0.07091700     0.01000000    F
cart. step rms                      0.02383924     0.00666667    F
 
 
--------
Geometry
--------
Formula: C4H7BF3O
Atoms
  Index Symbol   x (angstrom)   y (angstrom)   z (angstrom)
      1      H     0.16475587    -1.85088360    -0.25560587
      2      C    -0.91566840    -0.09120542     0.24539933
      3      C     0.20768734    -0.77724700    -0.07336415
      4      C     1.53491416    -0.15782134    -0.18938768
      5      O     1.78174218     1.02727654     0.00367623
      6      H    -0.88995903     0.98864579     0.34968381
      7      H    -1.17766981    -1.16636993     3.00900254
      8      H    -2.09412386     0.45375415     2.88758297
      9      H    -0.23496736     0.44360118     3.04692445
     10      C    -1.15837781    -0.09265680     2.86853325
     11      H    -1.88437938    -0.57217279     0.24565962
     12      H     2.33827743    -0.84100675    -0.50741882
     13      B     2.47815788     4.23022017     0.36067802
     14      F     2.88057349     4.03984217     1.60808077
     15      F     1.22105613     4.57379999     0.12229527
     16      F     3.35416518     4.19076341    -0.63092332
 
Total System Charge             0.00000
 
 *** GOStep4 ***

 Energy gradients wrt nuclear displacements
 ==========================================

     Atom      Cartesian (a.u./angstrom)
                 X         Y         Z
 ----------------------------------------
     1 H     0.000404  0.000231 -0.000633
     2 C    -0.005479 -0.000887  0.002686
     3 C     0.001944  0.002255 -0.000855
     4 C     0.010095 -0.016419  0.002039
     5 O    -0.000789  0.002663 -0.002367
     6 H    -0.000407 -0.000357 -0.000455
     7 H    -0.000096  0.000138  0.000626
     8 H     0.000037 -0.000038  0.000207
     9 H    -0.000209 -0.000072  0.000729
    10 C     0.001025 -0.000593 -0.004109
    11 H     0.003717  0.002070 -0.000043
    12 H    -0.010497  0.009284  0.001940
    13 B    -0.002865 -0.007937 -0.001281
    14 F     0.000059  0.003679 -0.001157
    15 F     0.002689  0.002966  0.001375
    16 F     0.000373  0.003017  0.001299
 ----------------------------------------
 Mulliken charges used for AMS results%charges...
Hessian eigenvector     1(    -0.002) has overlap with TSRC:    0.16548E+00
Hessian eigenvector     1 has the largest overlap with TSRC:  0.16548
           Primitive Internal Coordinates (atoms in internal order)
-------------------------------------------------------------------------------
    index    type      i       j       k       l   value(A,deg)     Max Ovl Vect
-------------------------------------------------------------------------------
       1     bnd       1       3       0       0     1.08983976     0.00032701
       2     bnd       2       6       0       0     1.08517965     0.00029813
       3     bnd       2       3       0       0     1.35432320    -0.00969284
       4     bnd       3       4       0       0     1.46924492    -0.00021592
       5     bnd       4      12       0       0     1.10148929     0.00925042
       6     bnd       4       5       0       0     1.22582818    -0.00149807
       7     bnd       8      10       0       0     1.08376587     0.00011071
       8     bnd       7      10       0       0     1.08303449     0.00010021
       9     bnd       9      10       0       0     1.08262778     0.00016886
      10     bnd       2      11       0       0     1.08154086     0.00306935
      11     bnd      13      15       0       0     1.32483140     0.00174719
      12     bnd      13      14       0       0     1.32446054     0.00132268
      13     bnd      13      16       0       0     1.32371404     0.00258880
      14     bnd       2      10       0       0     2.63433892     0.23344691
      15     bnd       3      10       0       0     3.31505024     0.06174696
      16     bnd       5      13       0       0     3.29716439     0.00326050
      17     bnd      10      13       0       0     6.18069534    -0.03089550
      18     ang       6       2       3       0   120.46666625     0.00580500
      19     ang       6       2      11       0   117.62733378     0.00436336
      20     ang       6       2      10       0    84.66613657     0.00602251
      21     ang       3       2      11       0   121.17911671     0.00282890
      22     ang       3       2      10       0   108.08982812    -0.07823994
      23     ang      11       2      10       0    85.23862880     0.00744605
      24     ang       1       3       2       0   120.37842631    -0.00039862
      25     ang       1       3       4       0   115.95762617    -0.00223496
      26     ang       1       3      10       0   109.60919617    -0.00637148
      27     ang       2       3       4       0   123.66306876     0.00340902
      28     ang       2       3      10       0    49.05866861     0.07195209
      29     ang       4       3      10       0   110.80960858     0.01559698
      30     ang       3       4      12       0   114.84440413    -0.00305977
      31     ang       3       4       5       0   125.24276325     0.00192905
      32     ang      12       4       5       0   119.88399277     0.00086161
      33     lai       4       5      13      14   177.47286727    -0.01990183
      34     ang       8      10       7       0   118.82780704     0.00032475
      35     ang       8      10       9       0   118.93456931    -0.00026433
      36     ang       8      10       2       0    95.55345085    -0.00784650
      37     ang       8      10       3       0   118.39286880    -0.00142317
      38     ang       8      10      13       0    99.35278206     0.03572205
      39     ang       7      10       9       0   119.00517644    -0.00024540
      40     ang       7      10       2       0    97.54676804     0.00475921
      41     ang       7      10       3       0    85.27969311     0.00729951
      42     ang       7      10      13       0   139.15690291    -0.01963719
      43     ang       9      10       2       0    94.88861796     0.00357471
      44     ang       9      10       3       0    84.09046002    -0.00549093
      45     ang       9      10      13       0    38.60888151    -0.05687629
      46     ang       2      10      13       0    62.70165369     0.04418673
      47     ang       3      10      13       0    62.73529358     0.01618190
      48     ang      15      13      14       0   119.67263226    -0.00313208
      49     ang      15      13      16       0   120.05876550    -0.00178453
      50     ang      15      13       5       0    91.83530515    -0.01925698
      51     ang      15      13      10       0    72.30826544    -0.09008614
      52     ang      14      13      16       0   120.01102033     0.00491662
      53     ang      14      13       5       0    91.51955281    -0.04903952
      54     ang      14      13      10       0    72.30700648     0.03380182
      55     ang      16      13       5       0    91.70270029    -0.01728038
      56     ang      16      13      10       0   132.25857894    -0.01651692
      57     ang       5      13      10       0    40.55613493    -0.00324806
      58     lao       4       5      13      14    88.59993040    -0.06303071
      59     dih       6       2       3       1   184.88472456    -0.00688934
      60     dih       6       2       3       4     5.23982147    -0.10958674
      61     dih       6       2       3      10    94.51379741    -0.03949571
      62     dih      11       2       3       1    -5.11496561     0.07224755
      63     dih      11       2       3       4   175.24013130    -0.03044985
      64     dih      11       2       3      10   264.51410724     0.03964118
      65     dih      10       2       3       1    90.37092715     0.03260637
      66     dih      10       2       3       4   -89.27397594    -0.07009103
      67     dih       1       3       4      12     3.39877350     0.02242528
      68     dih       1       3       4       5   181.43254347     0.14755588
      69     dih       2       3       4      12   183.05805803     0.12095355
      70     dih       2       3       4       5     1.09182799     0.24608416
      71     dih      10       3       4      12   129.15402590     0.02569996
      72     dih      10       3       4       5   -52.81220413     0.15083057
      73     dih       6       2      10       8    61.42910695    -0.01899118
      74     dih       6       2      10       7   181.53284462    -0.01939039
      75     dih       6       2      10       9   -58.31867826    -0.01806083
      76     dih       6       2      10       3   239.65372130    -0.00078333
      77     dih       6       2      10      13   -36.24634676    -0.06374891
      78     dih       3       2      10       8   181.77538565    -0.01820785
      79     dih       3       2      10       7   -58.12087668    -0.01860705
      80     dih       3       2      10       9    62.02760044    -0.01727750
      81     dih       3       2      10      13    84.09993194    -0.06296557
      82     dih      11       2      10       8   -56.93836745    -0.02121771
      83     dih      11       2      10       7    63.16537022    -0.02161691
      84     dih      11       2      10       9   183.31384734    -0.02028736
      85     dih      11       2      10       3   121.28624690    -0.00300986
      86     dih      11       2      10      13   205.38617884    -0.06597544
      87     dih       1       3      10       8   248.32824023    -0.02578944
      88     dih       1       3      10       7     8.68248709    -0.02152408
      89     dih       1       3      10       9   128.52945449    -0.02214727
      90     dih       1       3      10       2   246.31946877    -0.00522263
      91     dih       1       3      10      13   162.38507937    -0.08049591
      92     dih       2       3      10       8     2.00877147    -0.02056680
      93     dih       2       3      10       7   122.36301832    -0.01630145
      94     dih       2       3      10       9   242.20998572    -0.01692463
      95     dih       2       3      10      13   -83.93438940    -0.07527327
      96     dih       4       3      10       8   119.09477415    -0.03022387
      97     dih       4       3      10       7   239.44902100    -0.02595852
      98     dih       4       3      10       9    -0.70401160    -0.02658170
      99     dih       4       3      10       2   117.08600268    -0.00965707
     100     dih       4       3      10      13    33.15161328    -0.08493034
     101     dih       8      10      13      15   -17.30629864     0.15747882
     102     dih       8      10      13      14   113.02264729     0.19889365
     103     dih       8      10      13      16   227.82533984     0.23224809
     104     dih       8      10      13       5   227.57835508     0.06358031
     105     dih       7      10      13      15   142.36927402     0.22741139
     106     dih       7      10      13      14   -87.30178005     0.26882622
     107     dih       7      10      13      16    27.50091249     0.30218066
     108     dih       7      10      13       5    27.25392773     0.13351288
     109     dih       9      10      13      15   217.27629318     0.17051823
     110     dih       9      10      13      14   -12.39476089     0.21193306
     111     dih       9      10      13      16   102.40793165     0.24528750
     112     dih       9      10      13       5   102.16094689     0.07661972
     113     dih       2      10      13      15    74.14726609     0.13846639
     114     dih       2      10      13      14   204.47621202     0.17988122
     115     dih       2      10      13      16   -40.72109544     0.21323566
     116     dih       2      10      13       5   -40.96808020     0.04456788
     117     dih       3      10      13      15    99.90504577     0.13782851
     118     dih       3      10      13      14   230.23399170     0.17924334
     119     dih       3      10      13      16   -14.96331575     0.21259778
     120     dih       3      10      13       5   -15.21030051     0.04393000
     121     dih      12       4      13      14   -86.22950910     0.15297346
 
----------------------------------------------------------------------
Geometry Convergence after Step   4       (Hartree/Angstrom,Angstrom)
----------------------------------------------------------------------
current energy                               -3.16115246 Hartree
energy change                      -0.00026968     0.00016000    F
constrained gradient max            0.01642181     0.00100000    F
constrained gradient rms            0.00406157     0.00066667    F
gradient max                        0.01642181
gradient rms                        0.00406157
cart. step max                      0.04677329     0.01000000    F
cart. step rms                      0.01783186     0.00666667    F
 
 
--------
Geometry
--------
Formula: C4H7BF3O
Atoms
  Index Symbol   x (angstrom)   y (angstrom)   z (angstrom)
      1      H     0.14276894    -1.83693081    -0.27331376
      2      C    -0.91140954    -0.06282158     0.23131456
      3      C     0.20177802    -0.76564823    -0.08199886
      4      C     1.54111937    -0.16658909    -0.17167935
      5      O     1.79912484     1.01729141     0.01167590
      6      H    -0.86504794     1.01456617     0.35313514
      7      H    -1.17814558    -1.18419523     2.99671099
      8      H    -2.08015498     0.44629912     2.90889907
      9      H    -0.21980282     0.41634936     3.05866685
     10      C    -1.14945423    -0.10810612     2.87762663
     11      H    -1.88932152    -0.52625036     0.22345494
     12      H     2.34440962    -0.86621109    -0.46064553
     13      B     2.46285214     4.22767959     0.35027341
     14      F     2.85522985     4.05469658     1.60357210
     15      F     1.20450427     4.55576269     0.09601724
     16      F     3.34773356     4.18264735    -0.63289292
 
Total System Charge             0.00000
 
 *** GOStep5 ***

 Energy gradients wrt nuclear displacements
 ==========================================

     Atom      Cartesian (a.u./angstrom)
                 X         Y         Z
 ----------------------------------------
     1 H     0.000243  0.000198 -0.000723
     2 C    -0.005036 -0.000311  0.003024
     3 C     0.001918  0.002082 -0.000789
     4 C     0.008232 -0.014968  0.003786
     5 O    -0.000999  0.002787 -0.002747
     6 H    -0.000167 -0.000306 -0.000539
     7 H    -0.000150  0.000101  0.000723
     8 H    -0.000030 -0.000108  0.000236
     9 H    -0.000156 -0.000093  0.000792
    10 C     0.001462 -0.000604 -0.005021
    11 H     0.003029  0.001634  0.000055
    12 H    -0.008584  0.007900  0.000983
    13 B    -0.002336 -0.007330 -0.001365
    14 F     0.000121  0.003401 -0.000957
    15 F     0.002325  0.002825  0.001197
    16 F     0.000130  0.002792  0.001345
 ----------------------------------------
 Mulliken charges used for AMS results%charges...
Hessian eigenvector     1(    -0.000) has overlap with TSRC:    0.36762E+00
Hessian eigenvector     1 has the largest overlap with TSRC:  0.36762
           Primitive Internal Coordinates (atoms in internal order)
-------------------------------------------------------------------------------
    index    type      i       j       k       l   value(A,deg)     Max Ovl Vect
-------------------------------------------------------------------------------
       1     bnd       1       3       0       0     1.08983018    -0.00016752
       2     bnd       2       6       0       0     1.08524376    -0.00068070
       3     bnd       2       3       0       0     1.35326167     0.02229685
       4     bnd       3       4       0       0     1.46994888    -0.00445023
       5     bnd       4      12       0       0     1.10374256    -0.02252080
       6     bnd       4       5       0       0     1.22546277     0.00524296
       7     bnd       8      10       0       0     1.08376520    -0.00007486
       8     bnd       7      10       0       0     1.08303834    -0.00009779
       9     bnd       9      10       0       0     1.08262684    -0.00011098
      10     bnd       2      11       0       0     1.08219215    -0.00672908
      11     bnd      13      15       0       0     1.32503738    -0.00244942
      12     bnd      13      14       0       0     1.32462864    -0.00183870
      13     bnd      13      16       0       0     1.32350257    -0.00021159
      14     bnd       2      10       0       0     2.65738284    -0.51677736
      15     bnd       3      10       0       0     3.31927300    -0.11728639
      16     bnd       5      13       0       0     3.29572063     0.00972503
      17     bnd      10      13       0       0     6.18347065     0.00076826
      18     ang       6       2       3       0   120.42736956    -0.00542113
      19     ang       6       2      11       0   117.68112245    -0.01022761
      20     ang       6       2      10       0    84.77657683    -0.01902121
      21     ang       3       2      11       0   121.28153675    -0.01353639
      22     ang       3       2      10       0   107.18132789     0.18321434
      23     ang      11       2      10       0    85.35326840    -0.01900253
      24     ang       1       3       2       0   120.43909757    -0.00460803
      25     ang       1       3       4       0   116.05450725    -0.00445145
      26     ang       1       3      10       0   109.22083629     0.04401250
      27     ang       2       3       4       0   123.50256949     0.00842573
      28     ang       2       3      10       0    49.89499760    -0.16660013
      29     ang       4       3      10       0   110.15633169     0.04289216
      30     ang       3       4      12       0   114.88333786     0.00034139
      31     ang       3       4       5       0   125.19851808     0.00013287
      32     ang      12       4       5       0   119.88762905    -0.00023773
      33     lai       4       5      13      14   177.23876626     0.03484829
      34     ang       8      10       7       0   118.83897154    -0.00130038
      35     ang       8      10       9       0   118.99839480    -0.00381031
      36     ang       8      10       2       0    95.56326603     0.00767545
      37     ang       8      10       3       0   118.46743974    -0.00873443
      38     ang       8      10      13       0    98.90389009     0.00951286
      39     ang       7      10       9       0   119.05715245    -0.00514419
      40     ang       7      10       2       0    97.40029215     0.00971029
      41     ang       7      10       3       0    84.95129813     0.02600331
      42     ang       7      10      13       0   139.20988235     0.00769660
      43     ang       9      10       2       0    94.66617592     0.01117102
      44     ang       9      10       3       0    84.00183443     0.00965412
      45     ang       9      10      13       0    39.37870584    -0.02039227
      46     ang       2      10      13       0    61.88101002     0.03142914
      47     ang       3      10      13       0    62.39639696     0.01393555
      48     ang      15      13      14       0   119.68267763     0.00220593
      49     ang      15      13      16       0   120.05440332     0.00290659
      50     ang      15      13       5       0    91.73193199     0.01101807
      51     ang      15      13      10       0    72.37777963     0.13675214
      52     ang      14      13      16       0   120.02373237    -0.00511251
      53     ang      14      13       5       0    91.69923664     0.03366920
      54     ang      14      13      10       0    72.22742033    -0.09055313
      55     ang      16      13       5       0    91.44310748     0.03072381
      56     ang      16      13      10       0   132.09393804     0.01723789
      57     ang       5      13      10       0    40.65094265    -0.00687682
      58     lao       4       5      13      14    89.71792644    -0.03291810
      59     dih       6       2       3       1   184.32407246     0.06281306
      60     dih       6       2       3       4     5.06421737     0.14678146
      61     dih       6       2       3      10    94.07654541     0.08985507
      62     dih      11       2       3       1    -4.83766823    -0.11493304
      63     dih      11       2       3       4   175.90247667    -0.03096465
      64     dih      11       2       3      10   264.91480472    -0.08789104
      65     dih      10       2       3       1    90.24752705    -0.02704201
      66     dih      10       2       3       4   -89.01232805     0.05692639
      67     dih       1       3       4      12     2.07545695     0.09892190
      68     dih       1       3       4       5   180.05320178    -0.01106032
      69     dih       2       3       4      12   181.36514463     0.01836370
      70     dih       2       3       4       5    -0.65711054    -0.09161852
      71     dih      10       3       4      12   126.81300551     0.19624330
      72     dih      10       3       4       5   -55.20924966     0.08626108
      73     dih       6       2      10       8    61.98306905    -0.03198804
      74     dih       6       2      10       7   182.07269073    -0.02989861
      75     dih       6       2      10       9   -57.79549538    -0.03115442
      76     dih       6       2      10       3   239.73196514    -0.00510993
      77     dih       6       2      10      13   -35.15557941    -0.03969148
      78     dih       3       2      10       8   182.25110390    -0.02687811
      79     dih       3       2      10       7   -57.65927441    -0.02478867
      80     dih       3       2      10       9    62.47253947    -0.02604449
      81     dih       3       2      10      13    85.11245545    -0.03458155
      82     dih      11       2      10       8   -56.40599603    -0.02781805
      83     dih      11       2      10       7    63.68362566    -0.02572862
      84     dih      11       2      10       9   183.81543954    -0.02698443
      85     dih      11       2      10       3   121.34290007    -0.00093994
      86     dih      11       2      10      13   206.45535551    -0.03552149
      87     dih       1       3      10       8   248.48012163     0.01406737
      88     dih       1       3      10       7     8.67400210     0.02559192
      89     dih       1       3      10       9   128.64358082     0.01469409
      90     dih       1       3      10       2   245.93127223     0.04453348
      91     dih       1       3      10      13   163.34627643    -0.01039961
      92     dih       2       3      10       8     2.54884939    -0.03046612
      93     dih       2       3      10       7   122.74272986    -0.01894156
      94     dih       2       3      10       9   242.71230859    -0.02983939
[...]
 Index  Atom      ---- Displacements (x/y/z) ----
     1     H      -0.728191   0.116342   0.323881
     2     C       0.051607  -0.125426  -0.016091
     3     C      -0.028828   0.119493   0.012502
     4     C       0.010295   0.000311  -0.003041
     5     O      -0.003458   0.016277   0.003721
     6     H       0.464004  -0.124067  -0.239409
     7     H       0.010970   0.002252   0.000886
     8     H       0.007664   0.014321   0.010472
     9     H      -0.002747   0.002465   0.012497
    10     C      -0.001712  -0.002022  -0.007271
    11     H       0.027799  -0.055538  -0.021774
    12     H      -0.095877  -0.119403   0.021018
    13     B      -0.003359  -0.001138   0.001012
    14     F       0.000981   0.000137  -0.000420
    15     F       0.000168   0.000462  -0.000602
    16     F       0.000683  -0.000134   0.000377
 
 Mode:    34      Frequency (cm-1):     1377.6622     Intensity (km/mol):       16.7817
 Index  Atom      ---- Displacements (x/y/z) ----
     1     H       0.058067   0.006878  -0.023922
     2     C      -0.003305   0.005999   0.001735
     3     C      -0.018240   0.004956   0.008032
     4     C      -0.003289   0.003430   0.002724
     5     O       0.001843  -0.012773  -0.002800
     6     H       0.080372   0.006599  -0.028743
     7     H       0.742482   0.112420  -0.126773
     8     H       0.112581   0.513590  -0.153993
     9     H       0.095289  -0.201889   0.093569
    10     C      -0.079506  -0.035686   0.014830
    11     H       0.050040  -0.092208  -0.021313
    12     H       0.078408   0.112943  -0.021845
    13     B      -0.085779   0.000642   0.039457
    14     F       0.029255  -0.000189  -0.015029
    15     F       0.004085   0.006284  -0.014177
    16     F       0.016148  -0.006572   0.006456
 
 Mode:    35      Frequency (cm-1):     1379.2383     Intensity (km/mol):      135.9774
 Index  Atom      ---- Displacements (x/y/z) ----
     1     H       0.010819   0.006330  -0.006014
     2     C       0.000770  -0.001461  -0.000174
     3     C      -0.004944   0.004857   0.002374
     4     C      -0.003256   0.001821   0.002259
     5     O       0.001359  -0.006796  -0.001773
     6     H       0.023625  -0.001740  -0.006989
     7     H      -0.047397   0.079246   0.073054
     8     H      -0.257298  -0.641218   0.091680
     9     H       0.457644  -0.473918  -0.026454
    10     C      -0.012854   0.087092  -0.012096
    11     H       0.007978  -0.013130  -0.001916
    12     H       0.035779   0.055381  -0.008112
    13     B      -0.201468   0.020210   0.053754
    14     F       0.063515  -0.000722  -0.031540
    15     F       0.008228   0.007953  -0.019321
    16     F       0.044411  -0.019059   0.019914
 
 Mode:    36      Frequency (cm-1):     1386.5850     Intensity (km/mol):      183.4804
 Index  Atom      ---- Displacements (x/y/z) ----
     1     H      -0.016627   0.015136   0.007991
     2     C       0.002936  -0.006163  -0.001023
     3     C       0.003460   0.012423   0.000208
     4     C      -0.023269   0.005604   0.011973
     5     O       0.006150  -0.026331  -0.006795
     6     H      -0.004018  -0.006621   0.003642
     7     H      -0.417428  -0.141559   0.011130
     8     H       0.164724   0.265699   0.010206
     9     H      -0.479583   0.560163  -0.039120
    10     C       0.061194  -0.057482   0.000815
    11     H      -0.012348   0.024632   0.003430
    12     H       0.150704   0.242566  -0.035820
    13     B      -0.229536   0.017739   0.073767
    14     F       0.074066  -0.000657  -0.037217
    15     F       0.009932   0.011028  -0.026323
    16     F       0.048445  -0.020595   0.020996
 
 Mode:    37      Frequency (cm-1):     1386.7489     Intensity (km/mol):       65.7276
 Index  Atom      ---- Displacements (x/y/z) ----
     1     H       0.140201   0.050454  -0.062966
     2     C      -0.010792   0.005906   0.004106
     3     C      -0.061515   0.039620   0.030282
     4     C      -0.036833   0.010490   0.022336
     5     O       0.012371  -0.068137  -0.017059
     6     H       0.336249   0.007946  -0.122694
     7     H      -0.082923  -0.004875   0.021783
     8     H      -0.033013  -0.110973   0.026699
     9     H       0.030717  -0.020577  -0.010824
    10     C       0.007391   0.010850  -0.005712
    11     H       0.166739  -0.313353  -0.064932
    12     H       0.452075   0.673209  -0.124298
    13     B       0.065868  -0.004704  -0.021782
    14     F      -0.021248   0.000213   0.010700
    15     F      -0.002883  -0.003218   0.007818
    16     F      -0.013766   0.005911  -0.005864
 
 Mode:    38      Frequency (cm-1):     1398.2844     Intensity (km/mol):      377.4578
 Index  Atom      ---- Displacements (x/y/z) ----
     1     H       0.094753  -0.003466  -0.037830
     2     C       0.000568   0.009958   0.000144
     3     C      -0.032773  -0.003919   0.013128
     4     C       0.022466   0.001534  -0.009514
     5     O      -0.005582   0.011319   0.000098
     6     H       0.093102   0.010219  -0.019745
     7     H      -0.130971  -0.014033   0.025180
     8     H      -0.033367  -0.126738   0.032010
     9     H       0.009902   0.005718  -0.021093
    10     C       0.013228   0.011437  -0.004489
    11     H       0.073157  -0.125798  -0.030621
    12     H      -0.064874  -0.123004   0.018410
    13     B       0.194106  -0.409439   0.742847
    14     F       0.040418   0.013079  -0.047845
    15     F       0.019273   0.128701  -0.262700
    16     F      -0.171889   0.093953  -0.117759
 
 Mode:    39      Frequency (cm-1):     1401.5527     Intensity (km/mol):       38.2888
 Index  Atom      ---- Displacements (x/y/z) ----
     1     H       0.348457  -0.014094  -0.155126
     2     C      -0.006155   0.042672   0.002364
     3     C      -0.123513  -0.016342   0.050660
     4     C       0.082462  -0.002422  -0.038515
     5     O      -0.014814   0.041815   0.013696
     6     H       0.391224   0.043107  -0.123434
     7     H      -0.094703  -0.023484   0.011410
     8     H       0.015613   0.002361   0.013655
     9     H      -0.064540   0.080517  -0.011103
    10     C       0.012199  -0.005709  -0.004064
    11     H       0.298411  -0.523050  -0.119463
    12     H      -0.237000  -0.442570   0.043975
    13     B      -0.032971   0.014032  -0.016355
    14     F       0.007024  -0.000225  -0.002406
    15     F       0.000606  -0.002767   0.005524
    16     F       0.011183  -0.005305   0.006273
 
 Mode:    40      Frequency (cm-1):     1541.0282     Intensity (km/mol):      158.0697
 Index  Atom      ---- Displacements (x/y/z) ----
     1     H       0.309955   0.113091  -0.145525
     2     C       0.249852  -0.123015  -0.077315
     3     C      -0.274902   0.081862   0.124498
     4     C       0.089270   0.118503  -0.022087
     5     O      -0.025670  -0.085258  -0.001390
     6     H      -0.590351  -0.163937   0.117740
     7     H       0.015628   0.008457   0.010241
     8     H       0.002966   0.002706   0.009662
     9     H       0.007614  -0.011188   0.011489
    10     C      -0.003449  -0.002237  -0.017944
    11     H      -0.088066   0.506244  -0.052004
    12     H       0.025606   0.007967  -0.013912
    13     B       0.008272  -0.002434  -0.006038
    14     F      -0.003161   0.000349   0.001912
    15     F      -0.000413  -0.000139   0.001596
    16     F      -0.001196   0.000958  -0.000052
 
 Mode:    41      Frequency (cm-1):     1690.8172     Intensity (km/mol):      167.9357
 Index  Atom      ---- Displacements (x/y/z) ----
     1     H       0.334650   0.125365  -0.132139
     2     C       0.101528  -0.068633  -0.045482
     3     C      -0.118948   0.100605   0.060120
     4     C      -0.118760  -0.556255  -0.023556
     5     O       0.069343   0.361591   0.021313
     6     H      -0.179583  -0.097837   0.062619
     7     H       0.009688   0.001897   0.003995
     8     H       0.002297   0.009148   0.007135
     9     H       0.001379   0.000802   0.015814
    10     C      -0.001595  -0.000518  -0.001457
    11     H      -0.035314   0.232348   0.002192
    12     H       0.404648   0.233912  -0.172500
    13     B      -0.001330   0.005993   0.004757
    14     F       0.001277  -0.001132  -0.001440
    15     F      -0.000088  -0.001034  -0.000618
    16     F      -0.000304  -0.001075  -0.000798
 
 Mode:    42      Frequency (cm-1):     2838.4756     Intensity (km/mol):      165.8587
 Index  Atom      ---- Displacements (x/y/z) ----
     1     H       0.008436  -0.043159  -0.006160
     2     C       0.000130   0.000157  -0.000061
     3     C      -0.001253   0.002290   0.000619
     4     C       0.059272  -0.045156  -0.035198
     5     O      -0.001012  -0.002805   0.000030
     6     H      -0.002572   0.005971   0.001075
     7     H       0.000109   0.000590  -0.000288
     8     H       0.000563  -0.000068  -0.000072
     9     H      -0.000589  -0.000591   0.000310
    10     C      -0.000023   0.000027   0.000070
    11     H       0.001969  -0.001564  -0.001093
    12     H      -0.684422   0.590637   0.416993
    13     B       0.000369   0.000311   0.000092
    14     F      -0.000069  -0.000062  -0.000008
    15     F      -0.000036  -0.000058   0.000019
    16     F      -0.000084  -0.000012  -0.000044
 
 Mode:    43      Frequency (cm-1):     3065.7812     Intensity (km/mol):        0.2607
 Index  Atom      ---- Displacements (x/y/z) ----
     1     H      -0.000139  -0.004926  -0.000247
     2     C      -0.001734   0.001013   0.000502
     3     C       0.000063   0.000294   0.000061
     4     C       0.000199   0.000171  -0.000061
     5     O      -0.000041  -0.000123  -0.000006
     6     H       0.000711  -0.021997   0.000946
     7     H       0.118292  -0.549192   0.119660
     8     H      -0.556285   0.207799   0.088875
     9     H       0.418494   0.360438  -0.057687
    10     C       0.001665  -0.001588  -0.012858
    11     H       0.018284   0.010900  -0.005032
    12     H      -0.000776   0.000450   0.000431
    13     B      -0.000036  -0.000054   0.000131
    14     F       0.000004   0.000003  -0.000017
    15     F       0.000004   0.000008  -0.000029
    16     F       0.000000   0.000009  -0.000015
 
 Mode:    44      Frequency (cm-1):     3110.3754     Intensity (km/mol):       11.3427
 Index  Atom      ---- Displacements (x/y/z) ----
     1     H      -0.007978  -0.815088  -0.046188
     2     C      -0.031922   0.011099   0.008020
     3     C       0.001869   0.068626   0.003403
     4     C      -0.003421   0.001949   0.001926
     5     O       0.000142  -0.000544  -0.000182
     6     H       0.006876  -0.355080   0.008839
     7     H      -0.003241   0.014926  -0.002804
     8     H       0.010252  -0.003999  -0.001634
     9     H      -0.009317  -0.008431   0.001642
    10     C       0.000321  -0.000221   0.000378
    11     H       0.372418   0.222856  -0.106718
    12     H       0.023401  -0.016378  -0.013649
    13     B       0.000009  -0.000048  -0.000025
    14     F      -0.000002   0.000012   0.000006
    15     F       0.000000   0.000007   0.000002
    16     F       0.000001   0.000008   0.000005
 
 Mode:    45      Frequency (cm-1):     3120.1395     Intensity (km/mol):        6.0815
 Index  Atom      ---- Displacements (x/y/z) ----
     1     H       0.004779   0.548283   0.031655
     2     C      -0.045548   0.032820   0.011836
     3     C       0.004019  -0.049864  -0.004851
     4     C       0.003226   0.000243  -0.001504
     5     O      -0.000028  -0.000378  -0.000008
     6     H       0.013289  -0.625952   0.015002
     7     H      -0.003510   0.016697  -0.003934
     8     H       0.011295  -0.004146  -0.002097
     9     H      -0.009032  -0.008090   0.001673
    10     C       0.000274  -0.000364   0.000951
    11     H       0.456493   0.271479  -0.130144
    12     H      -0.020326   0.011793   0.011342
    13     B       0.000109   0.000052   0.000024
    14     F      -0.000018  -0.000003  -0.000002
    15     F      -0.000010  -0.000011   0.000003
    16     F      -0.000022   0.000001  -0.000012
 
 Mode:    46      Frequency (cm-1):     3214.1870     Intensity (km/mol):        0.7563
 Index  Atom      ---- Displacements (x/y/z) ----
     1     H       0.000546  -0.086935  -0.005755
     2     C       0.047878   0.085870  -0.015558
     3     C      -0.000067   0.008533   0.000552
     4     C      -0.000261   0.000150   0.000129
     5     O      -0.000000  -0.000296  -0.000031
     6     H       0.030728  -0.692657   0.010726
     7     H      -0.002853   0.011340  -0.001974
     8     H       0.016263  -0.006580  -0.002968
     9     H       0.023504   0.020455  -0.003026
    10     C      -0.003219  -0.002376   0.000682
    11     H      -0.595914  -0.339806   0.171926
    12     H      -0.000239   0.001180   0.000511
    13     B       0.000016  -0.000020  -0.000002
    14     F       0.000002   0.000014   0.000004
    15     F      -0.000002   0.000002  -0.000000
    16     F      -0.000002   0.000004   0.000000
 
 Mode:    47      Frequency (cm-1):     3241.7381     Intensity (km/mol):        2.3989
 Index  Atom      ---- Displacements (x/y/z) ----
     1     H      -0.000017  -0.000291   0.000087
     2     C       0.000856   0.001090  -0.000325
     3     C      -0.000099   0.000132  -0.000003
     4     C      -0.000053  -0.000026   0.000024
     5     O       0.000005   0.000014  -0.000003
     6     H       0.000616  -0.005583  -0.000899
     7     H      -0.108794   0.567303  -0.134263
     8     H      -0.710614   0.260902   0.125825
     9     H      -0.154543  -0.158171   0.020235
    10     C       0.081964  -0.056424  -0.000864
    11     H      -0.011206  -0.006907   0.003016
    12     H       0.000065   0.000001   0.000057
    13     B       0.000057  -0.000009  -0.000033
    14     F      -0.000014   0.000006   0.000008
    15     F      -0.000004  -0.000000   0.000007
    16     F      -0.000011   0.000006  -0.000001
 
 Mode:    48      Frequency (cm-1):     3252.7705     Intensity (km/mol):        0.8243
 Index  Atom      ---- Displacements (x/y/z) ----
     1     H      -0.000179   0.002385   0.000090
     2     C      -0.001478  -0.003073   0.000485
     3     C      -0.000012  -0.000165   0.000000
     4     C       0.000052   0.000001  -0.000004
     5     O      -0.000006   0.000004   0.000018
     6     H      -0.001183   0.026893  -0.001323
     7     H      -0.125732   0.529539  -0.122839
     8     H       0.179816  -0.084667  -0.029637
     9     H       0.604658   0.516224  -0.070304
    10     C      -0.055420  -0.080888   0.018677
    11     H       0.020149   0.011602  -0.004641
    12     H      -0.000123   0.000119  -0.000070
    13     B       0.000031  -0.000031   0.000045
    14     F      -0.000024  -0.000014   0.000007
    15     F      -0.000003  -0.000000  -0.000007
    16     F      -0.000009   0.000006  -0.000008

PES point character: Geometry corresponds to a stationary point on the PES with >1 negative frequencies.




 ============================
 Statistical Thermal Analysis  ***  ideal gas assumed  ***
 ============================
  
 Pressure:                  1.000000 atm.
 Temperature:             298.150000 K



 Moments of Inertia [amu*bohr^2] and principal axis
 ==================================================

         973.1120       2668.2640       3139.4452
 ------------------------------------------------
           0.5113         -0.4062          0.7573
           0.8589          0.2729         -0.4335
          -0.0306          0.8721          0.4884


 The rotational contribution to the molecular entropy includes
 a term, dependent on the symmetry number sigma. The results 
 reported below were computed using sigma = 1, determined from
 the point group symmetry of the input geometry (NOSYM). 
 If this is not the correct symmetry, try symmetrizing the molecule before
 running the calculation (note: linear molecules should be aligned along one
 of the Cartesian axes).
 Contributions from frequencies below 20 1/cm are not included in vibrational sums.
 Their contributions, if any, are reported separately.


     Temp                                                        Transl      Rotat     Vibrat     Total
     ----                                                        ------      -----     ------     -----

     298.15   Entropy (cal/mol-K):                               40.701     30.478     33.417    104.596
              Nuclear Internal Energy (kcal/mol):                 0.889      0.889     70.207     71.984
              Constant Volume Heat Capacity (cal/mol-K):          2.981      2.981     28.008     33.969
          (c) Constant Volume Heat Capacity (cal/mol-K):          2.981      2.981     25.728     31.690

 Contributions from frequencies below 20 1/cm
 Frequency (1/cm):                                   13.939    13.058
 Entropy (cal/mol-K):                                 7.351     7.481
 Nuclear Internal Energy (kcal/mol):                  0.593     0.593
 Constant Volume Heat Capacity (cal/mol-K):           1.986     1.987

       Summary of energy terms
                                                   hartree              eV         kcal/mol           kJ/mol
                                      --------------------     -----------       ----------      -----------
      Energy from Engine:               -3.161675071029176        -86.0336         -1983.98         -8300.98
      Nuclear Internal Energy:           0.114714316224207          3.1215            71.98           301.18
  (c) Nuclear Internal Energy:           0.113530181583450          3.0893            71.24           298.07
      Internal Energy U:                -3.046960754804969        -82.9120         -1912.00         -7999.79
      pV/n = RT:                         0.000944186013486          0.0257             0.59             2.48
      Enthalpy H:                       -3.046016568791483        -82.8863         -1911.40         -7997.32
      -T*S:                             -0.049697060236087         -1.3523           -31.19          -130.48
  (c) -T*S:                             -0.052220716599990         -1.4210           -32.77          -137.11
      Gibbs free energy:                -3.095713629027570        -84.2387         -1942.59         -8127.79
 
 
 
  (c) The properties marked with this symbol have been corrected using 'low vibrational frequency free rotor
      interpolation corrections'. For those terms all positive frequencies are used (also ones below 20 1/cm),
      but the contribution to the partition function of small vibrational frequencies is modified as described
      in the following paper:
      S. Grimme, 'Supramolecular Binding Thermodynamics by Dispersion-Corrected Density Functional Theory'
      (Chem. Eur. J. 2012, 18, 9955-9964)
      Configuration: Dampener Frequency          :   100.000 1/cm
                     Dampener Alpha              :     4.000
                     Averaging Moment of Inertia : 1.000E-44 kg m2

--------------
Atomic charges
--------------
  Index   Atom    Charge
      1      H   -0.2198
      2      C    0.4839
      3      C    0.1828
      4      C    0.6490
      5      O   -0.5340
      6      H   -0.1607
      7      H   -0.1655
      8      H   -0.1726
      9      H   -0.1223
     10      C    0.5276
     11      H   -0.2069
     12      H   -0.2597
     13      B    1.5175
     14      F   -0.5115
     15      F   -0.5049
     16      F   -0.5032


Dipole moment vector    (Debye):    -2.09648201   -2.61995172    1.12674281
              magnitude (Debye):     3.53962332


ERROR: Transition state search failed. (Converged, but did not find a transition state.)


AMS application finished. Exiting.
NORMAL TERMINATION
     Total cpu time:   40253.35
  Total system time:     374.05
 Total elapsed time:   80760.55
