
 *******************************************************************************
 *                                                                             *
 *  --------------------------------                                           *
 *   Amsterdam Modeling Suite (AMS)              2021.102                      *
 *  --------------------------------                                           *
 *                                               r95042 2021-06-07             *
 *                                                                             *
 *                                                                             *
 *                              =================                              *
 *                              |               |                              *
 *                              |     A M S     |                              *
 *                              |               |                              *
 *                              =================                              *
 *                                                                             *
 *                                                                             *
 *   Online information and documentation:  https://www.scm.com/support/       *
 *   E-mail:  support@scm.com   info@scm.com                                   *
 *                                                                             *
 *   Scientific publications using AMS results must be properly referenced     *
 *   See the User Manuals (or the web site) for recommended citations          *
 *   The terms and conditions of the End User License Agreement apply to       *
 *   the use of AMS, https://www.scm.com/license-terms/                        *
 *                                                                             *
 **********************  x86_64_linux_intel / intelmpi  ************************
 
 Licensed to: VU/FEW (+ SARA) / ALGEMEEN / Amsterdam / THE NETHERLANDS
 SCM User ID: u7668
  
 AMS 2021.102  RunTime: Jan20-2022 02:55:17  ShM Nodes: 1  Procs: 1

 AMS jobname: 7.no_catalyst_H_F.TS
 AMS jobid  : 32960851

 Start   directory: /scistor/tc/yhk800/MasterProject/calculations/no_catalyst_H_F/7.no_catalyst_H_F.TS/
 Results directory: /scistor/tc/yhk800/MasterProject/calculations/no_catalyst_H_F/7.no_catalyst_H_F.TS/
 Scratch directory: /scratch/3467/amstmp_7.no_catalyst_H_F.TS_kid0.32960851/

 RNG seed: 1065588617 293847997 1708405980 -1117231472 -318593186 -1454254419 -1402006183 1233860919



                      ************************************************************************
                      *  ADF 2021.102  RunTime: Jan20-2022 02:55:17  ShM Nodes: 1  Procs: 1  *
                      ************************************************************************
  
       *****************************
       *  TRANSITION STATE SEARCH  *
       *****************************

Optimization Method                    Quasi Newton
Optimization Coordinates               Delocalized Coordinates
Optimize lattice                       F
 
 ------------------------------------------------------
 Convergence criteria (Hartree,Angstrom)
 ------------------------------------------------------
 Maximum gradient               0.001000000000
 Maximum rms gradient           0.000666666667
 Maximum step allowed           0.010000000000
 Maximum rms step allowed       0.006666666667
 Maximum energy change allowe   0.000120000000
 Maximum stress energy allowe   0.000500000000
 
Initial model Hessian                  Automatic Hessian
 
------------------------------------
Quasi-Newton Optimizer Parameters
------------------------------------
Hessian Update Method                  Bofill
Maximum number of steps                  250
First GDIIS cycle                          0
Maximum GDIIS vectors                      0
Trust radius (bohr)                        0.200000
Trust radius varies                        F
Constraints converged at all steps         T
Use projector                              T
 
 Rigid motions settings for: old optimizer
 Atomic rotations (x,y,z):     T T T
 Atomic translations (x,y,z):  T T T
 Tolerance:                   1.000000000000000E-006
 
           1  TSRC entries:
    i   type      a1    a2    a3    a4    coef
    1 Distance     1     2               -1.000
 
--------
Geometry
--------
Formula: C4H6FO
Atoms
  Index Symbol   x (angstrom)   y (angstrom)   z (angstrom)
      1      C     0.81668000    -0.23471900     0.88197500
      2      C     0.81678400    -0.23413100    -0.47719300
      3      C    -1.53160000    -0.46998000    -1.30857600
      4      H     0.85636200    -1.16386700     1.44859300
      5      C     0.73893400     1.00063500     1.66014300
      6      H    -1.75224300    -1.42324600    -0.84366900
      7      H     0.86540100     0.70149500    -1.02879400
      8      H    -1.29572100    -0.45322200    -2.36675600
      9      H    -1.93437200     0.42729600    -0.85485600
     10      O     0.73088900     1.05622100     2.88164900
     11      F     1.05157196    -1.41471295    -1.21149598
     12      H     0.69350848     1.89581258     1.07576845
 
Total System Charge             0.00000
 
 
----------------
ADF Engine Input
----------------
 
 NumericalQuality VeryGood
 SCF
 Converge 1.0e-6
 Iterations 99
 End
 SYMMETRY NOSYM
 SpinPolarization 1.0
 Unrestricted Yes
 XC
 GGA OLYP
 End
 basis
 core None
 type TZ2P
 End
 

 Title: *** (NO TITLE) ***

 Using automatic Hessian for delocalized coordinates.
 *** GOStep1 ***

 Energy gradients wrt nuclear displacements
 ==========================================

     Atom      Cartesian (a.u./angstrom)
                 X         Y         Z
 ----------------------------------------
     1 C    -0.001486  0.019358  0.006405
     2 C    -0.010149  0.044878 -0.003165
     3 C     0.013236 -0.005252  0.002168
     4 H    -0.000718  0.000636  0.003725
     5 C    -0.001259  0.037647 -0.015180
     6 H    -0.002000  0.000048 -0.000524
     7 H    -0.002203  0.012334  0.017772
     8 H    -0.001140  0.000323 -0.000938
     9 H     0.001787 -0.000448  0.000027
    10 O    -0.000082  0.004174 -0.001130
    11 F     0.001860 -0.066739 -0.036641
    12 H     0.002154 -0.046959  0.027482
 ----------------------------------------
 Mulliken charges used for AMS results%charges...
           Primitive Internal Coordinates (atoms in internal order)
-------------------------------------------------------------------------------
    index    type      i       j       k       l   value(A,deg)     TSRC Vect
-------------------------------------------------------------------------------
       1     bnd       1       5       0       0     1.46208392    -0.00000000
       2     bnd       1       2       0       0     1.35916813    -0.56672640
       3     bnd       3       9       0       0     1.08313958     0.00000000
       4     bnd       1       4       0       0     1.08901177    -0.00000000
       5     bnd       3       6       0       0     1.08329955     0.00000000
       6     bnd       2       7       0       0     1.08720894    -0.00000000
       7     bnd       3       8       0       0     1.08428070     0.00000000
       8     bnd       5      10       0       0     1.22279656     0.00000000
       9     bnd       2      11       0       0     1.41000000     0.00164704
      10     bnd       5      12       0       0     1.07000000     0.00000000
      11     bnd       2       3       0       0     2.50234487     0.10315886
      12     bnd       3      11       0       0     2.75222133     0.00351382
      13     bnd       1       3       0       0     3.21998143    -0.14314763
      14     ang       5       1       2       0   122.13193049    -0.01144595
      15     ang       5       1       4       0   116.48149708     0.00538528
      16     ang       5       1       3       0   112.64562536    -0.00881245
      17     ang       2       1       4       0   121.37727346     0.00617336
      18     ang       2       1       3       0    47.13980479     0.01908868
      19     ang       4       1       3       0   108.55407601    -0.00546108
      20     ang       1       2       7       0   120.51279539    -0.00793462
      21     ang       1       2      11       0   121.36128198     0.00764336
      22     ang       1       2       3       0   109.39804563     0.07845908
      23     ang       7       2      11       0   116.67222795    -0.00621981
      24     ang       7       2       3       0    87.39281970    -0.02001955
      25     ang      11       2       3       0    84.51010433    -0.03563093
      26     ang       9       3       6       0   118.25885447     0.00319855
      27     ang       9       3       8       0   118.48323850    -0.00066097
      28     ang       9       3       2       0    97.56929804    -0.01771313
      29     ang       9       3      11       0   128.21390110    -0.01981675
      30     ang       9       3       1       0    85.73843521     0.03206282
      31     ang       6       3       8       0   118.47247906    -0.00202416
      32     ang       6       3       2       0    97.55621160    -0.01542363
      33     ang       6       3      11       0    82.75975470    -0.00981694
      34     ang       6       3       1       0    85.46171991     0.03464122
      35     ang       8       3       2       0    96.81291220     0.03190387
      36     ang       8       3      11       0    80.53456734     0.02758839
      37     ang       8       3       1       0   120.27444570    -0.06564524
      38     ang      11       3       1       0    46.88964471    -0.07928009
      39     ang       1       5      10       0   124.78014579    -0.00000000
      40     ang       1       5      12       0   114.73739870     0.00000000
      41     ang      10       5      12       0   120.48134627     0.00000000
      42     ang       2      11       3       0    64.82849652     0.03769522
      43     dih       2       1       5      10   179.74813341     0.00820409
      44     dih       2       1       5      12    -0.63506965     0.00820409
      45     dih       4       1       5      10     0.84367616     0.00148680
      46     dih       4       1       5      12   180.46047311     0.00148680
      47     dih       3       1       5      10   127.21624574    -0.00969090
      48     dih       3       1       5      12   -53.16695732    -0.00969090
      49     dih       5       1       2       7     6.57009342     0.01399192
      50     dih       5       1       2      11   172.35502844    -0.01819451
      51     dih       5       1       2       3   267.85385074    -0.00858177
      52     dih       4       1       2       7   185.42152053     0.02101275
      53     dih       4       1       2      11    -8.79354445    -0.01117368
      54     dih       4       1       2       3    86.70527785    -0.00156093
      55     dih       3       1       2       7    98.71624268     0.02257369
      56     dih       3       1       2      11   264.50117770    -0.00961275
      57     dih       1       2      11       3   109.40048400     0.07135197
      58     dih       7       2      11       3   -84.29422319     0.04001261
      59     dih       1       2       3       9    60.36685908    -0.00126551
      60     dih       1       2       3       6   -59.59533627     0.00303936
      61     dih       1       2       3       8   180.39271465     0.00134770
      62     dih       1       2       3      11   238.63730923    -0.00354272
      63     dih       7       2       3       9   -61.15415106     0.00220262
      64     dih       7       2       3       6   178.88365359     0.00650750
      65     dih       7       2       3       8    58.87170451     0.00481583
      66     dih       7       2       3      11   117.11629909    -0.00007458
      67     dih       7       2       3       1   238.47898986     0.00346813
      68     dih      11       2       3       9   181.72954985     0.00227721
      69     dih      11       2       3       6    61.76735450     0.00658208
      70     dih      11       2       3       8   -58.24459458     0.00489042
      71     dih      11       2       3       1   121.36269077     0.00354272
      72     dih       9       3      11       2     2.18228113     0.00236897
      73     dih       6       3      11       2   241.69106591     0.01267482
      74     dih       8       3      11       2   121.13490928     0.01893510
      75     dih       1       3      11       2   -27.75476779     0.08035233
      76     dih       5       1       3       9    -6.70885435    -0.00862771
      77     dih       5       1       3       6   234.46351100    -0.00318292
      78     dih       5       1       3       8   113.97123608    -0.00611400
      79     dih       5       1       3       2   113.51971531    -0.00733148
      80     dih       5       1       3      11   150.13784247     0.04363015
      81     dih       2       1       3       9   239.77143035    -0.00129623
      82     dih       2       1       3       6   120.94379569     0.00414856
      83     dih       2       1       3       8     0.45152078     0.00121748
      84     dih       2       1       3      11    36.61812716     0.05096163
      85     dih       4       1       3       9   123.80841936    -0.01297691
      86     dih       4       1       3       6     4.98078471    -0.00753212
      87     dih       4       1       3       8   244.48850980    -0.01046320
      88     dih       4       1       3       2   244.03698902    -0.01168069
      89     dih       4       1       3      11   -79.34488382     0.03928095
Hessian eigenvector     1(    -0.029) has overlap with TSRC:    0.61859E+00
Hessian eigenvector     1 has the largest overlap with TSRC:  0.61859
           Primitive Internal Coordinates (atoms in internal order)
-------------------------------------------------------------------------------
    index    type      i       j       k       l   value(A,deg)     Max Ovl Vect
-------------------------------------------------------------------------------
       1     bnd       1       5       0       0     1.46208392     0.00000000
       2     bnd       1       2       0       0     1.35916813    -0.87481936
       3     bnd       3       9       0       0     1.08313958    -0.00000000
       4     bnd       1       4       0       0     1.08901177     0.00000000
       5     bnd       3       6       0       0     1.08329955    -0.00000000
       6     bnd       2       7       0       0     1.08720894     0.00000000
       7     bnd       3       8       0       0     1.08428070     0.00000000
       8     bnd       5      10       0       0     1.22279656    -0.00000000
       9     bnd       2      11       0       0     1.41000000     0.00427359
      10     bnd       5      12       0       0     1.07000000     0.00000000
      11     bnd       2       3       0       0     2.50234487     0.09198237
      12     bnd       3      11       0       0     2.75222133    -0.00837696
      13     bnd       1       3       0       0     3.21998143    -0.15583953
      14     ang       5       1       2       0   122.13193049    -0.00469037
      15     ang       5       1       4       0   116.48149708    -0.00098044
      16     ang       5       1       3       0   112.64562536     0.00598286
      17     ang       2       1       4       0   121.37727346     0.00548639
      18     ang       2       1       3       0    47.13980479    -0.02295632
      19     ang       4       1       3       0   108.55407601     0.00634477
      20     ang       1       2       7       0   120.51279539    -0.01600208
      21     ang       1       2      11       0   121.36128198    -0.00299887
      22     ang       1       2       3       0   109.39804563     0.18847503
      23     ang       7       2      11       0   116.67222795    -0.00911283
      24     ang       7       2       3       0    87.39281970    -0.04304575
      25     ang      11       2       3       0    84.51010433    -0.03703834
      26     ang       9       3       6       0   118.25885447    -0.00184251
      27     ang       9       3       8       0   118.48323850     0.00201943
      28     ang       9       3       2       0    97.56929804    -0.02312844
      29     ang       9       3      11       0   128.21390110    -0.02332063
      30     ang       9       3       1       0    85.73843521     0.06048878
      31     ang       6       3       8       0   118.47247906    -0.00034501
      32     ang       6       3       2       0    97.55621160    -0.02544350
      33     ang       6       3      11       0    82.75975470    -0.01690285
      34     ang       6       3       1       0    85.46171991     0.05790286
      35     ang       8       3       2       0    96.81291220     0.04894709
      36     ang       8       3      11       0    80.53456734     0.04075183
      37     ang       8       3       1       0   120.27444570    -0.11658135
      38     ang      11       3       1       0    46.88964471    -0.13233339
      39     ang       1       5      10       0   124.78014579    -0.00000023
      40     ang       1       5      12       0   114.73739870    -0.00000026
      41     ang      10       5      12       0   120.48134627    -0.00000024
      42     ang       2      11       3       0    64.82849652     0.03724301
      43     dih       2       1       5      10   179.74813341    -0.01069925
      44     dih       2       1       5      12    -0.63506965    -0.01082503
      45     dih       4       1       5      10     0.84367616     0.00009902
      46     dih       4       1       5      12   180.46047311    -0.00002675
      47     dih       3       1       5      10   127.21624574     0.01381463
      48     dih       3       1       5      12   -53.16695732     0.01368886
      49     dih       5       1       2       7     6.57009342     0.06235095
      50     dih       5       1       2      11   172.35502844    -0.07408410
      51     dih       5       1       2       3   267.85385074     0.00048347
      52     dih       4       1       2       7   185.42152053     0.05095297
      53     dih       4       1       2      11    -8.79354445    -0.08548207
      54     dih       4       1       2       3    86.70527785    -0.01091451
      55     dih       3       1       2       7    98.71624268     0.06186748
      56     dih       3       1       2      11   264.50117770    -0.07456756
      57     dih       1       2      11       3   109.40048400     0.19872500
      58     dih       7       2      11       3   -84.29422319     0.06630093
      59     dih       1       2       3       9    60.36685908    -0.00334486
      60     dih       1       2       3       6   -59.59533627     0.00972263
      61     dih       1       2       3       8   180.39271465     0.00466238
      62     dih       1       2       3      11   238.63730923    -0.00293836
      63     dih       7       2       3       9   -61.15415106    -0.00023735
      64     dih       7       2       3       6   178.88365359     0.01283014
      65     dih       7       2       3       8    58.87170451     0.00776990
      66     dih       7       2       3      11   117.11629909     0.00016915
      67     dih       7       2       3       1   238.47898986     0.00310751
      68     dih      11       2       3       9   181.72954985    -0.00040650
      69     dih      11       2       3       6    61.76735450     0.01266099
      70     dih      11       2       3       8   -58.24459458     0.00760074
      71     dih      11       2       3       1   121.36269077     0.00293836
      72     dih       9       3      11       2     2.18228113    -0.00109554
      73     dih       6       3      11       2   241.69106591     0.02287318
      74     dih       8       3      11       2   121.13490928     0.02871604
      75     dih       1       3      11       2   -27.75476779     0.13643420
      76     dih       5       1       3       9    -6.70885435    -0.01827188
      77     dih       5       1       3       6   234.46351100    -0.00099268
      78     dih       5       1       3       8   113.97123608    -0.00776727
      79     dih       5       1       3       2   113.51971531    -0.01254543
      80     dih       5       1       3      11   150.13784247     0.07792947
      81     dih       2       1       3       9   239.77143035    -0.00572645
      82     dih       2       1       3       6   120.94379569     0.01155275
      83     dih       2       1       3       8     0.45152078     0.00477816
      84     dih       2       1       3      11    36.61812716     0.09047490
      85     dih       4       1       3       9   123.80841936    -0.00951475
      86     dih       4       1       3       6     4.98078471     0.00776445
      87     dih       4       1       3       8   244.48850980     0.00098986
      88     dih       4       1       3       2   244.03698902    -0.00378830
      89     dih       4       1       3      11   -79.34488382     0.08668660
 
----------------------------------------------------------------------
Geometry Convergence after Step   1       (Hartree/Angstrom,Angstrom)
----------------------------------------------------------------------
current energy                               -2.32899209 Hartree
energy change                      -2.32899209     0.00012000    F
constrained gradient max            0.06673731     0.00100000    F
constrained gradient rms            0.01949590     0.00066667    F
gradient max                        0.06673731
gradient rms                        0.01949590
cart. step max                      0.07297291     0.01000000    F
cart. step rms                      0.01997932     0.00666667    F
 
 
--------
Geometry
--------
Formula: C4H6FO
Atoms
  Index Symbol   x (angstrom)   y (angstrom)   z (angstrom)
      1      C     0.81259339    -0.24154631     0.91234065
      2      C     0.83205113    -0.23809971    -0.52280325
      3      C    -1.53244410    -0.46657643    -1.29819382
      4      H     0.84633953    -1.17084345     1.47829731
      5      C     0.72924755     1.00115984     1.67727574
      6      H    -1.74125348    -1.42151281    -0.83135351
      7      H     0.88580744     0.68001884    -1.10176691
      8      H    -1.30745681    -0.44819456    -2.35851282
      9      H    -1.93329702     0.42900430    -0.83873337
     10      O     0.70257967     1.05627648     2.89877725
     11      F     1.06193123    -1.40194270    -1.24131297
     12      H     0.70009591     1.90983813     1.08277416
 
Total System Charge             0.00000
 
 *** GOStep2 ***

 Energy gradients wrt nuclear displacements
 ==========================================

     Atom      Cartesian (a.u./angstrom)
                 X         Y         Z
 ----------------------------------------
     1 C    -0.005321  0.003280  0.105083
     2 C     0.005361  0.042000 -0.099588
     3 C     0.007371 -0.006965 -0.000761
     4 H    -0.000238  0.001529  0.006673
     5 C    -0.000913  0.029017  0.000641
     6 H    -0.001714 -0.000066 -0.000586
     7 H    -0.003342  0.007170  0.007529
     8 H    -0.000778  0.000217 -0.000447
     9 H     0.002118  0.000249  0.000467
    10 O     0.000105  0.002032 -0.004658
    11 F    -0.003712 -0.049879 -0.031305
    12 H     0.001062 -0.028584  0.016953
 ----------------------------------------
 Mulliken charges used for AMS results%charges...
Hessian eigenvector     1(    -0.005) has overlap with TSRC:    0.25912E-01
Hessian eigenvector     1 has the largest overlap with TSRC:  0.02591
           Primitive Internal Coordinates (atoms in internal order)
-------------------------------------------------------------------------------
    index    type      i       j       k       l   value(A,deg)     Max Ovl Vect
-------------------------------------------------------------------------------
       1     bnd       1       5       0       0     1.46163977    -0.00571852
       2     bnd       1       2       0       0     1.43527993    -0.03707573
       3     bnd       3       9       0       0     1.08344442     0.00017801
       4     bnd       1       4       0       0     1.08859493    -0.00140105
       5     bnd       3       6       0       0     1.08325653    -0.00008484
       6     bnd       2       7       0       0     1.08675220    -0.00119957
       7     bnd       3       8       0       0     1.08408190    -0.00013545
       8     bnd       5      10       0       0     1.22303514     0.00255742
       9     bnd       2      11       0       0     1.38695047    -0.03831255
      10     bnd       5      12       0       0     1.08626800     0.01865111
      11     bnd       2       3       0       0     2.49885370     0.02512160
      12     bnd       3      11       0       0     2.75842869     0.02348158
      13     bnd       1       3       0       0     3.23052658    -0.04428658
      14     ang       5       1       2       0   121.46799134    -0.04500245
      15     ang       5       1       4       0   117.09607349     0.03037380
      16     ang       5       1       3       0   112.08208548     0.01772419
      17     ang       2       1       4       0   121.43137034     0.01584923
      18     ang       2       1       3       0    47.60860519     0.02205547
      19     ang       4       1       3       0   108.58947152    -0.00253139
      20     ang       1       2       7       0   122.37073927     0.07603911
      21     ang       1       2      11       0   121.21378755     0.00605423
      22     ang       1       2       3       0   107.29080807    -0.02236759
      23     ang       7       2      11       0   115.13415835    -0.09669524
      24     ang       7       2       3       0    87.63529179     0.05368849
      25     ang      11       2       3       0    85.37455864     0.00753374
      26     ang       9       3       6       0   118.33401110     0.00284487
      27     ang       9       3       8       0   118.52530196     0.00629617
      28     ang       9       3       2       0    98.21678494     0.02798021
      29     ang       9       3      11       0   128.28168629     0.02025079
      30     ang       9       3       1       0    85.45802333    -0.03011786
      31     ang       6       3       8       0   118.45485043    -0.00441648
      32     ang       6       3       2       0    97.42751785    -0.01356345
      33     ang       6       3      11       0    82.73170849    -0.08007647
      34     ang       6       3       1       0    84.63156972     0.04503044
      35     ang       8       3       2       0    96.05990201    -0.02538974
      36     ang       8       3      11       0    80.25428830     0.04810565
      37     ang       8       3       1       0   121.16023505    -0.02458641
      38     ang      11       3       1       0    47.68413210    -0.00765977
      39     ang       1       5      10       0   124.21104057    -0.00980385
      40     ang       1       5      12       0   115.23474277     0.00894578
      41     ang      10       5      12       0   120.55191154     0.00056606
      42     ang       2      11       3       0    64.54820387     0.00323803
      43     dih       2       1       5      10   179.62097108    -0.04601754
      44     dih       2       1       5      12    -0.93046992    -0.09644783
      45     dih       4       1       5      10     0.38765573    -0.11813463
      46     dih       4       1       5      12   179.83621472    -0.16856492
      47     dih       3       1       5      10   126.82922054    -0.07844753
      48     dih       3       1       5      12   -53.72222046    -0.12887782
      49     dih       5       1       2       7     6.22197568     0.00598947
      50     dih       5       1       2      11   172.66108127    -0.07759356
      51     dih       5       1       2       3   267.81732057    -0.08019658
      52     dih       4       1       2       7   185.42206252     0.08170791
      53     dih       4       1       2      11    -8.13883188    -0.00187512
      54     dih       4       1       2       3    87.01740741    -0.00447814
      55     dih       3       1       2       7    98.40465511     0.08618605
      56     dih       3       1       2      11   264.84376071     0.00260303
      57     dih       1       2      11       3   107.43606905    -0.02102004
      58     dih       7       2      11       3   -85.19976439    -0.07866518
      59     dih       1       2       3       9    60.20703986    -0.16337568
      60     dih       1       2       3       6   -59.95294213    -0.16962898
      61     dih       1       2       3       8   180.24284621    -0.15652189
      62     dih       1       2       3      11   238.71136572    -0.00683073
      63     dih       7       2       3       9   -63.04747528    -0.26197483
      64     dih       7       2       3       6   176.79254272    -0.26822813
      65     dih       7       2       3       8    56.98833106    -0.25512104
      66     dih       7       2       3      11   115.45685057    -0.10542988
      67     dih       7       2       3       1   236.74548486    -0.09859915
      68     dih      11       2       3       9   181.49567414    -0.15654495
      69     dih      11       2       3       6    61.33569215    -0.16279825
      70     dih      11       2       3       8   -58.46851951    -0.14969116
      71     dih      11       2       3       1   121.28863428     0.00683073
      72     dih       9       3      11       2     1.88594595    -0.19709222
      73     dih       6       3      11       2   241.29816208    -0.14005265
      74     dih       8       3      11       2   120.68330816    -0.14512275
      75     dih       1       3      11       2   -29.35699898    -0.00196085
      76     dih       5       1       3       9    -7.39495266    -0.23705382
      77     dih       5       1       3       6   233.54876462    -0.23809764
      78     dih       5       1       3       8   113.38787891    -0.25507849
      79     dih       5       1       3       2   113.10567393    -0.07502849
      80     dih       5       1       3      11   148.49919309    -0.08629661
      81     dih       2       1       3       9   239.49937341    -0.16202533
      82     dih       2       1       3       6   120.44309068    -0.16306915
      83     dih       2       1       3       8     0.28220498    -0.18005000
      84     dih       2       1       3      11    35.39351916    -0.01126812
      85     dih       4       1       3       9   123.52811149    -0.18414996
      86     dih       4       1       3       6     4.47182877    -0.18519378
      87     dih       4       1       3       8   244.31094306    -0.20217462
      88     dih       4       1       3       2   244.02873808    -0.02212463
      89     dih       4       1       3      11   -80.57774276    -0.03339275
 
----------------------------------------------------------------------
Geometry Convergence after Step   2       (Hartree/Angstrom,Angstrom)
----------------------------------------------------------------------
current energy                               -2.32624526 Hartree
energy change                       0.00274683     0.00012000    F
constrained gradient max            0.10507492     0.00100000    F
constrained gradient rms            0.02814975     0.00066667    F
gradient max                        0.10507492
gradient rms                        0.02814975
cart. step max                      0.03373153     0.01000000    F
cart. step rms                      0.01305643     0.00666667    F
 
 
--------
Geometry
--------
Formula: C4H6FO
Atoms
  Index Symbol   x (angstrom)   y (angstrom)   z (angstrom)
      1      C     0.81710923    -0.24414935     0.90173195
      2      C     0.82806686    -0.23312974    -0.50857735
      3      C    -1.53369179    -0.46350530    -1.29899989
      4      H     0.86619985    -1.17692416     1.46068782
      5      C     0.72466626     0.99405112     1.67319823
      6      H    -1.75189476    -1.40132184    -0.80270111
      7      H     0.88287224     0.68299968    -1.09043248
      8      H    -1.30598800    -0.48192609    -2.35868127
      9      H    -1.92678808     0.45042564    -0.86976167
     10      O     0.70408824     1.03977557     2.89514694
     11      F     1.06490227    -1.38900555    -1.22804409
     12      H     0.68665211     1.91029166     1.08322140
 
Total System Charge             0.00000
 
 *** GOStep3 ***

 Energy gradients wrt nuclear displacements
 ==========================================

     Atom      Cartesian (a.u./angstrom)
                 X         Y         Z
 ----------------------------------------
     1 C    -0.003337  0.001980  0.080067
     2 C    -0.001110  0.037679 -0.075073
     3 C     0.009484 -0.006224  0.000309
     4 H     0.000306  0.000831  0.005356
     5 C    -0.001837  0.025671 -0.001298
     6 H    -0.001528 -0.000147 -0.000720
     7 H    -0.001560  0.006182  0.006871
     8 H    -0.000980  0.000017 -0.000443
     9 H     0.001983  0.000345  0.000300
    10 O     0.000342  0.000943 -0.003214
    11 F    -0.003272 -0.043023 -0.026490
    12 H     0.001509 -0.024253  0.014335
 ----------------------------------------
 Mulliken charges used for AMS results%charges...
Hessian eigenvector     1(    -0.001) has overlap with TSRC:    0.37056E-02
Hessian eigenvector     1 has the largest overlap with TSRC:  0.00371
           Primitive Internal Coordinates (atoms in internal order)
-------------------------------------------------------------------------------
    index    type      i       j       k       l   value(A,deg)     Max Ovl Vect
-------------------------------------------------------------------------------
       1     bnd       1       5       0       0     1.46179558     0.00310894
       2     bnd       1       2       0       0     1.41039492    -0.00534155
       3     bnd       3       9       0       0     1.08353122     0.00006227
       4     bnd       1       4       0       0     1.08853589    -0.00056519
       5     bnd       3       6       0       0     1.08324737     0.00004293
       6     bnd       2       7       0       0     1.08667021     0.00071764
       7     bnd       3       8       0       0     1.08402628    -0.00002171
       8     bnd       5      10       0       0     1.22297704    -0.00300391
       9     bnd       2      11       0       0     1.38194510    -0.00040395
      10     bnd       5      12       0       0     1.09041940     0.00286689
      11     bnd       2       3       0       0     2.50114866     0.00035670
      12     bnd       3      11       0       0     2.75939786    -0.00184092
      13     bnd       1       3       0       0     3.22763120     0.02703361
      14     ang       5       1       2       0   121.43921747     0.03580416
      15     ang       5       1       4       0   117.23817160    -0.02277882
      16     ang       5       1       3       0   111.79892319    -0.03624768
      17     ang       2       1       4       0   121.31929761    -0.01450431
      18     ang       2       1       3       0    47.49844610    -0.01082116
      19     ang       4       1       3       0   108.94922875    -0.00371039
      20     ang       1       2       7       0   122.84676075    -0.04989937
      21     ang       1       2      11       0   121.02310967     0.00155255
      22     ang       1       2       3       0   107.93565706     0.01611489
      23     ang       7       2      11       0   114.69192954     0.06883898
      24     ang       7       2       3       0    87.48171967    -0.08544702
      25     ang      11       2       3       0    85.42633159    -0.00081939
      26     ang       9       3       6       0   118.40215620    -0.00373173
      27     ang       9       3       8       0   118.54114986    -0.00417939
      28     ang       9       3       2       0    98.02994241    -0.01761139
      29     ang       9       3      11       0   127.90574568    -0.02064221
      30     ang       9       3       1       0    86.37652906     0.04016161
      31     ang       6       3       8       0   118.38992285     0.00681965
      32     ang       6       3       2       0    97.19006334     0.00165737
      33     ang       6       3      11       0    83.54308015     0.07666722
      34     ang       6       3       1       0    83.86671428    -0.05190818
      35     ang       8       3       2       0    96.43894583     0.01850559
      36     ang       8       3      11       0    79.72484524    -0.05153130
      37     ang       8       3       1       0   120.97697556     0.01273178
      38     ang      11       3       1       0    47.10701325    -0.00346959
      39     ang       1       5      10       0   124.05869149     0.01387730
      40     ang       1       5      12       0   115.36604348    -0.00945406
      41     ang      10       5      12       0   120.57047336    -0.00363994
      42     ang       2      11       3       0    64.62531019     0.00074611
      43     dih       2       1       5      10   179.59137389     0.01683776
      44     dih       2       1       5      12    -1.20331681     0.15211461
      45     dih       4       1       5      10     0.24526572     0.10414858
      46     dih       4       1       5      12   179.45057503     0.23942542
      47     dih       3       1       5      10   127.06082277     0.04513440
      48     dih       3       1       5      12   -53.73386793     0.18041125
      49     dih       5       1       2       7     7.13185631    -0.02531484
      50     dih       5       1       2      11   172.71470874     0.08272474
      51     dih       5       1       2       3   268.27306973     0.09276099
      52     dih       4       1       2       7   186.45130508    -0.11690324
      53     dih       4       1       2      11    -7.96584249    -0.00886366
      54     dih       4       1       2       3    87.59251850     0.00117259
      55     dih       3       1       2       7    98.85878658    -0.11807583
      56     dih       3       1       2      11   264.44163900    -0.01003625
      57     dih       1       2      11       3   108.20321894     0.01863260
      58     dih       7       2      11       3   -85.10704015     0.10696707
      59     dih       1       2       3       9    62.47477905     0.15701331
      60     dih       1       2       3       6   -57.65573815     0.16453890
      61     dih       1       2       3       8   182.57439859     0.15303796
      62     dih       1       2       3      11   238.83215413    -0.00300842
      63     dih       7       2       3       9   -61.33343256     0.24082352
      64     dih       7       2       3       6   178.53605024     0.24834910
      65     dih       7       2       3       8    58.76618699     0.23684816
      66     dih       7       2       3      11   115.02394253     0.08080178
      67     dih       7       2       3       1   236.19178840     0.08381020
      68     dih      11       2       3       9   183.64262492     0.16002174
      69     dih      11       2       3       6    63.51210771     0.16754732
      70     dih      11       2       3       8   -56.25775554     0.15604638
      71     dih      11       2       3       1   121.16784587     0.00300842
      72     dih       9       3      11       2     4.57314020     0.20141563
      73     dih       6       3      11       2   243.33673213     0.14852276
      74     dih       8       3      11       2   122.88446183     0.14932752
      75     dih       1       3      11       2   -29.04877097     0.00567407
      76     dih       5       1       3       9    -5.07869462     0.23059360
      77     dih       5       1       3       6   235.83289041     0.23297081
      78     dih       5       1       3       8   116.27850314     0.25442495
      79     dih       5       1       3       2   113.29444451     0.07842865
      80     dih       5       1       3      11   148.95995260     0.07957155
      81     dih       2       1       3       9   241.62686087     0.15216496
      82     dih       2       1       3       6   122.53844590     0.15454217
      83     dih       2       1       3       8     2.98405863     0.17599630
      84     dih       2       1       3      11    35.66550809     0.00114290
      85     dih       4       1       3       9   126.10696638     0.16791187
      86     dih       4       1       3       6     7.01855141     0.17028908
      87     dih       4       1       3       8   247.46416414     0.19174322
      88     dih       4       1       3       2   244.48010551     0.01574692
      89     dih       4       1       3      11   -79.85438640     0.01688982
 
----------------------------------------------------------------------
Geometry Convergence after Step   3       (Hartree/Angstrom,Angstrom)
----------------------------------------------------------------------
current energy                               -2.32956115 Hartree
energy change                      -0.00331590     0.00012000    F
constrained gradient max            0.08005872     0.00100000    F
constrained gradient rms            0.02221835     0.00066667    F
gradient max                        0.08005872
gradient rms                        0.02221835
cart. step max                      0.02848721     0.01000000    F
cart. step rms                      0.01359010     0.00666667    F
 
 
--------
Geometry
--------
Formula: C4H6FO
Atoms
  Index Symbol   x (angstrom)   y (angstrom)   z (angstrom)
      1      C     0.81899558    -0.25109547     0.88987250
      2      C     0.82661034    -0.22754813    -0.48890988
      3      C    -1.53862279    -0.45862601    -1.29348647
      4      H     0.88782303    -1.18796494     1.43887437
      5      C     0.72247934     0.98484744     1.66341930
      6      H    -1.75655248    -1.38409618    -0.77445361
      7      H     0.88845141     0.67783154    -1.08629504
      8      H    -1.30643680    -0.50506137    -2.35124935
      9      H    -1.93079796     0.46648692    -0.88766951
     10      O     0.67560103     1.02449112     2.88479471
     11      F     1.07369768    -1.36325539    -1.21155312
     12      H     0.69494606     1.91157211     1.07344457
 
Total System Charge             0.00000
 
 *** GOStep4 ***

 Energy gradients wrt nuclear displacements
 ==========================================

     Atom      Cartesian (a.u./angstrom)
                 X         Y         Z
 ----------------------------------------
     1 C    -0.003745 -0.002465  0.042676
     2 C    -0.009263  0.027418 -0.036650
     3 C     0.011955 -0.004983  0.001633
     4 H     0.001886  0.000280  0.003417
     5 C     0.001975  0.018486 -0.003671
     6 H    -0.001225 -0.000266 -0.000867
     7 H     0.001740  0.002102  0.002303
     8 H    -0.000999 -0.000339 -0.000362
     9 H     0.001615  0.000462  0.000224
    10 O    -0.001087 -0.000470 -0.001418
    11 F    -0.003413 -0.024633 -0.016846
    12 H     0.000561 -0.015593  0.009562
 ----------------------------------------
 Mulliken charges used for AMS results%charges...
Hessian eigenvector     1(    -0.006) has overlap with TSRC:    0.22699E-02
Hessian eigenvector     1 has the largest overlap with TSRC:  0.00227
           Primitive Internal Coordinates (atoms in internal order)
-------------------------------------------------------------------------------
    index    type      i       j       k       l   value(A,deg)     Max Ovl Vect
-------------------------------------------------------------------------------
       1     bnd       1       5       0       0     1.46124772     0.00162304
       2     bnd       1       2       0       0     1.37900446     0.00251431
       3     bnd       3       9       0       0     1.08366171    -0.00009363
       4     bnd       1       4       0       0     1.08805546    -0.00194078
       5     bnd       3       6       0       0     1.08322828     0.00002734
       6     bnd       2       7       0       0     1.08646477     0.00112257
       7     bnd       3       8       0       0     1.08394137    -0.00007677
       8     bnd       5      10       0       0     1.22291745    -0.00355914
       9     bnd       2      11       0       0     1.36861111    -0.01227179
      10     bnd       5      12       0       0     1.09892988     0.01133450
      11     bnd       2       3       0       0     2.50899746     0.01885056
      12     bnd       3      11       0       0     2.76573419     0.02097254
      13     bnd       1       3       0       0     3.22001393     0.02271193
      14     ang       5       1       2       0   121.01155070     0.03502970
      15     ang       5       1       4       0   117.73340116    -0.01558952
      16     ang       5       1       3       0   111.41367686    -0.04200773
      17     ang       2       1       4       0   121.25473884    -0.02050152
      18     ang       2       1       3       0    47.71598705    -0.00047409
      19     ang       4       1       3       0   109.44792245     0.00613327
      20     ang       1       2       7       0   124.35358624    -0.03781892
      21     ang       1       2      11       0   120.98102920     0.00650859
      22     ang       1       2       3       0   108.29120453     0.00197035
      23     ang       7       2      11       0   113.01142774     0.05260284
      24     ang       7       2       3       0    87.36836082    -0.08291383
      25     ang      11       2       3       0    85.66696183     0.00413724
      26     ang       9       3       6       0   118.49729058    -0.00346289
      27     ang       9       3       8       0   118.65500847    -0.00139667
      28     ang       9       3       2       0    98.18951010    -0.00818477
      29     ang       9       3      11       0   127.58656616    -0.01649666
      30     ang       9       3       1       0    87.47981423     0.05091230
      31     ang       6       3       8       0   118.29921790     0.00702037
      32     ang       6       3       2       0    96.58578932    -0.01024398
      33     ang       6       3      11       0    84.05245009     0.07603605
      34     ang       6       3       1       0    82.96201351    -0.06892712
      35     ang       8       3       2       0    96.60050194     0.01343294
      36     ang       8       3      11       0    79.19736006    -0.06245631
      37     ang       8       3       1       0   120.50462075     0.01140983
      38     ang      11       3       1       0    46.32479494    -0.00348255
      39     ang       1       5      10       0   123.96301048     0.02129794
      40     ang       1       5      12       0   115.51362409    -0.01470219
      41     ang      10       5      12       0   120.52326204    -0.00634873
      42     ang       2      11       3       0    64.76668990     0.00074807
      43     dih       2       1       5      10   177.99042938    -0.00943958
      44     dih       2       1       5      12    -2.12633626     0.03318841
      45     dih       4       1       5      10    -2.20942510     0.05333511
      46     dih       4       1       5      12   177.67380927     0.09596309
      47     dih       3       1       5      10   125.39751686     0.00938041
      48     dih       3       1       5      12   -54.71924878     0.05200840
      49     dih       5       1       2       7     7.96602409    -0.02424083
      50     dih       5       1       2      11   172.26695832     0.08539229
      51     dih       5       1       2       3   268.33150673     0.09448654
      52     dih       4       1       2       7   188.17295139    -0.08995997
      53     dih       4       1       2      11    -7.52611439     0.01967315
      54     dih       4       1       2       3    88.53843402     0.02876740
      55     dih       3       1       2       7    99.63451736    -0.11872737
      56     dih       3       1       2      11   263.93545159    -0.00909425
      57     dih       1       2      11       3   108.76136720     0.00558521
      58     dih       7       2      11       3   -85.28453832     0.09917487
      59     dih       1       2       3       9    64.36728466     0.16812284
      60     dih       1       2       3       6   -55.75519670     0.17594037
      61     dih       1       2       3       8   184.65620019     0.16791352
      62     dih       1       2       3      11   238.75790846    -0.00859700
      63     dih       7       2       3       9   -61.06652403     0.24029932
      64     dih       7       2       3       6   178.81099462     0.24811685
      65     dih       7       2       3       8    59.22239150     0.24009000
      66     dih       7       2       3      11   113.32409978     0.06357948
      67     dih       7       2       3       1   234.56619132     0.07217648
      68     dih      11       2       3       9   185.60937620     0.17671983
      69     dih      11       2       3       6    65.48689484     0.18453736
      70     dih      11       2       3       8   -54.10170827     0.17651051
      71     dih      11       2       3       1   121.24209154     0.00859700
      72     dih       9       3      11       2     7.01280176     0.22256510
      73     dih       6       3      11       2   245.33373829     0.16853844
      74     dih       8       3      11       2   124.99447568     0.16627718
      75     dih       1       3      11       2   -28.72942008     0.00285599
      76     dih       5       1       3       9    -3.67367280     0.24216993
      77     dih       5       1       3       6   237.20642995     0.24349913
      78     dih       5       1       3       8   118.41143310     0.27578204
      79     dih       5       1       3       2   113.04109466     0.08268389
      80     dih       5       1       3      11   148.72352590     0.07508861
      81     dih       2       1       3       9   243.28523255     0.15948603
      82     dih       2       1       3       6   124.16533530     0.16081523
      83     dih       2       1       3       8     5.37033844     0.19309815
      84     dih       2       1       3      11    35.68243124    -0.00759529
      85     dih       4       1       3       9   128.28421003     0.19279176
      86     dih       4       1       3       6     9.16431278     0.19412096
      87     dih       4       1       3       8   250.36931593     0.22640388
      88     dih       4       1       3       2   244.99897749     0.03330573
      89     dih       4       1       3      11   -79.31859127     0.02571044
 
----------------------------------------------------------------------
Geometry Convergence after Step   4       (Hartree/Angstrom,Angstrom)
----------------------------------------------------------------------
current energy                               -2.33293986 Hartree
energy change                      -0.00337871     0.00012000    F
constrained gradient max            0.04266845     0.00100000    F
constrained gradient rms            0.01272211     0.00066667    F
gradient max                        0.04266845
gradient rms                        0.01272211
cart. step max                      0.03721261     0.01000000    F
cart. step rms                      0.01451362     0.00666667    F
 
 
--------
Geometry
--------
Formula: C4H6FO
Atoms
  Index Symbol   x (angstrom)   y (angstrom)   z (angstrom)
      1      C     0.81175223    -0.25841938     0.87976114
      2      C     0.82765295    -0.22527507    -0.46248260
      3      C    -1.54524602    -0.45570696    -1.28759591
      4      H     0.88693491    -1.19828844     1.42113664
      5      C     0.69901299     0.97869466     1.64692033
      6      H    -1.74675369    -1.39017298    -0.77819836
      7      H     0.89397819     0.66553793    -1.08061683
      8      H    -1.30193011    -0.48912920    -2.34322985
      9      H    -1.95453049     0.45862219    -0.87404626
     10      O     0.66592291     1.02235258     2.86868784
     11      F     1.08724191    -1.33653385    -1.18559444
     12      H     0.73215867     1.91590017     1.05204676
 
Total System Charge             0.00000
 
 *** GOStep5 ***

 Energy gradients wrt nuclear displacements
 ==========================================

     Atom      Cartesian (a.u./angstrom)
                 X         Y         Z
 ----------------------------------------
     1 C     0.003072 -0.006099 -0.011336
     2 C    -0.015575  0.011503  0.017490
     3 C     0.014773 -0.003412  0.003120
     4 H     0.002546 -0.000195  0.000844
     5 C    -0.014610  0.007477 -0.008045
     6 H    -0.000954 -0.000301 -0.000920
     7 H     0.004993 -0.003449 -0.003402
     8 H    -0.000754 -0.000674 -0.000200
     9 H     0.001018  0.000442  0.000349
    10 O     0.004795 -0.001538  0.001316
    11 F    -0.005632  0.000704 -0.003110
    12 H     0.006328 -0.004460  0.003893
 ----------------------------------------
 Mulliken charges used for AMS results%charges...
Hessian eigenvector     1(    -0.006) has overlap with TSRC:    0.10526E-01
Hessian eigenvector     1 has the largest overlap with TSRC:  0.01053
           Primitive Internal Coordinates (atoms in internal order)
-------------------------------------------------------------------------------
    index    type      i       j       k       l   value(A,deg)     Max Ovl Vect
-------------------------------------------------------------------------------
       1     bnd       1       5       0       0     1.46003236     0.00264430
       2     bnd       1       2       0       0     1.34274705    -0.01543341
       3     bnd       3       9       0       0     1.08375961     0.00008435
       4     bnd       1       4       0       0     1.08724133    -0.00067221
       5     bnd       3       6       0       0     1.08319802     0.00004643
       6     bnd       2       7       0       0     1.08629498     0.00050261
       7     bnd       3       8       0       0     1.08382780    -0.00002296
       8     bnd       5      10       0       0     1.22299502    -0.00272978
       9     bnd       2      11       0       0     1.35098973    -0.00286343
      10     bnd       5      12       0       0     1.11055273     0.00177136
      11     bnd       2       3       0       0     2.52280803     0.00289494
      12     bnd       3      11       0       0     2.77781444    -0.00770330
      13     bnd       1       3       0       0     3.20808350     0.02082092
      14     ang       5       1       2       0   120.34742452     0.02925099
      15     ang       5       1       4       0   118.43572912    -0.01719744
      16     ang       5       1       3       0   110.50927985    -0.02243946
      17     ang       2       1       4       0   121.21611667    -0.01277850
      18     ang       2       1       3       0    48.30839835    -0.00880458
      19     ang       4       1       3       0   109.51445869     0.00899420
      20     ang       1       2       7       0   126.14150827    -0.03684728
      21     ang       1       2      11       0   121.13236530    -0.00165820
      22     ang       1       2       3       0   108.27305918     0.01522443
      23     ang       7       2      11       0   110.99142880     0.05358984
      24     ang       7       2       3       0    86.91733119    -0.06264809
      25     ang      11       2       3       0    86.01701769    -0.00372202
      26     ang       9       3       6       0   118.56250755    -0.00286787
      27     ang       9       3       8       0   118.84617255    -0.00356128
      28     ang       9       3       2       0    98.82106916    -0.02113166
      29     ang       9       3      11       0   127.69104425    -0.02455873
      30     ang       9       3       1       0    88.15376637     0.04523394
      31     ang       6       3       8       0   118.24213714     0.00539463
      32     ang       6       3       2       0    95.73721802     0.00227975
      33     ang       6       3      11       0    83.42379701     0.08529254
      34     ang       6       3       1       0    82.64702988    -0.05841641
      35     ang       8       3       2       0    96.32761214     0.02126358
      36     ang       8       3      11       0    79.23592847    -0.05717270
      37     ang       8       3       1       0   119.66812503     0.01429090
      38     ang      11       3       1       0    45.44641681    -0.00549032
      39     ang       1       5      10       0   123.86575556     0.01291267
      40     ang       1       5      12       0   115.55017657    -0.01027417
      41     ang      10       5      12       0   120.38446072    -0.00320976
      42     ang       2      11       3       0    64.95902959     0.00369312
      43     dih       2       1       5      10   179.29581486     0.09171409
      44     dih       2       1       5      12    -5.83542104    -0.00698160
      45     dih       4       1       5      10    -1.01115942     0.13458607
      46     dih       4       1       5      12   173.85760468     0.03589038
      47     dih       3       1       5      10   126.44425709     0.11140606
      48     dih       3       1       5      12   -58.68697881     0.01271037
      49     dih       5       1       2       7     8.57467408    -0.01938291
      50     dih       5       1       2      11   172.18230278     0.06055542
      51     dih       5       1       2       3   268.72739884     0.06508821
      52     dih       4       1       2       7   188.89031091    -0.06434619
      53     dih       4       1       2      11    -7.50206038     0.01559214
      54     dih       4       1       2       3    89.04303568     0.02012493
      55     dih       3       1       2       7    99.84727524    -0.08447112
      56     dih       3       1       2      11   263.45490395    -0.00453279
      57     dih       1       2      11       3   108.97365545     0.01544566
      58     dih       7       2      11       3   -85.15532941     0.08048961
      59     dih       1       2       3       9    63.87545339     0.17970738
      60     dih       1       2       3       6   -56.24815721     0.18700482
      61     dih       1       2       3       8   184.43511830     0.17622717
      62     dih       1       2       3      11   238.47972533     0.00152909
      63     dih       7       2       3       9   -63.29722708     0.24088230
      64     dih       7       2       3       6   176.57916233     0.24817973
      65     dih       7       2       3       8    57.26243783     0.23740208
      66     dih       7       2       3      11   111.30704486     0.06270400
      67     dih       7       2       3       1   232.82731953     0.06117491
      68     dih      11       2       3       9   185.39572806     0.17817829
      69     dih      11       2       3       6    65.27211746     0.18547573
      70     dih      11       2       3       8   -54.04460703     0.17469808
      71     dih      11       2       3       1   121.52027467    -0.00152909
      72     dih       9       3      11       2     6.74360329     0.22422934
      73     dih       6       3      11       2   245.46952781     0.16420643
      74     dih       8       3      11       2   125.01989332     0.16742709
      75     dih       1       3      11       2   -28.38873019     0.00458861
      76     dih       5       1       3       9    -4.51183961     0.23259240
      77     dih       5       1       3       6   236.37791890     0.23392563
      78     dih       5       1       3       8   117.97970438     0.26078079
      79     dih       5       1       3       2   112.90498249     0.05811815
      80     dih       5       1       3      11   148.38368501     0.06266653
      81     dih       2       1       3       9   242.58317790     0.17447424
      82     dih       2       1       3       6   123.47293641     0.17580748
      83     dih       2       1       3       8     5.07472190     0.20266263
      84     dih       2       1       3      11    35.47870252     0.00454838
      85     dih       4       1       3       9   127.70604802     0.19905761
      86     dih       4       1       3       6     8.59580653     0.20039084
      87     dih       4       1       3       8   250.19759202     0.22724600
      88     dih       4       1       3       2   245.12287012     0.02458336
      89     dih       4       1       3      11   -79.39842736     0.02913175
 
----------------------------------------------------------------------
Geometry Convergence after Step   5       (Hartree/Angstrom,Angstrom)
----------------------------------------------------------------------
current energy                               -2.33403719 Hartree
energy change                      -0.00109733     0.00012000    F
constrained gradient max            0.01748465     0.00100000    F
constrained gradient rms            0.00673639     0.00066667    F
gradient max                        0.01748465
gradient rms                        0.00673639
cart. step max                      0.05421748     0.01000000    F
cart. step rms                      0.01407543     0.00666667    F
 
 
--------
Geometry
--------
Formula: C4H6FO
Atoms
  Index Symbol   x (angstrom)   y (angstrom)   z (angstrom)
      1      C     0.83133820    -0.26186196     0.87605552
      2      C     0.84321810    -0.23489197    -0.47083537
      3      C    -1.54313867    -0.44408110    -1.27421728
      4      H     0.90146020    -1.20161233     1.41772779
      5      C     0.71174159     0.97489145     1.64233326
      6      H    -1.74245545    -1.37676009    -0.76070806
      7      H     0.89997107     0.65467236    -1.09197754
      8      H    -1.30640232    -0.48039509    -2.33123869
      9      H    -1.94596321     0.47220372    -0.85877082
     10      O     0.61170543     1.02079080     2.86016331
     11      F     1.08965604    -1.34694541    -1.19349997
     12      H     0.70506347     1.91157124     1.04175634
 
Total System Charge             0.00000
 
 *** GOStep6 ***

 Energy gradients wrt nuclear displacements
 ==========================================

     Atom      Cartesian (a.u./angstrom)
                 X         Y         Z
 ----------------------------------------
     1 C    -0.002682 -0.004892 -0.003889
     2 C    -0.013973  0.008082  0.008605
     3 C     0.014558 -0.003061  0.002934
     4 H     0.002121  0.000234  0.000502
     5 C     0.005137  0.005013 -0.004062
     6 H    -0.000848 -0.000281 -0.000792
     7 H     0.003912 -0.003323 -0.003688
     8 H    -0.000634 -0.000692 -0.000186
     9 H     0.000921  0.000346  0.000373
    10 O    -0.002612 -0.000793  0.001076
    11 F    -0.005587  0.002086 -0.003215
    12 H    -0.000313 -0.002718  0.002343
 ----------------------------------------
 Mulliken charges used for AMS results%charges...
Hessian eigenvector     1(    -0.006) has overlap with TSRC:    0.12143E-01
Hessian eigenvector     1 has the largest overlap with TSRC:  0.01214
           Primitive Internal Coordinates (atoms in internal order)
-------------------------------------------------------------------------------
    index    type      i       j       k       l   value(A,deg)     Max Ovl Vect
-------------------------------------------------------------------------------
       1     bnd       1       5       0       0     1.45980955     0.00207927
       2     bnd       1       2       0       0     1.34721326    -0.01751854
       3     bnd       3       9       0       0     1.08371641     0.00004501
       4     bnd       1       4       0       0     1.08694834    -0.00078902
       5     bnd       3       6       0       0     1.08319389     0.00002758
       6     bnd       2       7       0       0     1.08644521     0.00065316
       7     bnd       3       8       0       0     1.08381598    -0.00005950
       8     bnd       5      10       0       0     1.22279353    -0.00319802
       9     bnd       2      11       0       0     1.34893982    -0.00593315
      10     bnd       5      12       0       0     1.11270223     0.00428231
      11     bnd       2       3       0       0     2.52663436     0.01285639
      12     bnd       3      11       0       0     2.78447252     0.00471329
      13     bnd       1       3       0       0     3.20858494     0.01647005
      14     ang       5       1       2       0   120.56748377     0.03399525
      15     ang       5       1       4       0   118.43545710    -0.01823444
      16     ang       5       1       3       0   109.83204621    -0.05048017
      17     ang       2       1       4       0   120.99492574    -0.01709052
      18     ang       2       1       3       0    48.52147271    -0.00333121
      19     ang       4       1       3       0   109.42737949     0.00742056
      20     ang       1       2       7       0   126.04602189    -0.03493339
      21     ang       1       2      11       0   121.37969177     0.00438908
      22     ang       1       2       3       0   107.93291027     0.00881327
      23     ang       7       2      11       0   111.04915691     0.05117375
      24     ang       7       2       3       0    86.29268011    -0.08194944
      25     ang      11       2       3       0    86.21286398    -0.00158499
      26     ang       9       3       6       0   118.54719621    -0.00301579
      27     ang       9       3       8       0   118.90747001    -0.00152982
      28     ang       9       3       2       0    99.15897623    -0.01398854
      29     ang       9       3      11       0   127.91558521    -0.01932461
      30     ang       9       3       1       0    88.28953310     0.04801417
      31     ang       6       3       8       0   118.27423101     0.00535398
      32     ang       6       3       2       0    95.41354960    -0.00539890
      33     ang       6       3      11       0    83.16842382     0.07794717
      34     ang       6       3       1       0    82.37837564    -0.06278046
      35     ang       8       3       2       0    96.11802834     0.01752484
      36     ang       8       3      11       0    79.09841271    -0.05921215
      37     ang       8       3       1       0   119.59404957     0.01151261
      38     ang      11       3       1       0    45.51366500    -0.00493303
      39     ang       1       5      10       0   124.14497656     0.01431979
      40     ang       1       5      12       0   115.48977529    -0.01130194
      41     ang      10       5      12       0   120.36228941    -0.00311100
      42     ang       2      11       3       0    64.87990456     0.00353267
      43     dih       2       1       5      10   175.31711788    -0.01291747
      44     dih       2       1       5      12    -4.05710790    -0.02902834
      45     dih       4       1       5      10    -4.15678732     0.06562626
      46     dih       4       1       5      12   176.46898690     0.04951539
      47     dih       3       1       5      10   122.52618059     0.01332002
      48     dih       3       1       5      12   -56.84804519    -0.00279085
      49     dih       5       1       2       7     8.49639372    -0.00393770
      50     dih       5       1       2      11   173.11896527     0.10231498
      51     dih       5       1       2       3   269.78420881     0.10785226
      52     dih       4       1       2       7   187.95670989    -0.08625752
      53     dih       4       1       2      11    -7.42071856     0.01999517
      54     dih       4       1       2       3    89.24452498     0.02553245
      55     dih       3       1       2       7    98.71218491    -0.11178997
      56     dih       3       1       2      11   263.33475646    -0.00553728
      57     dih       1       2      11       3   108.72766449     0.00989318
      58     dih       7       2      11       3   -84.55389920     0.10082041
      59     dih       1       2       3       9    63.53301695     0.16968766
      60     dih       1       2       3       6   -56.56639478     0.17726219
      61     dih       1       2       3       8   184.17858009     0.16900500
      62     dih       1       2       3      11   238.19220089    -0.00501348
      63     dih       7       2       3       9   -63.25167911     0.23728555
      64     dih       7       2       3       6   176.64890916     0.24486008
      65     dih       7       2       3       8    57.39388403     0.23660289
      66     dih       7       2       3      11   111.40750483     0.06258441
      67     dih       7       2       3       1   233.21530394     0.06759789
      68     dih      11       2       3       9   185.34081606     0.17470115
      69     dih      11       2       3       6    65.24140433     0.18227567
      70     dih      11       2       3       8   -54.01362080     0.17401848
      71     dih      11       2       3       1   121.80779911     0.00501348
      72     dih       9       3      11       2     6.68900546     0.21996208
      73     dih       6       3      11       2   245.57376963     0.16464002
      74     dih       8       3      11       2   124.98179435     0.16542843
      75     dih       1       3      11       2   -28.41524911     0.00582461
      76     dih       5       1       3       9    -4.10008194     0.25086962
      77     dih       5       1       3       6   236.79877430     0.25215653
      78     dih       5       1       3       8   118.52952178     0.28251142
      79     dih       5       1       3       2   113.75011314     0.08816173
      80     dih       5       1       3      11   148.90692297     0.08688116
      81     dih       2       1       3       9   242.14980492     0.16270790
      82     dih       2       1       3       6   123.04866117     0.16399481
      83     dih       2       1       3       8     4.77940865     0.19434969
      84     dih       2       1       3      11    35.15680983    -0.00128057
      85     dih       4       1       3       9   127.50179052     0.19224641
      86     dih       4       1       3       6     8.40064677     0.19353332
      87     dih       4       1       3       8   250.13139425     0.22388821
      88     dih       4       1       3       2   245.35198561     0.02953852
      89     dih       4       1       3      11   -79.49120456     0.02825795
 
----------------------------------------------------------------------
Geometry Convergence after Step   6       (Hartree/Angstrom,Angstrom)
----------------------------------------------------------------------
current energy                               -2.33448795 Hartree
energy change                      -0.00045076     0.00012000    F
constrained gradient max            0.01454583     0.00100000    F
constrained gradient rms            0.00469768     0.00066667    F
gradient max                        0.01454583
gradient rms                        0.00469768
cart. step max                      0.05153940     0.01000000    F
cart. step rms                      0.01580688     0.00666667    F
 
 
--------
Geometry
--------
Formula: C4H6FO
Atoms
  Index Symbol   x (angstrom)   y (angstrom)   z (angstrom)
      1      C     0.84437498    -0.26306831     0.87370418
      2      C     0.85984190    -0.24613239    -0.47677903
      3      C    -1.54372429    -0.43522419    -1.26006043
      4      H     0.90555019    -1.20120898     1.41910042
      5      C     0.69992087     0.97515305     1.63187398
      6      H    -1.72663839    -1.38320263    -0.76900267
      7      H     0.90548921     0.64104859    -1.10257866
      8      H    -1.30995387    -0.44115153    -2.31831583
      9      H    -1.95464888     0.46466044    -0.81775278
     10      O     0.56016603     1.02611736     2.84518638
     11      F     1.09485300    -1.36101788    -1.19557339
     12      H     0.72096369     1.91160810     1.02698630
 
Total System Charge             0.00000
 
 *** GOStep7 ***

 Energy gradients wrt nuclear displacements
 ==========================================

     Atom      Cartesian (a.u./angstrom)
                 X         Y         Z
 ----------------------------------------
     1 C    -0.001653 -0.002313  0.003364
     2 C    -0.011567  0.005092  0.001468
     3 C     0.014449 -0.002424  0.002969
     4 H     0.001817  0.000265  0.000142
     5 C     0.002408  0.001921 -0.001795
     6 H    -0.000738 -0.000237 -0.000643
     7 H     0.002768 -0.002943 -0.003729
     8 H    -0.000345 -0.000693 -0.000120
     9 H     0.000667  0.000151  0.000480
    10 O    -0.002196 -0.000491  0.000410
    11 F    -0.006244  0.002518 -0.003652
    12 H     0.000632 -0.000846  0.001105
 ----------------------------------------
 Mulliken charges used for AMS results%charges...
Hessian eigenvector     1(    -0.003) has overlap with TSRC:    0.52458E-02
Hessian eigenvector     1 has the largest overlap with TSRC:  0.00525
           Primitive Internal Coordinates (atoms in internal order)
-------------------------------------------------------------------------------
    index    type      i       j       k       l   value(A,deg)     Max Ovl Vect
-------------------------------------------------------------------------------
       1     bnd       1       5       0       0     1.45906839     0.00015735
       2     bnd       1       2       0       0     1.35067795     0.00743543
       3     bnd       3       9       0       0     1.08364543     0.00006554
       4     bnd       1       4       0       0     1.08687966    -0.00194840
       5     bnd       3       6       0       0     1.08317054     0.00010948
       6     bnd       2       7       0       0     1.08664573     0.00069643
       7     bnd       3       8       0       0     1.08378422    -0.00003911
       8     bnd       5      10       0       0     1.22239754    -0.00241240
       9     bnd       2      11       0       0     1.34716933    -0.01121293
      10     bnd       5      12       0       0     1.11502465     0.00961095
      11     bnd       2       3       0       0     2.53503765    -0.00279990
      12     bnd       3      11       0       0     2.79702389    -0.01202878
      13     bnd       1       3       0       0     3.20711820     0.00982540
      14     ang       5       1       2       0   120.66674892     0.03639741
      15     ang       5       1       4       0   118.51095078    -0.01635295
      16     ang       5       1       3       0   108.51491731    -0.06744140
      17     ang       2       1       4       0   120.79087325    -0.02182310
      18     ang       2       1       3       0    49.00253780    -0.00385670
      19     ang       4       1       3       0   109.23456766     0.00465504
      20     ang       1       2       7       0   125.91154197    -0.02116501
      21     ang       1       2      11       0   121.67517126     0.01338886
      22     ang       1       2       3       0   107.28620384     0.00389657
      23     ang       7       2      11       0   111.16539710     0.02829414
      24     ang       7       2       3       0    85.57151893    -0.08133686
      25     ang      11       2       3       0    86.49191804    -0.00201167
      26     ang       9       3       6       0   118.53515097    -0.00333739
      27     ang       9       3       8       0   119.00511224     0.00134974
      28     ang       9       3       2       0    99.87393743    -0.01238686
      29     ang       9       3      11       0   128.54856524    -0.01699208
      30     ang       9       3       1       0    88.06461211     0.04330829
      31     ang       6       3       8       0   118.31454185     0.00275763
      32     ang       6       3       2       0    94.89414126    -0.00500394
      33     ang       6       3      11       0    81.90411938     0.07739051
      34     ang       6       3       1       0    82.59389278    -0.06172234
      35     ang       8       3       2       0    95.60099251     0.01562018
      36     ang       8       3      11       0    79.46844068    -0.06204973
      37     ang       8       3       1       0   119.29648566     0.01507253
      38     ang      11       3       1       0    45.57180239     0.00218415
      39     ang       1       5      10       0   124.22640570     0.01494358
      40     ang       1       5      12       0   115.40226005    -0.01054012
      41     ang      10       5      12       0   120.37110513    -0.00459582
      42     ang       2      11       3       0    64.77425154     0.00325000
      43     dih       2       1       5      10   173.29817043    -0.09765378
      44     dih       2       1       5      12    -6.52767758    -0.13090631
      45     dih       4       1       5      10    -4.67876929     0.00738563
      46     dih       4       1       5      12   175.49538270    -0.02586690
      47     dih       3       1       5      10   120.58044762    -0.06290308
      48     dih       3       1       5      12   -59.24540039    -0.09615561
      49     dih       5       1       2       7     8.71589941     0.02749761
      50     dih       5       1       2      11   174.80244885     0.13003180
      51     dih       5       1       2       3   271.50498982     0.13557387
      52     dih       4       1       2       7   186.64646191    -0.08252410
      53     dih       4       1       2      11    -7.26698865     0.02001009
      54     dih       4       1       2       3    89.43555233     0.02555216
      55     dih       3       1       2       7    97.21090959    -0.10807626
      56     dih       3       1       2      11   263.29745903    -0.00554207
      57     dih       1       2      11       3   108.17893023     0.00486201
      58     dih       7       2      11       3   -83.87537770     0.09699022
      59     dih       1       2       3       9    61.21308142     0.15960597
      60     dih       1       2       3       6   -58.89009420     0.16705451
      61     dih       1       2       3       8   181.98413567     0.16181347
      62     dih       1       2       3      11   237.86628322    -0.01394625
      63     dih       7       2       3       9   -65.08735611     0.21299954
      64     dih       7       2       3       6   174.80946827     0.22044808
      65     dih       7       2       3       8    55.68369814     0.21520705
      66     dih       7       2       3      11   111.56584569     0.03944733
      67     dih       7       2       3       1   233.69956247     0.05339357
      68     dih      11       2       3       9   183.34679820     0.17355222
      69     dih      11       2       3       6    63.24362258     0.18100076
      70     dih      11       2       3       8   -55.88214755     0.17575972
      71     dih      11       2       3       1   122.13371678     0.01394625
      72     dih       9       3      11       2     4.21737606     0.21857401
      73     dih       6       3      11       2   243.97845922     0.16340319
      74     dih       8       3      11       2   123.06517149     0.16605269
      75     dih       1       3      11       2   -28.47926154     0.00559746
      76     dih       5       1       3       9    -5.30445165     0.25860218
      77     dih       5       1       3       6   235.59236166     0.25973122
      78     dih       5       1       3       8   117.19948501     0.29159945
      79     dih       5       1       3       2   114.93508434     0.10550003
      80     dih       5       1       3      11   149.68950947     0.09611115
      81     dih       2       1       3       9   239.76046401     0.15310216
[...]
     11      F     1.02831347    -1.35238220    -1.12631127
     12      H     0.50976157     1.82981331     0.98566703
 
Total System Charge             0.00000
 
 *** GOStep65 ***

 Energy gradients wrt nuclear displacements
 ==========================================

     Atom      Cartesian (a.u./angstrom)
                 X         Y         Z
 ----------------------------------------
     1 C    -0.047662 -0.005283 -0.446149
     2 C     0.035681 -0.038984  0.408547
     3 C     0.032010  0.004380  0.009465
     4 H     0.000659 -0.002327 -0.005325
     5 C    -0.002934  0.009161 -0.064125
     6 H     0.001354 -0.000747 -0.001200
     7 H    -0.003773 -0.000884  0.006120
     8 H    -0.000163 -0.002030  0.000651
     9 H    -0.000733  0.000013 -0.000886
    10 O    -0.002404  0.003425  0.067336
    11 F    -0.013062  0.035989  0.027664
    12 H     0.001027 -0.002714 -0.002098
 ----------------------------------------
 Mulliken charges used for AMS results%charges...
Hessian eigenvector     1(    -0.000) has overlap with TSRC:    0.66632E-03
Hessian eigenvector     1 has the largest overlap with TSRC:  0.00067
           Primitive Internal Coordinates (atoms in internal order)
-------------------------------------------------------------------------------
    index    type      i       j       k       l   value(A,deg)     Max Ovl Vect
-------------------------------------------------------------------------------
       1     bnd       1       5       0       0     1.48041745    -0.00427729
       2     bnd       1       2       0       0     1.19599909    -0.02259467
       3     bnd       3       9       0       0     1.08450712     0.00147191
       4     bnd       1       4       0       0     1.08785238    -0.00086700
       5     bnd       3       6       0       0     1.08295235     0.00137798
       6     bnd       2       7       0       0     1.08582728    -0.00530553
       7     bnd       3       8       0       0     1.08296573    -0.00013977
       8     bnd       5      10       0       0     1.24238392     0.04191995
       9     bnd       2      11       0       0     1.32662398     0.00508281
      10     bnd       5      12       0       0     1.11258090     0.00062162
      11     bnd       2       3       0       0     2.49363609    -0.35363534
      12     bnd       3      11       0       0     2.73578483    -0.38807400
      13     bnd       1       3       0       0     3.26000118     0.06786266
      14     ang       5       1       2       0   119.61170822     0.03210580
      15     ang       5       1       4       0   118.06936235    -0.00418463
      16     ang       5       1       3       0   103.21732313     0.06490786
      17     ang       2       1       4       0   122.20755747    -0.02737838
      18     ang       2       1       3       0    41.50547647    -0.17476354
      19     ang       4       1       3       0   119.95728496     0.10505073
      20     ang       1       2       7       0   123.82444666    -0.03252174
      21     ang       1       2      11       0   123.34151421     0.00070453
      22     ang       1       2       3       0   119.96214476     0.21651131
      23     ang       7       2      11       0   112.29917601     0.00603417
      24     ang       7       2       3       0    68.55391989    -0.07960932
      25     ang      11       2       3       0    85.72121883    -0.03567928
      26     ang       9       3       6       0   118.71220303    -0.01370312
      27     ang       9       3       8       0   119.06108853    -0.01231041
      28     ang       9       3       2       0   107.63759497    -0.00084404
      29     ang       9       3      11       0   135.06851572     0.04045991
      30     ang       9       3       1       0   100.50787516     0.05211306
      31     ang       6       3       8       0   117.68857439    -0.01170397
      32     ang       6       3       2       0    89.26538300     0.06434537
      33     ang       6       3      11       0    82.68404001     0.08283702
      34     ang       6       3       1       0    77.56714486     0.05036452
      35     ang       8       3       2       0    94.15379201     0.02410991
      36     ang       8       3      11       0    72.70893250    -0.04239511
      37     ang       8       3       1       0   112.25519881    -0.01790394
      38     ang      11       3       1       0    42.37336969     0.00726848
      39     ang       1       5      10       0   124.94181406    -0.00385915
      40     ang       1       5      12       0   114.21092500     0.01007710
      41     ang      10       5      12       0   120.84477250    -0.00627870
      42     ang       2      11       3       0    65.36036311    -0.00765447
      43     dih       2       1       5      10   171.49235319     0.07666639
      44     dih       2       1       5      12    -7.93540369     0.06615440
      45     dih       4       1       5      10    -4.75627934     0.04502560
      46     dih       4       1       5      12   175.81596379     0.03451361
      47     dih       3       1       5      10   130.19971002     0.25115619
      48     dih       3       1       5      12   -49.22804686     0.24064419
      49     dih       5       1       2       7     7.21420951     0.06349646
      50     dih       5       1       2      11   178.17425430    -0.05964855
      51     dih       5       1       2       3   284.20674116     0.03625055
      52     dih       4       1       2       7   183.30185362     0.09696219
      53     dih       4       1       2      11    -5.73810159    -0.02618282
      54     dih       4       1       2       3   100.29438526     0.06971628
      55     dih       3       1       2       7    83.00746835     0.02724591
      56     dih       3       1       2      11   253.96751314    -0.09589910
      57     dih       1       2      11       3   123.38560594     0.23295960
      58     dih       7       2      11       3   -64.72475687     0.10909317
      59     dih       1       2       3       9    69.73510922     0.09269250
      60     dih       1       2       3       6   -50.26966034     0.09227398
      61     dih       1       2       3       8   192.02035347     0.08517936
      62     dih       1       2       3      11   233.62575130    -0.01022505
      63     dih       7       2       3       9   -47.90163429     0.12304356
      64     dih       7       2       3       6   192.09359615     0.12262505
      65     dih       7       2       3       8    74.38360997     0.11553043
      66     dih       7       2       3      11   115.98900779     0.02012601
      67     dih       7       2       3       1   242.36325650     0.03035107
      68     dih      11       2       3       9   196.10935792     0.10291755
      69     dih      11       2       3       6    76.10458836     0.10249903
      70     dih      11       2       3       8   -41.60539782     0.09540442
      71     dih      11       2       3       1   126.37424870     0.01022505
      72     dih       9       3      11       2    21.98760127     0.13109902
      73     dih       6       3      11       2   258.13169033     0.06678859
      74     dih       8       3      11       2   136.08438603     0.09082181
      75     dih       1       3      11       2   -22.31605145     0.05747685
      76     dih       5       1       3       9     5.43497754     0.06501106
      77     dih       5       1       3       6   248.08364562     0.09221289
      78     dih       5       1       3       8   133.00228020     0.07882150
      79     dih       5       1       3       2   120.03286985    -0.01900827
      80     dih       5       1       3      11   155.32183118     0.02562425
      81     dih       2       1       3       9   245.40210769     0.08401933
      82     dih       2       1       3       6   128.05077577     0.11122116
      83     dih       2       1       3       8    12.96941035     0.09782977
      84     dih       2       1       3      11    35.28896133     0.04463252
      85     dih       4       1       3       9   139.32248356     0.19896325
      86     dih       4       1       3       6    21.97115164     0.22616509
      87     dih       4       1       3       8   266.88978622     0.21277370
      88     dih       4       1       3       2   253.92037587     0.11494392
      89     dih       4       1       3      11   -70.79066281     0.15957645
 
----------------------------------------------------------------------
Geometry Convergence after Step  65       (Hartree/Angstrom,Angstrom)
----------------------------------------------------------------------
current energy                               -2.30100199 Hartree
energy change                      -0.00061980     0.00012000    F
constrained gradient max            0.44615404     0.00100000    F
constrained gradient rms            0.10318298     0.00066667    F
gradient max                        0.44615404
gradient rms                        0.10318298
cart. step max                      0.04122306     0.01000000    F
cart. step rms                      0.01486253     0.00666667    F
 
 
--------
Geometry
--------
Formula: C4H6FO
Atoms
  Index Symbol   x (angstrom)   y (angstrom)   z (angstrom)
      1      C     0.96249317    -0.30670284     0.83458298
      2      C     0.77915326    -0.30414575    -0.34973390
      3      C    -1.50427744    -0.34150742    -1.31519127
      4      H     1.24945681    -1.20507175     1.37683096
      5      C     0.70139458     0.92348209     1.61528381
      6      H    -1.74512410    -1.16707007    -0.65684108
      7      H     0.54501281     0.58856311    -0.92132146
      8      H    -1.16151838    -0.58072253    -2.31417358
      9      H    -1.97176564     0.62040559    -1.13460435
     10      O     0.69169250     0.98998142     2.85492738
     11      F     1.01516102    -1.35287133    -1.12730967
     12      H     0.49451585     1.82324111     0.99433865
 
Total System Charge             0.00000
 
 *** GOStep66 ***

 Energy gradients wrt nuclear displacements
 ==========================================

     Atom      Cartesian (a.u./angstrom)
                 X         Y         Z
 ----------------------------------------
     1 C    -0.054619 -0.006001 -0.434765
     2 C     0.041420 -0.037969  0.397652
     3 C     0.034005  0.005144  0.009692
     4 H     0.000744 -0.002139 -0.005064
     5 C    -0.003668  0.008937 -0.062154
     6 H     0.001540 -0.000836 -0.001178
     7 H    -0.004148 -0.001118  0.005976
     8 H    -0.000152 -0.002302  0.000775
     9 H    -0.000859 -0.000075 -0.000919
    10 O    -0.002233  0.003123  0.065010
    11 F    -0.013219  0.035884  0.026948
    12 H     0.001189 -0.002649 -0.001973
 ----------------------------------------
 Mulliken charges used for AMS results%charges...
Hessian eigenvector     1(    -0.000) has overlap with TSRC:    0.77027E-04
Hessian eigenvector     1 has the largest overlap with TSRC:  0.00008
           Primitive Internal Coordinates (atoms in internal order)
-------------------------------------------------------------------------------
    index    type      i       j       k       l   value(A,deg)     Max Ovl Vect
-------------------------------------------------------------------------------
       1     bnd       1       5       0       0     1.48020985    -0.00325593
       2     bnd       1       2       0       0     1.19842669    -0.02563612
       3     bnd       3       9       0       0     1.08463518     0.00144997
       4     bnd       1       4       0       0     1.08786382    -0.00072271
       5     bnd       3       6       0       0     1.08304468     0.00139453
       6     bnd       2       7       0       0     1.08557045    -0.00513152
       7     bnd       3       8       0       0     1.08290041    -0.00025137
       8     bnd       5      10       0       0     1.24146384     0.04216297
       9     bnd       2      11       0       0     1.32670611     0.00199011
      10     bnd       5      12       0       0     1.11262662     0.00023307
      11     bnd       2       3       0       0     2.47942727    -0.31499692
      12     bnd       3      11       0       0     2.72134647    -0.34777853
      13     bnd       1       3       0       0     3.27226189     0.09576233
      14     ang       5       1       2       0   119.50223406     0.03434849
      15     ang       5       1       4       0   118.03134874    -0.00315662
      16     ang       5       1       3       0   102.84824033     0.05219302
      17     ang       2       1       4       0   122.32360786    -0.03073250
      18     ang       2       1       3       0    40.13417789    -0.16979574
      19     ang       4       1       3       0   121.16720994     0.10921711
      20     ang       1       2       7       0   123.71647630    -0.03936268
      21     ang       1       2      11       0   123.38715605     0.00843303
      22     ang       1       2       3       0   121.71276563     0.21360306
      23     ang       7       2      11       0   112.32183052     0.00892065
      24     ang       7       2       3       0    66.96658736    -0.09504741
      25     ang      11       2       3       0    85.62400287    -0.03220662
      26     ang       9       3       6       0   118.61742933    -0.01434345
      27     ang       9       3       8       0   119.07303536    -0.01188989
      28     ang       9       3       2       0   108.58696860     0.01084476
      29     ang       9       3      11       0   135.81784224     0.04679728
      30     ang       9       3       1       0   101.89379759     0.06573288
      31     ang       6       3       8       0   117.56572978    -0.00923036
      32     ang       6       3       2       0    88.83050387     0.05102527
      33     ang       6       3      11       0    83.14398379     0.08006767
      34     ang       6       3       1       0    77.07913898     0.03695521
      35     ang       8       3       2       0    94.07383703     0.02051663
      36     ang       8       3      11       0    71.85383927    -0.04998642
      37     ang       8       3       1       0   111.70337897    -0.02357819
      38     ang      11       3       1       0    42.32680415     0.00329296
      39     ang       1       5      10       0   124.92812673    -0.00388256
      40     ang       1       5      12       0   114.23824359     0.00952318
      41     ang      10       5      12       0   120.83055580    -0.00569269
      42     ang       2      11       3       0    65.29162376    -0.00604368
      43     dih       2       1       5      10   170.37160406     0.06035914
      44     dih       2       1       5      12    -8.99233008     0.05134917
      45     dih       4       1       5      10    -5.38636830     0.03367026
      46     dih       4       1       5      12   175.24969756     0.02466029
      47     dih       3       1       5      10   130.90038311     0.23487525
      48     dih       3       1       5      12   -48.46355103     0.22586528
      49     dih       5       1       2       7     7.86484890     0.05734796
      50     dih       5       1       2      11   178.49979752    -0.04727049
      51     dih       5       1       2       3   285.94684345     0.05424833
      52     dih       4       1       2       7   183.43345723     0.08567330
      53     dih       4       1       2      11    -5.93159415    -0.01894515
      54     dih       4       1       2       3   101.51545178     0.08257367
      55     dih       3       1       2       7    81.91800546     0.00309964
      56     dih       3       1       2      11   252.55295408    -0.10151881
      57     dih       1       2      11       3   125.51828627     0.23253569
      58     dih       7       2      11       3   -62.89528466     0.12515484
      59     dih       1       2       3       9    70.86890120     0.09740332
      60     dih       1       2       3       6   -49.03560811     0.09802382
      61     dih       1       2       3       8   193.41062306     0.09203493
      62     dih       1       2       3      11   233.02393580    -0.01938831
      63     dih       7       2       3       9   -45.63867550     0.14151028
      64     dih       7       2       3       6   194.45681518     0.14213079
      65     dih       7       2       3       8    76.90304636     0.13614190
      66     dih       7       2       3      11   116.51635910     0.02471866
      67     dih       7       2       3       1   243.49242330     0.04410697
      68     dih      11       2       3       9   197.84496540     0.11679163
      69     dih      11       2       3       6    77.94045609     0.11741214
      70     dih      11       2       3       8   -39.61331274     0.11142324
      71     dih      11       2       3       1   126.97606420     0.01938831
      72     dih       9       3      11       2    24.63031063     0.14873890
      73     dih       6       3      11       2   259.98725623     0.08558764
      74     dih       8       3      11       2   137.98859891     0.10442935
      75     dih       1       3      11       2   -21.69324835     0.06095456
      76     dih       5       1       3       9     7.09554078     0.07907750
      77     dih       5       1       3       6   250.10371713     0.10699316
      78     dih       5       1       3       8   135.28791778     0.10055590
      79     dih       5       1       3       2   120.86997546    -0.00513333
      80     dih       5       1       3      11   156.08986385     0.03174198
      81     dih       2       1       3       9   246.22556532     0.08421083
      82     dih       2       1       3       6   129.23374167     0.11212650
      83     dih       2       1       3       8    14.41794232     0.10568923
      84     dih       2       1       3      11    35.21988839     0.03687532
      85     dih       4       1       3       9   141.62584987     0.20774757
      86     dih       4       1       3       6    24.63402622     0.23566323
      87     dih       4       1       3       8   269.81822687     0.22922596
      88     dih       4       1       3       2   255.40028455     0.12353674
      89     dih       4       1       3      11   -69.37982706     0.16041205
 
----------------------------------------------------------------------
Geometry Convergence after Step  66       (Hartree/Angstrom,Angstrom)
----------------------------------------------------------------------
current energy                               -2.30114296 Hartree
energy change                      -0.00014097     0.00012000    F
constrained gradient max            0.43477022     0.00100000    F
constrained gradient rms            0.10070530     0.00066667    F
gradient max                        0.43477022
gradient rms                        0.10070530
cart. step max                      0.04118486     0.01000000    F
cart. step rms                      0.01445673     0.00666667    F
 
 
--------
Geometry
--------
Formula: C4H6FO
Atoms
  Index Symbol   x (angstrom)   y (angstrom)   z (angstrom)
      1      C     0.97743892    -0.30701684     0.83676694
      2      C     0.76959528    -0.30901180    -0.34547030
      3      C    -1.50053267    -0.33252964    -1.32271239
      4      H     1.28840811    -1.19923932     1.37597807
      5      C     0.70219973     0.91824498     1.62023215
      6      H    -1.74869654    -1.13780829    -0.64218742
      7      H     0.51049510     0.58042758    -0.91094779
      8      H    -1.15283029    -0.60410009    -2.31158318
      9      H    -1.97087500     0.63384148    -1.17578921
     10      O     0.69388001     0.98195024     2.85923845
     11      F     1.00561602    -1.35352591    -1.12841427
     12      H     0.48149575     1.81634924     1.00167742
 
Total System Charge             0.00000
 
 *** GOStep67 ***
