
 *******************************************************************************
 *                                                                             *
 *  --------------------------------                                           *
 *   Amsterdam Modeling Suite (AMS)              2021.102                      *
 *  --------------------------------                                           *
 *                                               r95042 2021-06-07             *
 *                                                                             *
 *                                                                             *
 *                              =================                              *
 *                              |               |                              *
 *                              |     A M S     |                              *
 *                              |               |                              *
 *                              =================                              *
 *                                                                             *
 *                                                                             *
 *   Online information and documentation:  https://www.scm.com/support/       *
 *   E-mail:  support@scm.com   info@scm.com                                   *
 *                                                                             *
 *   Scientific publications using AMS results must be properly referenced     *
 *   See the User Manuals (or the web site) for recommended citations          *
 *   The terms and conditions of the End User License Agreement apply to       *
 *   the use of AMS, https://www.scm.com/license-terms/                        *
 *                                                                             *
 **********************  x86_64_linux_intel / intelmpi  ************************
 
 Licensed to: VU/FEW (+ SARA) / ALGEMEEN / Amsterdam / THE NETHERLANDS
 SCM User ID: u7668
  
 AMS 2021.102  RunTime: Jan20-2022 14:26:50  ShM Nodes: 1  Procs: 1

 AMS jobname: 8.no_catalyst_F_F.P1
 AMS jobid  : 1942321308

 Start   directory: /scistor/tc/yhk800/MasterProject/calculations/no_catalyst_F_F/8.no_catalyst_F_F.P1/
 Results directory: /scistor/tc/yhk800/MasterProject/calculations/no_catalyst_F_F/8.no_catalyst_F_F.P1/
 Scratch directory: /scratch/3543/amstmp_8.no_catalyst_F_F.P1_kid0.1942321308/

 RNG seed: 1104404956 128517077 451350274 299612671 1084656240 -5551927 1461897049 -1977903906



                      ************************************************************************
                      *  ADF 2021.102  RunTime: Jan20-2022 14:26:50  ShM Nodes: 1  Procs: 1  *
                      ************************************************************************
  
       ***************************
       *  GEOMETRY OPTIMIZATION  *
       ***************************

Optimization Method                    Quasi Newton
Optimization Coordinates               Delocalized Coordinates
Optimize lattice                       F
 
 ------------------------------------------------------
 Convergence criteria (Hartree,Angstrom)
 ------------------------------------------------------
 Maximum gradient               0.001000000000
 Maximum rms gradient           0.000666666667
 Maximum step allowed           0.010000000000
 Maximum rms step allowed       0.006666666667
 Maximum energy change allowe   0.000120000000
 Maximum stress energy allowe   0.000500000000
 
Initial model Hessian                  Automatic Hessian
 
------------------------------------
Quasi-Newton Optimizer Parameters
------------------------------------
Hessian Update Method                  BFGS
Maximum number of steps                  250
First GDIIS cycle                          0
Maximum GDIIS vectors                      0
Trust radius (bohr)                        0.200000
Trust radius varies                        T
Constraints converged at all steps         T
Use projector                              T
 
 Rigid motions settings for: old optimizer
 Atomic rotations (x,y,z):     T T T
 Atomic translations (x,y,z):  T T T
 Tolerance:                   1.000000000000000E-006
 
--------
Geometry
--------
Formula: C4H5F2O
Atoms
  Index Symbol   x (angstrom)   y (angstrom)   z (angstrom)
      1      C     0.07237900     0.45849000     0.14701600
      2      C     0.88136400    -0.76962700     0.34543400
      3      H     0.32008500    -1.64937000     0.00848400
      4      C    -1.24453700     0.48140500    -0.41210600
      5      H     0.49150900     1.42171500     0.44020400
      6      O    -1.90880100     1.51397000    -0.58363800
      7      C     1.35798400    -0.97156700     1.79839200
      8      H     1.97578900    -1.87216200     1.87186400
      9      H     0.50807500    -1.08370100     2.47848500
     10      H     1.95613700    -0.12156000     2.14194000
     11      F     2.02430961    -0.68835013    -0.47625293
     12      F    -1.77975829    -0.77116689    -0.77638863
 
Total System Charge             0.00000
 
 
----------------
ADF Engine Input
----------------
 
 NumericalQuality VeryGood
 SCF
 Converge 1.0e-6
 Iterations 99
 End
 SYMMETRY NOSYM
 SpinPolarization 1.0
 Unrestricted Yes
 XC
 GGA OLYP
 End
 basis
 core None
 type TZ2P
 End
 

 Title: *** (NO TITLE) ***

 Using automatic Hessian for delocalized coordinates.
 *** GOStep1 ***

 Energy gradients wrt nuclear displacements
 ==========================================

     Atom      Cartesian (a.u./angstrom)
                 X         Y         Z
 ----------------------------------------
     1 C    -0.000824  0.010075 -0.001336
     2 C    -0.005522  0.019365 -0.021260
     3 H    -0.002916 -0.002072 -0.000978
     4 C     0.054512 -0.061090  0.017132
     5 H     0.004409  0.003138  0.004989
     6 O    -0.035750  0.076980 -0.007394
     7 C     0.003585 -0.005037  0.005519
     8 H     0.002214  0.000535  0.004087
     9 H     0.002124  0.000760  0.001624
    10 H     0.001021 -0.001460  0.002898
    11 F    -0.005708 -0.004924  0.006497
    12 F    -0.017146 -0.036270 -0.011779
 ----------------------------------------
 Mulliken charges used for AMS results%charges...
 
----------------------------------------------------------------------
Geometry Convergence after Step   1       (Hartree/Angstrom,Angstrom)
----------------------------------------------------------------------
current energy                               -2.41802303 Hartree
energy change                      -2.41802303     0.00012000    F
constrained gradient max            0.07697489     0.00100000    F
constrained gradient rms            0.02188487     0.00066667    F
gradient max                        0.07697489
gradient rms                        0.02188487
cart. step max                      0.08736050     0.01000000    F
cart. step rms                      0.02623839     0.00666667    F
 
 
--------
Geometry
--------
Formula: C4H5F2O
Atoms
  Index Symbol   x (angstrom)   y (angstrom)   z (angstrom)
      1      C     0.08231321     0.44561362     0.13717516
      2      C     0.89843718    -0.78317351     0.33855648
      3      H     0.36083462    -1.66963105    -0.01277136
      4      C    -1.24350149     0.50170775    -0.39947574
      5      H     0.51753773     1.40966285     0.38923282
      6      O    -1.90536951     1.48796983    -0.57050160
      7      C     1.33822874    -0.97175750     1.79497096
      8      H     1.96829583    -1.86284022     1.87117926
      9      H     0.46920293    -1.10451910     2.44727055
     10      H     1.90852829    -0.10605527     2.14601319
     11      F     2.05317289    -0.65959629    -0.46918816
     12      F    -1.79314511    -0.73930513    -0.68902813
 
Total System Charge             0.00000
 
 *** GOStep2 ***

 Energy gradients wrt nuclear displacements
 ==========================================

     Atom      Cartesian (a.u./angstrom)
                 X         Y         Z
 ----------------------------------------
     1 C    -0.009459  0.004746 -0.000470
     2 C     0.000305  0.003266 -0.011511
     3 H    -0.001548 -0.001060  0.001067
     4 C     0.011681  0.009878 -0.003909
     5 H    -0.000677  0.000798  0.001501
     6 O     0.008019 -0.014336  0.005231
     7 C    -0.000069 -0.001530  0.004540
     8 H     0.000441  0.000351  0.000368
     9 H     0.000593  0.000477  0.001217
    10 H     0.000651  0.000200  0.000907
    11 F    -0.002971 -0.000542  0.001554
    12 F    -0.006966 -0.002248 -0.000495
 ----------------------------------------
 Mulliken charges used for AMS results%charges...

 dE(predicted):    -0.30949E-02, dE(actual):    -0.31602E-02, Trust radius:    0.400000, all in a.u.
 
----------------------------------------------------------------------
Geometry Convergence after Step   2       (Hartree/Angstrom,Angstrom)
----------------------------------------------------------------------
current energy                               -2.42118327 Hartree
energy change                      -0.00316023     0.00012000    F
constrained gradient max            0.01434234     0.00100000    F
constrained gradient rms            0.00500594     0.00066667    F
gradient max                        0.01434234
gradient rms                        0.00500594
cart. step max                      0.06202273     0.01000000    F
cart. step rms                      0.01621072     0.00666667    F
 
 
--------
Geometry
--------
Formula: C4H5F2O
Atoms
  Index Symbol   x (angstrom)   y (angstrom)   z (angstrom)
      1      C     0.07631515     0.44070493     0.14717068
      2      C     0.89827282    -0.78745262     0.34592810
      3      H     0.36937310    -1.67604168    -0.00984374
      4      C    -1.27565151     0.50910585    -0.33745302
      5      H     0.53243354     1.40530996     0.35099941
      6      O    -1.90490378     1.49554057    -0.60486324
      7      C     1.33871926    -0.97531131     1.79615980
      8      H     1.97591224    -1.86170453     1.86596380
      9      H     0.46731045    -1.12146757     2.44232764
     10      H     1.89796433    -0.10343566     2.14823497
     11      F     2.05240129    -0.64913153    -0.46490368
     12      F    -1.77361155    -0.72804044    -0.69628727
 
Total System Charge             0.00000
 
 *** GOStep3 ***

 Energy gradients wrt nuclear displacements
 ==========================================

     Atom      Cartesian (a.u./angstrom)
                 X         Y         Z
 ----------------------------------------
     1 C    -0.001036 -0.001351 -0.009945
     2 C     0.001474 -0.001623 -0.003290
     3 H    -0.000507 -0.000143  0.001394
     4 C    -0.014977  0.009685  0.032503
     5 H    -0.001817 -0.000273 -0.000716
     6 O     0.011099 -0.013054 -0.011215
     7 C    -0.000250 -0.000390  0.001889
     8 H    -0.000152  0.000127 -0.000547
     9 H    -0.000112  0.000212  0.000186
    10 H     0.000330  0.000585 -0.000179
    11 F    -0.000648  0.000300 -0.000483
    12 F     0.006595  0.005924 -0.009597
 ----------------------------------------
 Mulliken charges used for AMS results%charges...

 dE(predicted):    -0.59527E-03, dE(actual):     0.95771E-03, Trust radius:    0.065361, all in a.u.
 
----------------------------------------------------------------------
Geometry Convergence after Step   3       (Hartree/Angstrom,Angstrom)
----------------------------------------------------------------------
current energy                               -2.42022556 Hartree
energy change                       0.00095771     0.00012000    F
constrained gradient max            0.03250339     0.00100000    F
constrained gradient rms            0.00762586     0.00066667    F
gradient max                        0.03250339
gradient rms                        0.00762586
cart. step max                      0.02302277     0.01000000    F
cart. step rms                      0.00682245     0.00666667    F
 
 
--------
Geometry
--------
Formula: C4H5F2O
Atoms
  Index Symbol   x (angstrom)   y (angstrom)   z (angstrom)
      1      C     0.08169943     0.44133745     0.13963647
      2      C     0.90320939    -0.78614165     0.34357291
      3      H     0.37711256    -1.67453178    -0.01673303
      4      C    -1.27080572     0.50855074    -0.35133821
      5      H     0.53811316     1.40567671     0.34589296
      6      O    -1.91222759     1.49933655    -0.59586560
      7      C     1.33558348    -0.97577694     1.79524958
      8      H     1.97275802    -1.86202604     1.86822115
      9      H     0.46027192    -1.12340024     2.43566679
     10      H     1.89215957    -0.10446111     2.15218699
     11      F     2.06273291    -0.64715293    -0.45979207
     12      F    -1.78607180    -0.73333478    -0.67326451
 
Total System Charge             0.00000
 
 *** GOStep4 ***

 Energy gradients wrt nuclear displacements
 ==========================================

     Atom      Cartesian (a.u./angstrom)
                 X         Y         Z
 ----------------------------------------
     1 C     0.001586 -0.001795 -0.005288
     2 C     0.001399 -0.001064 -0.002513
     3 H    -0.000446  0.000017  0.001337
     4 C    -0.005231  0.000137  0.022700
     5 H    -0.001195 -0.000127 -0.000123
     6 O     0.000855  0.001061 -0.009710
     7 C     0.000088 -0.000135  0.001350
     8 H    -0.000056  0.000035 -0.000384
     9 H    -0.000077  0.000198 -0.000008
    10 H     0.000230  0.000312 -0.000224
    11 F    -0.000559  0.000105 -0.000239
    12 F     0.003405  0.001255 -0.006898
 ----------------------------------------
 Mulliken charges used for AMS results%charges...

 dE(predicted):    -0.85185E-03, dE(actual):    -0.83304E-03, Trust radius:    0.130721, all in a.u.
 
----------------------------------------------------------------------
Geometry Convergence after Step   4       (Hartree/Angstrom,Angstrom)
----------------------------------------------------------------------
current energy                               -2.42105861 Hartree
energy change                      -0.00083304     0.00012000    F
constrained gradient max            0.02269596     0.00100000    F
constrained gradient rms            0.00456053     0.00066667    F
gradient max                        0.02269596
gradient rms                        0.00456053
cart. step max                      0.07391408     0.01000000    F
cart. step rms                      0.01920560     0.00666667    F
 
 
--------
Geometry
--------
Formula: C4H5F2O
Atoms
  Index Symbol   x (angstrom)   y (angstrom)   z (angstrom)
      1      C     0.09539659     0.44571961     0.11826909
      2      C     0.91493909    -0.78051220     0.33443787
      3      H     0.39784722    -1.66800474    -0.04127102
      4      C    -1.26078314     0.50511765    -0.36677967
      5      H     0.55449048     1.41097508     0.31652159
      6      O    -1.91469741     1.49363361    -0.57302889
      7      C     1.32170140    -0.97731552     1.79126912
      8      H     1.96008874    -1.86209018     1.87211574
      9      H     0.43514076    -1.13210541     2.41422713
     10      H     1.86830912    -0.10699813     2.16474652
     11      F     2.08908556    -0.63731053    -0.44772362
     12      F    -1.80698308    -0.74303325    -0.59935043
 
Total System Charge             0.00000
 
 *** GOStep5 ***

 Energy gradients wrt nuclear displacements
 ==========================================

     Atom      Cartesian (a.u./angstrom)
                 X         Y         Z
 ----------------------------------------
     1 C    -0.000087 -0.000095  0.000030
     2 C     0.000658 -0.000781 -0.000490
     3 H    -0.000247  0.000097  0.000838
     4 C    -0.002894  0.002943 -0.000555
     5 H    -0.000482  0.000208  0.000911
     6 O     0.002628 -0.002899  0.000283
     7 C     0.000428  0.000426  0.000115
     8 H    -0.000031 -0.000041 -0.000084
     9 H    -0.000007  0.000097 -0.000121
    10 H     0.000086 -0.000082 -0.000161
    11 F    -0.000654 -0.000059 -0.000311
    12 F     0.000601  0.000185 -0.000454
 ----------------------------------------
 Mulliken charges used for AMS results%charges...

 dE(predicted):    -0.64107E-03, dE(actual):    -0.65572E-03, Trust radius:    0.261442, all in a.u.
 
----------------------------------------------------------------------
Geometry Convergence after Step   5       (Hartree/Angstrom,Angstrom)
----------------------------------------------------------------------
current energy                               -2.42171432 Hartree
energy change                      -0.00065572     0.00012000    F
constrained gradient max            0.00293824     0.00100000    F
constrained gradient rms            0.00102060     0.00066667    F
gradient max                        0.00293824
gradient rms                        0.00102060
cart. step max                      0.08357970     0.01000000    F
cart. step rms                      0.02319779     0.00666667    F
 
 
--------
Geometry
--------
Formula: C4H5F2O
Atoms
  Index Symbol   x (angstrom)   y (angstrom)   z (angstrom)
      1      C     0.10969917     0.44826697     0.09740119
      2      C     0.92993135    -0.77583151     0.32416184
      3      H     0.42660309    -1.66321988    -0.06992080
      4      C    -1.26107001     0.50403198    -0.35042669
      5      H     0.57862099     1.41490100     0.26178154
      6      O    -1.91980183     1.49018810    -0.56240454
      7      C     1.30437687    -0.98117412     1.78706665
      8      H     1.94797003    -1.86145146     1.87522216
      9      H     0.40437465    -1.14949378     2.38687330
     10      H     1.83384899    -0.10921769     2.18055251
     11      F     2.12125007    -0.62171972    -0.43110297
     12      F    -1.82126804    -0.74720390    -0.51577073
 
Total System Charge             0.00000
 
 *** GOStep6 ***

 Energy gradients wrt nuclear displacements
 ==========================================

     Atom      Cartesian (a.u./angstrom)
                 X         Y         Z
 ----------------------------------------
     1 C     0.001621 -0.001201  0.001537
     2 C     0.000054 -0.002037  0.002511
     3 H     0.000135  0.000388  0.000717
     4 C    -0.002138 -0.000567 -0.003987
     5 H    -0.000676  0.000014  0.000910
     6 O    -0.001118  0.001155  0.000454
     7 C     0.000482  0.000888 -0.001330
     8 H    -0.000163 -0.000090 -0.000096
     9 H    -0.000144 -0.000033 -0.000198
    10 H     0.000008 -0.000044 -0.000237
    11 F     0.000586  0.000152 -0.001258
    12 F     0.001352  0.001375  0.000977
 ----------------------------------------
 Mulliken charges used for AMS results%charges...

 dE(predicted):    -0.91345E-04, dE(actual):    -0.15293E-03, Trust radius:    0.261442, all in a.u.
 
----------------------------------------------------------------------
Geometry Convergence after Step   6       (Hartree/Angstrom,Angstrom)
----------------------------------------------------------------------
current energy                               -2.42186725 Hartree
energy change                      -0.00015293     0.00012000    F
constrained gradient max            0.00398956     0.00100000    F
constrained gradient rms            0.00120196     0.00066667    F
gradient max                        0.00398956
gradient rms                        0.00120196
cart. step max                      0.13958198     0.01000000    F
cart. step rms                      0.03956135     0.00666667    F
 
 
--------
Geometry
--------
Formula: C4H5F2O
Atoms
  Index Symbol   x (angstrom)   y (angstrom)   z (angstrom)
      1      C     0.13408043     0.45430032     0.06047464
      2      C     0.95449707    -0.76535183     0.30480999
      3      H     0.47309943    -1.65201520    -0.11860820
      4      C    -1.25846013     0.49852542    -0.31524928
      5      H     0.61698823     1.42229310     0.16478066
      6      O    -1.92400106     1.47893501    -0.53945339
      7      C     1.27290013    -0.98718748     1.77859927
      8      H     1.92389772    -1.86054766     1.88041507
      9      H     0.35195954    -1.17598953     2.33928105
     10      H     1.77407135    -0.11455945     2.20607147
     11      F     2.17356466    -0.59665245    -0.40149910
     12      F    -1.83806205    -0.75367428    -0.37618875
 
Total System Charge             0.00000
 
 *** GOStep7 ***

 Energy gradients wrt nuclear displacements
 ==========================================

     Atom      Cartesian (a.u./angstrom)
                 X         Y         Z
 ----------------------------------------
     1 C     0.002636 -0.000540  0.002149
     2 C    -0.001773 -0.002542  0.004543
     3 H     0.000448  0.000575  0.000444
     4 C    -0.000387 -0.004308 -0.005535
     5 H    -0.000304  0.000034  0.001160
     6 O    -0.003246  0.003673  0.000670
     7 C     0.000682  0.001318 -0.002907
     8 H    -0.000205 -0.000102  0.000138
     9 H    -0.000211 -0.000158  0.000008
    10 H    -0.000063 -0.000077 -0.000002
    11 F     0.002125  0.000315 -0.002136
    12 F     0.000300  0.001811  0.001468
 ----------------------------------------
 Mulliken charges used for AMS results%charges...

 dE(predicted):    -0.21438E-03, dE(actual):    -0.25200E-03, Trust radius:    0.522884, all in a.u.
 
----------------------------------------------------------------------
Geometry Convergence after Step   7       (Hartree/Angstrom,Angstrom)
----------------------------------------------------------------------
current energy                               -2.42211925 Hartree
energy change                      -0.00025200     0.00012000    F
constrained gradient max            0.00554401     0.00100000    F
constrained gradient rms            0.00199719     0.00066667    F
gradient max                        0.00554401
gradient rms                        0.00199719
cart. step max                      0.21126404     0.01000000    F
cart. step rms                      0.06060478     0.00666667    F
 
 
--------
Geometry
--------
Formula: C4H5F2O
Atoms
  Index Symbol   x (angstrom)   y (angstrom)   z (angstrom)
      1      C     0.16794986     0.46180533     0.00352441
      2      C     0.99004702    -0.74897276     0.27606793
      3      H     0.54382812    -1.63521669    -0.18779936
      4      C    -1.24959992     0.49246977    -0.25368932
      5      H     0.66617339     1.42730395     0.00813556
      6      O    -1.93012256     1.45869905    -0.49738691
      7      C     1.22210122    -0.99614523     1.76348977
      8      H     1.88330069    -1.85903648     1.88695277
      9      H     0.27280073    -1.21415157     2.26262070
     10      H     1.67829960    -0.12344561     2.23847846
     11      F     2.24623777    -0.55931017    -0.35203587
     12      F    -1.83648061    -0.75592362    -0.16492471
 
Total System Charge             0.00000
 
 *** GOStep8 ***

 Energy gradients wrt nuclear displacements
 ==========================================

     Atom      Cartesian (a.u./angstrom)
                 X         Y         Z
 ----------------------------------------
     1 C     0.002307 -0.000299  0.001648
     2 C    -0.004107 -0.002686  0.004864
     3 H     0.000712  0.000802  0.000320
     4 C     0.000938 -0.006738 -0.004608
     5 H     0.000102 -0.000014  0.001312
     6 O    -0.004062  0.005106  0.000358
     7 C     0.001023  0.001768 -0.004106
     8 H    -0.000180 -0.000182  0.000331
     9 H    -0.000359 -0.000286  0.000330
    10 H    -0.000217 -0.000063  0.000301
    11 F     0.003746  0.000510 -0.002346
    12 F     0.000098  0.002081  0.001596
 ----------------------------------------
 Mulliken charges used for AMS results%charges...

 dE(predicted):    -0.40192E-03, dE(actual):    -0.34208E-03, Trust radius:    0.522884, all in a.u.
 
----------------------------------------------------------------------
Geometry Convergence after Step   8       (Hartree/Angstrom,Angstrom)
----------------------------------------------------------------------
current energy                               -2.42246133 Hartree
energy change                      -0.00034208     0.00012000    F
constrained gradient max            0.00674160     0.00100000    F
constrained gradient rms            0.00245752     0.00066667    F
gradient max                        0.00674160
gradient rms                        0.00245752
cart. step max                      0.21168553     0.01000000    F
cart. step rms                      0.06385313     0.00666667    F
 
 
--------
Geometry
--------
Formula: C4H5F2O
Atoms
  Index Symbol   x (angstrom)   y (angstrom)   z (angstrom)
      1      C     0.19897422     0.46725088    -0.05659072
      2      C     1.02568141    -0.73062826     0.24929960
      3      H     0.61926024    -1.61769717    -0.25245652
      4      C    -1.23322309     0.48972319    -0.18308638
      5      H     0.70379831     1.42213513    -0.17054207
      6      O    -1.93514036     1.43620866    -0.44055213
      7      C     1.16664374    -1.00592192     1.74671622
      8      H     1.83736988    -1.85774061     1.89316073
      9      H     0.19247576    -1.25257280     2.17900257
     10      H     1.57396327    -0.13453066     2.26639451
     11      F     2.31242558    -0.51912774    -0.29467318
     12      F    -1.80769364    -0.74902271     0.04676082
 
Total System Charge             0.00000
 
 *** GOStep9 ***

 Energy gradients wrt nuclear displacements
 ==========================================

     Atom      Cartesian (a.u./angstrom)
                 X         Y         Z
 ----------------------------------------
     1 C     0.000611 -0.000042  0.000227
     2 C    -0.004699 -0.001491  0.002251
     3 H     0.000764  0.000825  0.000294
     4 C     0.002316 -0.005664 -0.001559
     5 H     0.000545 -0.000062  0.001156
     6 O    -0.002926  0.003697 -0.000168
     7 C     0.000821  0.001631 -0.003360
     8 H    -0.000069 -0.000262  0.000389
     9 H    -0.000532 -0.000362  0.000571
    10 H    -0.000386 -0.000032  0.000426
    11 F     0.003527  0.000355 -0.001461
    12 F     0.000028  0.001406  0.001235
 ----------------------------------------
 Mulliken charges used for AMS results%charges...

 dE(predicted):    -0.26971E-03, dE(actual):    -0.20254E-03, Trust radius:    1.000000, all in a.u.
 
----------------------------------------------------------------------
Geometry Convergence after Step   9       (Hartree/Angstrom,Angstrom)
----------------------------------------------------------------------
current energy                               -2.42266387 Hartree
energy change                      -0.00020254     0.00012000    F
constrained gradient max            0.00566567     0.00100000    F
constrained gradient rms            0.00189322     0.00066667    F
gradient max                        0.00566567
gradient rms                        0.00189322
cart. step max                      0.02664934     0.01000000    F
cart. step rms                      0.00565130     0.00666667    T
 
 
--------
Geometry
--------
Formula: C4H5F2O
Atoms
  Index Symbol   x (angstrom)   y (angstrom)   z (angstrom)
      1      C     0.19950129     0.46953219    -0.05848861
      2      C     1.02726881    -0.72713773     0.25113935
      3      H     0.62114769    -1.61433975    -0.25252401
      4      C    -1.23285517     0.49121327    -0.17640103
      5      H     0.70395987     1.42122517    -0.19719141
      6      O    -1.93669548     1.43634891    -0.42836941
      7      C     1.16491018    -1.00785172     1.74962745
      8      H     1.83405761    -1.86123791     1.89314929
      9      H     0.18972755    -1.25287318     2.17930297
     10      H     1.57476074    -0.13875339     2.27118573
     11      F     2.31306680    -0.51554109    -0.28861758
     12      F    -1.80431457    -0.75250879     0.04062070
 
Total System Charge             0.00000
 
 *** GOStep10 ***

 Energy gradients wrt nuclear displacements
 ==========================================

     Atom      Cartesian (a.u./angstrom)
                 X         Y         Z
 ----------------------------------------
     1 C    -0.000031  0.000529  0.000061
     2 C    -0.002919 -0.000447  0.001162
     3 H     0.000557  0.000298  0.000001
     4 C     0.001575 -0.002369  0.000092
     5 H     0.000345 -0.000132  0.000303
     6 O    -0.001089  0.001196 -0.000309
     7 C     0.000512  0.000661 -0.001698
     8 H     0.000039 -0.000126  0.000301
     9 H    -0.000186 -0.000220  0.000284
    10 H    -0.000204 -0.000027  0.000291
    11 F     0.001611  0.000057 -0.000737
    12 F    -0.000211  0.000581  0.000250
 ----------------------------------------
 Mulliken charges used for AMS results%charges...

 dE(predicted):    -0.38715E-04, dE(actual):    -0.50799E-04, Trust radius:    1.000000, all in a.u.
 
----------------------------------------------------------------------
Geometry Convergence after Step  10       (Hartree/Angstrom,Angstrom)
----------------------------------------------------------------------
current energy                               -2.42271467 Hartree
energy change                      -0.00005080     0.00012000    T
constrained gradient max            0.00291865     0.00100000    F
constrained gradient rms            0.00090319     0.00066667    F
gradient max                        0.00291865
gradient rms                        0.00090319
cart. step max                      0.01249468     0.01000000    F
cart. step rms                      0.00373849     0.00666667    T
 
 
--------
Geometry
--------
Formula: C4H5F2O
Atoms
  Index Symbol   x (angstrom)   y (angstrom)   z (angstrom)
      1      C     0.19987713     0.46925581    -0.06071742
      2      C     1.02933949    -0.72609425     0.25155804
      3      H     0.62211778    -1.61372436    -0.25162375
      4      C    -1.23299554     0.49134675    -0.17355962
      5      H     0.70273188     1.42043710    -0.20825094
      6      O    -1.93798271     1.43711402    -0.41587474
      7      C     1.16383379    -1.00767455     1.75119629
      8      H     1.82937526    -1.86382905     1.89385352
      9      H     0.18714139    -1.24768582     2.17943043
     10      H     1.57816215    -0.14010068     2.27170738
     11      F     2.31428981    -0.51447960    -0.28574914
     12      F    -1.80135510    -0.75648940     0.03146338
 
Total System Charge             0.00000
 
 *** GOStep11 ***

 Energy gradients wrt nuclear displacements
 ==========================================

     Atom      Cartesian (a.u./angstrom)
                 X         Y         Z
 ----------------------------------------
     1 C    -0.000343  0.000256 -0.000058
     2 C    -0.000842 -0.000042  0.000584
     3 H     0.000081  0.000019 -0.000054
     4 C     0.000121 -0.000009  0.000393
     5 H     0.000071 -0.000141 -0.000036
     6 O     0.000219 -0.000225 -0.000132
     7 C     0.000070  0.000075 -0.000431
     8 H     0.000054  0.000015  0.000038
     9 H    -0.000016 -0.000081  0.000048
    10 H    -0.000070  0.000002  0.000091
    11 F     0.000548  0.000008 -0.000318
    12 F     0.000106  0.000123 -0.000124
 ----------------------------------------
 Mulliken charges used for AMS results%charges...

 dE(predicted):    -0.10122E-04, dE(actual):    -0.11756E-04, Trust radius:    1.000000, all in a.u.
 
---------------------------------------------------------
Geometry Convergence after Step  11       ** CONVERGED **
---------------------------------------------------------
current energy                               -2.42272642 Hartree
energy change                      -0.00001176     0.00012000    T
constrained gradient max            0.00084165     0.00100000    T
constrained gradient rms            0.00024869     0.00066667    T
gradient max                        0.00084165
gradient rms                        0.00024869
cart. step max                      0.00424747     0.01000000    T
cart. step rms                      0.00139634     0.00666667    T
 
Geometry optimization converged

Optimized geometry:
 
--------
Geometry
--------
Formula: C4H5F2O
Atoms
  Index Symbol   x (angstrom)   y (angstrom)   z (angstrom)
      1      C     0.19987713     0.46925581    -0.06071742
      2      C     1.02933949    -0.72609425     0.25155804
      3      H     0.62211778    -1.61372436    -0.25162375
      4      C    -1.23299554     0.49134675    -0.17355962
      5      H     0.70273188     1.42043710    -0.20825094
      6      O    -1.93798271     1.43711402    -0.41587474
      7      C     1.16383379    -1.00767455     1.75119629
      8      H     1.82937526    -1.86382905     1.89385352
      9      H     0.18714139    -1.24768582     2.17943043
     10      H     1.57816215    -0.14010068     2.27170738
     11      F     2.31428981    -0.51447960    -0.28574914
     12      F    -1.80135510    -0.75648940     0.03146338
 
Total System Charge             0.00000
 
Performing a single point calculation on the final geometry ...

 *** adf ***



 ===========================
 A T T A C H E D   F I L E S
 ===========================
  
 Restart/scratch/3543/amstmp_8.no_catalyst_F_F.P1_kid0.1942321308/GOStep11.rkf
 *** GOStep11 ***



 ===============================
 M O D E L   P A R A M E T E R S
 ===============================
  
 DENSITY FUNCTIONAL POTENTIAL (scf)
    LDA:                               Exchange only                           == Not Default ==
    Gradient Corrections:              OPTX LYP                                == Not Default ==

 SPIN  (restricted / unrestr.)
    Molecule:                          UNrestricted                            == Not Default ==
    Fragments:                         Restricted                               

 OTHER ASPECTS
    Relativistic Corrections:          scalar (ZORA,MAPA)                       

    Nuclear Charge Density Model:      Point Charge Nuclei                      
    Core Treatment:                    Frozen Orbital(s)                        

    Hyperfine or Zeeman Interaction:   ---                                      



 ===============
 G E O M E T R Y  ***  3D  Molecule  ***
 ===============
  

 ATOMS
 =====                            X Y Z                    CHARGE
                                (Angstrom)             Nucl     +Core       At.Mass
                       --------------------------    ----------------       -------
    1  C               0.1999    0.4693   -0.0607      6.00      6.00       12.0000
    2  C               1.0293   -0.7261    0.2516      6.00      6.00       12.0000
    3  H               0.6221   -1.6137   -0.2516      1.00      1.00        1.0078
    4  C              -1.2330    0.4913   -0.1736      6.00      6.00       12.0000
    5  H               0.7027    1.4204   -0.2083      1.00      1.00        1.0078
    6  O              -1.9380    1.4371   -0.4159      8.00      8.00       15.9949
    7  C               1.1638   -1.0077    1.7512      6.00      6.00       12.0000
    8  H               1.8294   -1.8638    1.8939      1.00      1.00        1.0078
    9  H               0.1871   -1.2477    2.1794      1.00      1.00        1.0078
   10  H               1.5782   -0.1401    2.2717      1.00      1.00        1.0078
   11  F               2.3143   -0.5145   -0.2857      9.00      9.00       18.9984
   12  F              -1.8014   -0.7565    0.0315      9.00      9.00       18.9984


 FRAGMENTS
 =========                                     Atoms in this Fragment     Cart. coord.s (Angstrom)
                                               -------------------------------------------------------
    1  C                                                 1  C            0.1999    0.4693   -0.0607
    2  C                                                 2  C            1.0293   -0.7261    0.2516
    3  C                                                 4  C           -1.2330    0.4913   -0.1736
    4  C                                                 7  C            1.1638   -1.0077    1.7512
    5  H                                                 3  H            0.6221   -1.6137   -0.2516
    6  H                                                 5  H            0.7027    1.4204   -0.2083
    7  H                                                 8  H            1.8294   -1.8638    1.8939
    8  H                                                 9  H            0.1871   -1.2477    2.1794
    9  H                                                10  H            1.5782   -0.1401    2.2717
   10  O                                                 6  O           -1.9380    1.4371   -0.4159
   11  F                                                11  F            2.3143   -0.5145   -0.2857
   12  F                                                12  F           -1.8014   -0.7565    0.0315


 Interatomic Distance Matrix (Angstrom)
 --------------------------------------

   1)     0.000
   2)     1.488   0.000
   3)     2.134   1.099   0.000
   4)     1.437   2.604   2.807   0.000
   5)     1.086   2.219   3.036   2.147   0.000
   6)     2.373   3.732   3.986   1.204   2.649   0.000
   7)     2.529   1.532   2.161   3.420   3.154   4.505   0.000
   8)     3.452   2.152   2.474   4.382   4.059   5.516   1.094   0.000
   9)     2.822   2.167   2.497   3.252   3.617   4.296   1.093   1.777   0.000
  10)     2.777   2.174   3.075   3.779   3.058   4.698   1.093   1.782   1.781   0.000
  11)     2.343   1.409   2.018   3.689   2.519   4.681   2.391   2.609   3.338   2.687
          0.000
  12)     2.349   2.839   2.586   1.386   3.327   2.243   3.437   4.228   2.968   4.101
          4.135   0.000

 Min. Distance =    1.0860
 Max. Distance =    5.5158



 =====================================
 S Y M M E T R Y ,   E L E C T R O N S
 =====================================
  
 Symmetry: NOSYM

 Irreducible Representations, including subspecies
 -------------------------------------------------
 A


 Configuration of Valence Electrons
 ==================================
 ( determined in the SCF procedure )

 Total:   28 (Spin-A)  + 27 (Spin-B)

 Net Charge: 0 (Nuclei minus Electrons)
 Spin polar: 1 (Spin_A minus Spin_B electrons)

 Aufbau principle for MO occupations will be applied through SCF cycle no.      49
 Thereafter, the program will assign electrons to MOs that are spatially
 similar to the occupied MOs in a "reference" cycle ("KeepOrbitals").
 The reference cycle is always the PREVIOUS cycle: it will evolve with
 the SCF procedure.
1
 ***************************************************************************************************



                                      ****************************************
                                      *  B U I L D : (Fragments, Functions)  *
                                      ****************************************
  



 =======
 S F O s  ***  (Symmetrized Fragment Orbitals)  ***
 =======
  
 SFOs are linear combinations of (valence) Fragment Orbitals (FOs), such that the SFOs transform as the
 irreducible representations of the (molecular) symmetry group. Each SFO is therefore characterized by
 an irrep of the molecule and by a few (or only one) generating FOs.
 The SFOs constitute a symmetry-adapted basis for the Fock matrix. The MO eigenvector coefficients in
 this basis provide a direct interpretation of the MOs in terms of Frontier Orbital Theory.

 The SFOs are combined with auxiliary Core Functions (CFs) to ensure orthogonalization on the (frozen)
 Core Orbitals (COs). The Core-orthogonalized SFOs (CSFOs) constitute the true Fock basis.

 The FOs, and hence also the (C)SFOs are combinations of the elementary basis functions (BAS). The basis
 functions that participate in the description of the SFOs depend on the irrep. The indices of the
 involved functions are printed below for each irrep.
 (The complete list of primitive basis functions is printed in another section)

 Total nr. of (C)SFOs (summation over all irreps) :   237

 NOTE: a (C)SFO that is defined as a combination of more than one FO is usually NOT normalized.



                                       === A ===
 Nr. of SFOs :  237
 Cartesian basis functions that participate in this irrep (total number =   270) :
      1     2     3     4     5     6     9    12     7    10
     13     8    11    14    15    16    17    18    19    20
     21    22    23    24    25    26    27    28    29    30
     31    32    33    34    35    36    39    42    37    40
     43    38    41    44    45    46    47    48    49    50
     51    52    53    54    55    56    57    58    59    60
     61    62    63    64    65    66    69    72    67    70
     73    68    71    74    75    76    77    78    79    80
     81    82    83    84    85    86    87    88    89    90
     91    92    93    94    95    96    99   102    97   100
    103    98   101   104   105   106   107   108   109   110
    111   112   113   114   115   116   117   118   119   120
    121   122   123   124   125   126   127   128   129   130
    131   132   133   134   135   136   137   138   139   140
    141   142   143   144   145   146   147   148   149   150
    151   152   153   154   155   156   157   158   159   160
    161   162   163   164   165   166   167   168   169   170
    171   172   173   174   175   176   177   178   179   180
    181   182   183   184   185   186   189   192   187   190
    193   188   191   194   195   196   197   198   199   200
    201   202   203   204   205   206   207   208   209   210
    211   212   213   214   215   216   219   222   217   220
    223   218   221   224   225   226   227   228   229   230
    231   232   233   234   235   236   237   238   239   240
    241   242   243   244   245   246   249   252   247   250
    253   248   251   254   255   256   257   258   259   260
    261   262   263   264   265   266   267   268   269   270

    SFO  (index         Fragment          Generating    Expansion in Fragment Orbitals
  indx  incl.CFs)   Occup   Orb.Energy   FragmentType  Coeff.   Orbital     on Fragment
 --------------------------------------------------------------------------------------
     1       1      2.000     -10.064 au  C             1.00      1 S               1
                        (    -273.865 eV)
     2       2      2.000      -0.507 au  C             1.00      2 S               1
                        (     -13.802 eV)
     3       3       --         0.384 au  C             1.00      3 S               1
                        (      10.456 eV)
     4       4       --         5.458 au  C             1.00      4 S               1
                        (     148.511 eV)
     5       5       --        49.970 au  C             1.00      5 S               1
                        (    1359.766 eV)
     6       6      0.667      -0.189 au  C             1.00      1 P:x             1
                        (      -5.135 eV)
     7       7       --         0.168 au  C             1.00      2 P:x             1
                        (       4.559 eV)
     8       8       --         2.056 au  C             1.00      3 P:x             1
                        (      55.959 eV)
     9       9      0.667      -0.189 au  C             1.00      1 P:y             1
                        (      -5.135 eV)
    10      10       --         0.168 au  C             1.00      2 P:y             1
                        (       4.559 eV)
    11      11       --         2.056 au  C             1.00      3 P:y             1
                        (      55.959 eV)
    12      12      0.667      -0.189 au  C             1.00      1 P:z             1
                        (      -5.135 eV)
    13      13       --         0.168 au  C             1.00      2 P:z             1
                        (       4.559 eV)
    14      14       --         2.056 au  C             1.00      3 P:z             1
                        (      55.959 eV)
    15      15       --         1.235 au  C             1.00      1 D:z2            1
                        (      33.605 eV)
    16      16       --         1.235 au  C             1.00      1 D:x2-y2         1
                        (      33.605 eV)
    17      17       --         1.235 au  C             1.00      1 D:xy            1
                        (      33.605 eV)
    18      18       --         1.235 au  C             1.00      1 D:xz            1
                        (      33.605 eV)
    19      19       --         1.235 au  C             1.00      1 D:yz            1
                        (      33.605 eV)
    20      20       --         4.005 au  C             1.00      1 F:z3            1
                        (     108.969 eV)
    21      21       --         4.005 au  C             1.00      1 F:z             1
                        (     108.969 eV)
    22      22       --         4.005 au  C             1.00      1 F:xyz           1
                        (     108.969 eV)
    23      23       --         4.005 au  C             1.00      1 F:z2x           1
                        (     108.969 eV)
    24      24       --         4.005 au  C             1.00      1 F:z2y           1
                        (     108.969 eV)
    25      25       --         4.005 au  C             1.00      1 F:x             1
                        (     108.969 eV)
    26      26       --         4.005 au  C             1.00      1 F:y             1
                        (     108.969 eV)
    27      27      2.000     -10.064 au  C             1.00      1 S               2
                        (    -273.865 eV)
    28      28      2.000      -0.507 au  C             1.00      2 S               2
                        (     -13.802 eV)
    29      29       --         0.384 au  C             1.00      3 S               2
                        (      10.456 eV)
    30      30       --         5.458 au  C             1.00      4 S               2
                        (     148.511 eV)
    31      31       --        49.970 au  C             1.00      5 S               2
                        (    1359.766 eV)
    32      32      0.667      -0.189 au  C             1.00      1 P:x             2
                        (      -5.135 eV)
    33      33       --         0.168 au  C             1.00      2 P:x             2
                        (       4.559 eV)
    34      34       --         2.056 au  C             1.00      3 P:x             2
                        (      55.959 eV)
    35      35      0.667      -0.189 au  C             1.00      1 P:y             2
                        (      -5.135 eV)
    36      36       --         0.168 au  C             1.00      2 P:y             2
                        (       4.559 eV)
    37      37       --         2.056 au  C             1.00      3 P:y             2
                        (      55.959 eV)
    38      38      0.667      -0.189 au  C             1.00      1 P:z             2
                        (      -5.135 eV)
    39      39       --         0.168 au  C             1.00      2 P:z             2
                        (       4.559 eV)
    40      40       --         2.056 au  C             1.00      3 P:z             2
                        (      55.959 eV)
    41      41       --         1.235 au  C             1.00      1 D:z2            2
                        (      33.605 eV)
    42      42       --         1.235 au  C             1.00      1 D:x2-y2         2
                        (      33.605 eV)
    43      43       --         1.235 au  C             1.00      1 D:xy            2
                        (      33.605 eV)
    44      44       --         1.235 au  C             1.00      1 D:xz            2
                        (      33.605 eV)
    45      45       --         1.235 au  C             1.00      1 D:yz            2
                        (      33.605 eV)
    46      46       --         4.005 au  C             1.00      1 F:z3            2
                        (     108.969 eV)
    47      47       --         4.005 au  C             1.00      1 F:z             2
                        (     108.969 eV)
    48      48       --         4.005 au  C             1.00      1 F:xyz           2
                        (     108.969 eV)
    49      49       --         4.005 au  C             1.00      1 F:z2x           2
                        (     108.969 eV)
    50      50       --         4.005 au  C             1.00      1 F:z2y           2
                        (     108.969 eV)
    51      51       --         4.005 au  C             1.00      1 F:x             2
                        (     108.969 eV)
    52      52       --         4.005 au  C             1.00      1 F:y             2
                        (     108.969 eV)
    53      53      2.000     -10.064 au  C             1.00      1 S               3
                        (    -273.865 eV)
    54      54      2.000      -0.507 au  C             1.00      2 S               3
                        (     -13.802 eV)
    55      55       --         0.384 au  C             1.00      3 S               3
                        (      10.456 eV)
    56      56       --         5.458 au  C             1.00      4 S               3
                        (     148.511 eV)
    57      57       --        49.970 au  C             1.00      5 S               3
                        (    1359.766 eV)
    58      58      0.667      -0.189 au  C             1.00      1 P:x             3
                        (      -5.135 eV)
    59      59       --         0.168 au  C             1.00      2 P:x             3
                        (       4.559 eV)
    60      60       --         2.056 au  C             1.00      3 P:x             3
                        (      55.959 eV)
    61      61      0.667      -0.189 au  C             1.00      1 P:y             3
                        (      -5.135 eV)
    62      62       --         0.168 au  C             1.00      2 P:y             3
                        (       4.559 eV)
    63      63       --         2.056 au  C             1.00      3 P:y             3
                        (      55.959 eV)
    64      64      0.667      -0.189 au  C             1.00      1 P:z             3
                        (      -5.135 eV)
    65      65       --         0.168 au  C             1.00      2 P:z             3
                        (       4.559 eV)
    66      66       --         2.056 au  C             1.00      3 P:z             3
                        (      55.959 eV)
    67      67       --         1.235 au  C             1.00      1 D:z2            3
                        (      33.605 eV)
    68      68       --         1.235 au  C             1.00      1 D:x2-y2         3
                        (      33.605 eV)
    69      69       --         1.235 au  C             1.00      1 D:xy            3
                        (      33.605 eV)
    70      70       --         1.235 au  C             1.00      1 D:xz            3
                        (      33.605 eV)
    71      71       --         1.235 au  C             1.00      1 D:yz            3
                        (      33.605 eV)
    72      72       --         4.005 au  C             1.00      1 F:z3            3
                        (     108.969 eV)
    73      73       --         4.005 au  C             1.00      1 F:z             3
                        (     108.969 eV)
    74      74       --         4.005 au  C             1.00      1 F:xyz           3
                        (     108.969 eV)
    75      75       --         4.005 au  C             1.00      1 F:z2x           3
                        (     108.969 eV)
    76      76       --         4.005 au  C             1.00      1 F:z2y           3
                        (     108.969 eV)
    77      77       --         4.005 au  C             1.00      1 F:x             3
                        (     108.969 eV)
    78      78       --         4.005 au  C             1.00      1 F:y             3
                        (     108.969 eV)
    79      79      2.000     -10.064 au  C             1.00      1 S               4
                        (    -273.865 eV)
    80      80      2.000      -0.507 au  C             1.00      2 S               4
                        (     -13.802 eV)
    81      81       --         0.384 au  C             1.00      3 S               4
                        (      10.456 eV)
    82      82       --         5.458 au  C             1.00      4 S               4
                        (     148.511 eV)
    83      83       --        49.970 au  C             1.00      5 S               4
                        (    1359.766 eV)
    84      84      0.667      -0.189 au  C             1.00      1 P:x             4
                        (      -5.135 eV)
    85      85       --         0.168 au  C             1.00      2 P:x             4
                        (       4.559 eV)
    86      86       --         2.056 au  C             1.00      3 P:x             4
                        (      55.959 eV)
    87      87      0.667      -0.189 au  C             1.00      1 P:y             4
                        (      -5.135 eV)
    88      88       --         0.168 au  C             1.00      2 P:y             4
                        (       4.559 eV)
    89      89       --         2.056 au  C             1.00      3 P:y             4
                        (      55.959 eV)
    90      90      0.667      -0.189 au  C             1.00      1 P:z             4
                        (      -5.135 eV)
    91      91       --         0.168 au  C             1.00      2 P:z             4
                        (       4.559 eV)
    92      92       --         2.056 au  C             1.00      3 P:z             4
                        (      55.959 eV)
    93      93       --         1.235 au  C             1.00      1 D:z2            4
                        (      33.605 eV)
    94      94       --         1.235 au  C             1.00      1 D:x2-y2         4
                        (      33.605 eV)
    95      95       --         1.235 au  C             1.00      1 D:xy            4
                        (      33.605 eV)
    96      96       --         1.235 au  C             1.00      1 D:xz            4
                        (      33.605 eV)
    97      97       --         1.235 au  C             1.00      1 D:yz            4
                        (      33.605 eV)
    98      98       --         4.005 au  C             1.00      1 F:z3            4
                        (     108.969 eV)
    99      99       --         4.005 au  C             1.00      1 F:z             4
                        (     108.969 eV)
   100     100       --         4.005 au  C             1.00      1 F:xyz           4
                        (     108.969 eV)
   101     101       --         4.005 au  C             1.00      1 F:z2x           4
                        (     108.969 eV)
   102     102       --         4.005 au  C             1.00      1 F:z2y           4
                        (     108.969 eV)
   103     103       --         4.005 au  C             1.00      1 F:x             4
                        (     108.969 eV)
   104     104       --         4.005 au  C             1.00      1 F:y             4
                        (     108.969 eV)
   105     105      1.000      -0.238 au  H             1.00      1 S               5
                        (      -6.484 eV)
   106     106       --         0.077 au  H             1.00      2 S               5
                        (       2.096 eV)
   107     107       --         1.521 au  H             1.00      3 S               5
                        (      41.380 eV)
   108     108       --         0.410 au  H             1.00      1 P:x             5
                        (      11.162 eV)
   109     109       --         0.410 au  H             1.00      1 P:y             5
                        (      11.162 eV)
   110     110       --         0.410 au  H             1.00      1 P:z             5
                        (      11.162 eV)
   111     111       --         2.567 au  H             1.00      1 D:z2            5
                        (      69.838 eV)
   112     112       --         2.567 au  H             1.00      1 D:x2-y2         5
                        (      69.838 eV)
   113     113       --         2.567 au  H             1.00      1 D:xy            5
                        (      69.838 eV)
   114     114       --         2.567 au  H             1.00      1 D:xz            5
                        (      69.838 eV)
   115     115       --         2.567 au  H             1.00      1 D:yz            5
                        (      69.838 eV)
   116     116      1.000      -0.238 au  H             1.00      1 S               6
                        (      -6.484 eV)
   117     117       --         0.077 au  H             1.00      2 S               6
                        (       2.096 eV)
   118     118       --         1.521 au  H             1.00      3 S               6
                        (      41.380 eV)
   119     119       --         0.410 au  H             1.00      1 P:x             6
                        (      11.162 eV)
   120     120       --         0.410 au  H             1.00      1 P:y             6
                        (      11.162 eV)
   121     121       --         0.410 au  H             1.00      1 P:z             6
                        (      11.162 eV)
   122     122       --         2.567 au  H             1.00      1 D:z2            6
                        (      69.838 eV)
   123     123       --         2.567 au  H             1.00      1 D:x2-y2         6
                        (      69.838 eV)
   124     124       --         2.567 au  H             1.00      1 D:xy            6
                        (      69.838 eV)
   125     125       --         2.567 au  H             1.00      1 D:xz            6
                        (      69.838 eV)
   126     126       --         2.567 au  H             1.00      1 D:yz            6
                        (      69.838 eV)
   127     127      1.000      -0.238 au  H             1.00      1 S               7
                        (      -6.484 eV)
   128     128       --         0.077 au  H             1.00      2 S               7
                        (       2.096 eV)
   129     129       --         1.521 au  H             1.00      3 S               7
                        (      41.380 eV)
   130     130       --         0.410 au  H             1.00      1 P:x             7
                        (      11.162 eV)
   131     131       --         0.410 au  H             1.00      1 P:y             7
                        (      11.162 eV)
   132     132       --         0.410 au  H             1.00      1 P:z             7
                        (      11.162 eV)
   133     133       --         2.567 au  H             1.00      1 D:z2            7
                        (      69.838 eV)
   134     134       --         2.567 au  H             1.00      1 D:x2-y2         7
                        (      69.838 eV)
   135     135       --         2.567 au  H             1.00      1 D:xy            7
                        (      69.838 eV)
   136     136       --         2.567 au  H             1.00      1 D:xz            7
                        (      69.838 eV)
   137     137       --         2.567 au  H             1.00      1 D:yz            7
                        (      69.838 eV)
   138     138      1.000      -0.238 au  H             1.00      1 S               8
                        (      -6.484 eV)
   139     139       --         0.077 au  H             1.00      2 S               8
                        (       2.096 eV)
   140     140       --         1.521 au  H             1.00      3 S               8
                        (      41.380 eV)
   141     141       --         0.410 au  H             1.00      1 P:x             8
                        (      11.162 eV)
   142     142       --         0.410 au  H             1.00      1 P:y             8
                        (      11.162 eV)
   143     143       --         0.410 au  H             1.00      1 P:z             8
                        (      11.162 eV)
   144     144       --         2.567 au  H             1.00      1 D:z2            8
                        (      69.838 eV)
   145     145       --         2.567 au  H             1.00      1 D:x2-y2         8
                        (      69.838 eV)
   146     146       --         2.567 au  H             1.00      1 D:xy            8
                        (      69.838 eV)
   147     147       --         2.567 au  H             1.00      1 D:xz            8
                        (      69.838 eV)
   148     148       --         2.567 au  H             1.00      1 D:yz            8
                        (      69.838 eV)
   149     149      1.000      -0.238 au  H             1.00      1 S               9
                        (      -6.484 eV)
   150     150       --         0.077 au  H             1.00      2 S               9
                        (       2.096 eV)
   151     151       --         1.521 au  H             1.00      3 S               9
                        (      41.380 eV)
   152     152       --         0.410 au  H             1.00      1 P:x             9
                        (      11.162 eV)
   153     153       --         0.410 au  H             1.00      1 P:y             9
                        (      11.162 eV)
   154     154       --         0.410 au  H             1.00      1 P:z             9
                        (      11.162 eV)
   155     155       --         2.567 au  H             1.00      1 D:z2            9
                        (      69.838 eV)
   156     156       --         2.567 au  H             1.00      1 D:x2-y2         9
                        (      69.838 eV)
   157     157       --         2.567 au  H             1.00      1 D:xy            9
                        (      69.838 eV)
   158     158       --         2.567 au  H             1.00      1 D:xz            9
                        (      69.838 eV)
   159     159       --         2.567 au  H             1.00      1 D:yz            9
                        (      69.838 eV)
   160     160      2.000     -18.926 au  O             1.00      1 S              10
                        (    -515.001 eV)
   161     161      2.000      -0.887 au  O             1.00      2 S              10
                        (     -24.136 eV)
   162     162       --         0.804 au  O             1.00      3 S              10
                        (      21.890 eV)
   163     163       --        13.488 au  O             1.00      4 S              10
                        (     367.032 eV)
   164     164       --       121.767 au  O             1.00      5 S              10
                        (    3313.451 eV)
   165     165      1.333      -0.329 au  O             1.00      1 P:x            10
                        (      -8.949 eV)
   166     166       --         0.351 au  O             1.00      2 P:x            10
                        (       9.557 eV)
   167     167       --         3.863 au  O             1.00      3 P:x            10
                        (     105.120 eV)
   168     168      1.333      -0.329 au  O             1.00      1 P:y            10
                        (      -8.949 eV)
   169     169       --         0.351 au  O             1.00      2 P:y            10
                        (       9.557 eV)
   170     170       --         3.863 au  O             1.00      3 P:y            10
                        (     105.120 eV)
   171     171      1.333      -0.329 au  O             1.00      1 P:z            10
                        (      -8.949 eV)
   172     172       --         0.351 au  O             1.00      2 P:z            10
                        (       9.557 eV)
   173     173       --         3.863 au  O             1.00      3 P:z            10
                        (     105.120 eV)
   174     174       --         1.072 au  O             1.00      1 D:z2           10
                        (      29.175 eV)
   175     175       --         1.072 au  O             1.00      1 D:x2-y2        10
                        (      29.175 eV)
   176     176       --         1.072 au  O             1.00      1 D:xy           10
                        (      29.175 eV)
   177     177       --         1.072 au  O             1.00      1 D:xz           10
                        (      29.175 eV)
   178     178       --         1.072 au  O             1.00      1 D:yz           10
                        (      29.175 eV)
   179     179       --         3.353 au  O             1.00      1 F:z3           10
                        (      91.230 eV)
   180     180       --         3.353 au  O             1.00      1 F:z            10
                        (      91.230 eV)
   181     181       --         3.353 au  O             1.00      1 F:xyz          10
                        (      91.230 eV)
   182     182       --         3.353 au  O             1.00      1 F:z2x          10
                        (      91.230 eV)
   183     183       --         3.353 au  O             1.00      1 F:z2y          10
                        (      91.230 eV)
   184     184       --         3.353 au  O             1.00      1 F:x            10
                        (      91.230 eV)
   185     185       --         3.353 au  O             1.00      1 F:y            10
                        (      91.230 eV)
   186     186      2.000     -24.380 au  F             1.00      1 S              11
                        (    -663.424 eV)
   187     187      2.000      -1.107 au  F             1.00      2 S              11
                        (     -30.122 eV)
   188     188       --         0.011 au  F             1.00      3 S              11
                        (       0.309 eV)
   189     189       --         1.586 au  F             1.00      4 S              11
                        (      43.147 eV)
   190     190       --        47.962 au  F             1.00      5 S              11
                        (    1305.109 eV)
   191     191      1.667      -0.407 au  F             1.00      1 P:x            11
                        (     -11.083 eV)
   192     192       --         0.433 au  F             1.00      2 P:x            11
                        (      11.793 eV)
   193     193       --         4.596 au  F             1.00      3 P:x            11
                        (     125.057 eV)
   194     194      1.667      -0.407 au  F             1.00      1 P:y            11
                        (     -11.083 eV)
   195     195       --         0.433 au  F             1.00      2 P:y            11
                        (      11.793 eV)
   196     196       --         4.596 au  F             1.00      3 P:y            11
                        (     125.057 eV)
   197     197      1.667      -0.407 au  F             1.00      1 P:z            11
                        (     -11.083 eV)
   198     198       --         0.433 au  F             1.00      2 P:z            11
                        (      11.793 eV)
   199     199       --         4.596 au  F             1.00      3 P:z            11
                        (     125.057 eV)
   200     200       --         1.123 au  F             1.00      1 D:z2           11
                        (      30.566 eV)
   201     201       --         1.123 au  F             1.00      1 D:x2-y2        11
                        (      30.566 eV)
   202     202       --         1.123 au  F             1.00      1 D:xy           11
                        (      30.566 eV)
   203     203       --         1.123 au  F             1.00      1 D:xz           11
                        (      30.566 eV)
   204     204       --         1.123 au  F             1.00      1 D:yz           11
                        (      30.566 eV)
   205     205       --         3.416 au  F             1.00      1 F:z3           11
                        (      92.960 eV)
   206     206       --         3.416 au  F             1.00      1 F:z            11
                        (      92.960 eV)
   207     207       --         3.416 au  F             1.00      1 F:xyz          11
                        (      92.960 eV)
   208     208       --         3.416 au  F             1.00      1 F:z2x          11
                        (      92.960 eV)
   209     209       --         3.416 au  F             1.00      1 F:z2y          11
                        (      92.960 eV)
   210     210       --         3.416 au  F             1.00      1 F:x            11
                        (      92.960 eV)
   211     211       --         3.416 au  F             1.00      1 F:y            11
                        (      92.960 eV)
   212     212      2.000     -24.380 au  F             1.00      1 S              12
                        (    -663.424 eV)
   213     213      2.000      -1.107 au  F             1.00      2 S              12
                        (     -30.122 eV)
   214     214       --         0.011 au  F             1.00      3 S              12
                        (       0.309 eV)
   215     215       --         1.586 au  F             1.00      4 S              12
                        (      43.147 eV)
   216     216       --        47.962 au  F             1.00      5 S              12
                        (    1305.109 eV)
   217     217      1.667      -0.407 au  F             1.00      1 P:x            12
                        (     -11.083 eV)
   218     218       --         0.433 au  F             1.00      2 P:x            12
                        (      11.793 eV)
   219     219       --         4.596 au  F             1.00      3 P:x            12
                        (     125.057 eV)
   220     220      1.667      -0.407 au  F             1.00      1 P:y            12
                        (     -11.083 eV)
   221     221       --         0.433 au  F             1.00      2 P:y            12
                        (      11.793 eV)
   222     222       --         4.596 au  F             1.00      3 P:y            12
                        (     125.057 eV)
   223     223      1.667      -0.407 au  F             1.00      1 P:z            12
                        (     -11.083 eV)
   224     224       --         0.433 au  F             1.00      2 P:z            12
                        (      11.793 eV)
   225     225       --         4.596 au  F             1.00      3 P:z            12
                        (     125.057 eV)
   226     226       --         1.123 au  F             1.00      1 D:z2           12
                        (      30.566 eV)
   227     227       --         1.123 au  F             1.00      1 D:x2-y2        12
                        (      30.566 eV)
   228     228       --         1.123 au  F             1.00      1 D:xy           12
                        (      30.566 eV)
   229     229       --         1.123 au  F             1.00      1 D:xz           12
                        (      30.566 eV)
   230     230       --         1.123 au  F             1.00      1 D:yz           12
                        (      30.566 eV)
   231     231       --         3.416 au  F             1.00      1 F:z3           12
                        (      92.960 eV)
   232     232       --         3.416 au  F             1.00      1 F:z            12
                        (      92.960 eV)
   233     233       --         3.416 au  F             1.00      1 F:xyz          12
                        (      92.960 eV)
   234     234       --         3.416 au  F             1.00      1 F:z2x          12
                        (      92.960 eV)
   235     235       --         3.416 au  F             1.00      1 F:z2y          12
                        (      92.960 eV)
   236     236       --         3.416 au  F             1.00      1 F:x            12
                        (      92.960 eV)
   237     237       --         3.416 au  F             1.00      1 F:y            12
                        (      92.960 eV)



 ================================
 (Slater-type)  F U N C T I O N S  ***  (Basis and Fit)  ***
 ================================
  

 Atom Type    1  (C)
 ==============

 Valence Basis Sets:  10
 -----------------------
   1 S    7.680000
   1 S    5.000000
   2 S    1.280000
   2 S    2.100000
   2 S    4.600000
   2 P    0.820000
   2 P    1.480000
   2 P    2.940000
   3 D    2.200000
   4 F    3.300000

 Atom Type    2  (H)
 ==============

 Valence Basis Sets:   5
 -----------------------
   1 S    0.690000
   1 S    0.920000
   1 S    1.580000
   2 P    1.250000
   3 D    2.500000

 Atom Type    3  (O)
 ==============

 Valence Basis Sets:  10
 -----------------------
   1 S    9.800000
   1 S    6.800000
   2 S    7.580000
   2 S    2.880000
   2 S    1.720000
   2 P    4.080000
   2 P    2.080000
   2 P    1.120000
   3 D    2.000000
   4 F    3.000000

 Atom Type    4  (F)
 ==============

 Valence Basis Sets:  10
 -----------------------
   1 S   10.880000
   1 S    7.700000
   2 S    3.240000
   2 S    1.940000
   2 S    0.740000
   2 P    4.540000
   2 P    2.300000
   2 P    1.240000
   3 D    2.000000
   4 F    3.000000


 BAS: List of all Elementary Cartesian Basis Functions
 =====================================================

 The numbering in the list below (to the right of the function characteristics) is referred
 to in print-outs of MO eigenvectors and Mulliken populations in the BAS representation
 (as contrasted to the SFO representation).

 Notes:
 1. The functions are characterized by a polynomial prefactor (powers of x,y,z and r) and
    an exponential decay factor alpha.
 2. Since the basis sets are specific for an atom TYPE, the individual functions occur on
    all atoms of that type.
 3. The word 'Core' in the left margin signals that it is a Core Function (CF) : not a
    degree of freedom in the valence set, but only used to ensure orthogonalization of
    the other valence basis functions on the frozen Core Orbitals.


 (power of) X  Y  Z  R     Alpha  on Atom
            ==========     =====     ==========

 C                                    1    2    3    4
                                  ---------------------------------------------------------------------------
            0  0  0  0     7.680      1   31   61   91
            0  0  0  0     5.000      2   32   62   92
            0  0  0  1     1.280      3   33   63   93
            0  0  0  1     2.100      4   34   64   94
            0  0  0  1     4.600      5   35   65   95
            1  0  0  0     0.820      6   36   66   96
            0  1  0  0     0.820      7   37   67   97
            0  0  1  0     0.820      8   38   68   98
            1  0  0  0     1.480      9   39   69   99
            0  1  0  0     1.480     10   40   70  100
            0  0  1  0     1.480     11   41   71  101
            1  0  0  0     2.940     12   42   72  102
            0  1  0  0     2.940     13   43   73  103
            0  0  1  0     2.940     14   44   74  104
            2  0  0  0     2.200     15   45   75  105
            1  1  0  0     2.200     16   46   76  106
            1  0  1  0     2.200     17   47   77  107
            0  2  0  0     2.200     18   48   78  108
            0  1  1  0     2.200     19   49   79  109
            0  0  2  0     2.200     20   50   80  110
            3  0  0  0     3.300     21   51   81  111
            2  1  0  0     3.300     22   52   82  112
            2  0  1  0     3.300     23   53   83  113
            1  2  0  0     3.300     24   54   84  114
            1  1  1  0     3.300     25   55   85  115
            1  0  2  0     3.300     26   56   86  116
            0  3  0  0     3.300     27   57   87  117
            0  2  1  0     3.300     28   58   88  118
            0  1  2  0     3.300     29   59   89  119
            0  0  3  0     3.300     30   60   90  120

 H                                    5    6    7    8    9
                                  ---------------------------------------------------------------------------
            0  0  0  0     0.690    121  133  145  157  169
            0  0  0  0     0.920    122  134  146  158  170
            0  0  0  0     1.580    123  135  147  159  171
            1  0  0  0     1.250    124  136  148  160  172
            0  1  0  0     1.250    125  137  149  161  173
            0  0  1  0     1.250    126  138  150  162  174
            2  0  0  0     2.500    127  139  151  163  175
            1  1  0  0     2.500    128  140  152  164  176
            1  0  1  0     2.500    129  141  153  165  177
            0  2  0  0     2.500    130  142  154  166  178
            0  1  1  0     2.500    131  143  155  167  179
            0  0  2  0     2.500    132  144  156  168  180

 O                                   10
                                  ---------------------------------------------------------------------------
            0  0  0  0     9.800    181
            0  0  0  0     6.800    182
            0  0  0  1     7.580    183
            0  0  0  1     2.880    184
            0  0  0  1     1.720    185
            1  0  0  0     4.080    186
            0  1  0  0     4.080    187
            0  0  1  0     4.080    188
            1  0  0  0     2.080    189
            0  1  0  0     2.080    190
            0  0  1  0     2.080    191
            1  0  0  0     1.120    192
            0  1  0  0     1.120    193
            0  0  1  0     1.120    194
            2  0  0  0     2.000    195
            1  1  0  0     2.000    196
            1  0  1  0     2.000    197
            0  2  0  0     2.000    198
            0  1  1  0     2.000    199
            0  0  2  0     2.000    200
            3  0  0  0     3.000    201
            2  1  0  0     3.000    202
            2  0  1  0     3.000    203
            1  2  0  0     3.000    204
            1  1  1  0     3.000    205
            1  0  2  0     3.000    206
            0  3  0  0     3.000    207
            0  2  1  0     3.000    208
            0  1  2  0     3.000    209
            0  0  3  0     3.000    210

 F                                   11   12
                                  ---------------------------------------------------------------------------
            0  0  0  0    10.880    211  241
            0  0  0  0     7.700    212  242
            0  0  0  1     3.240    213  243
            0  0  0  1     1.940    214  244
            0  0  0  1     0.740    215  245
            1  0  0  0     4.540    216  246
            0  1  0  0     4.540    217  247
            0  0  1  0     4.540    218  248
            1  0  0  0     2.300    219  249
            0  1  0  0     2.300    220  250
            0  0  1  0     2.300    221  251
            1  0  0  0     1.240    222  252
            0  1  0  0     1.240    223  253
            0  0  1  0     1.240    224  254
            2  0  0  0     2.000    225  255
            1  1  0  0     2.000    226  256
            1  0  1  0     2.000    227  257
            0  2  0  0     2.000    228  258
            0  1  1  0     2.000    229  259
            0  0  2  0     2.000    230  260
            3  0  0  0     3.000    231  261
            2  1  0  0     3.000    232  262
            2  0  1  0     3.000    233  263
            1  2  0  0     3.000    234  264
[...]
                                    9.05%     2 S             -13.802  2.00     3 C
                                    7.85%     2 P:z             4.559  0.00     3 C
                                   -6.15%     3 S              10.456  0.00     2 C
                                    5.80%     1 S              -6.484  1.00     8 H
                                    5.40%     2 S             -13.802  2.00     2 C
                                    5.34%     1 P:x            -5.135  0.67     2 C
                                    5.32%     1 S              -6.484  1.00     7 H
                                   -5.31%     3 S              10.456  0.00     3 C
                                    5.06%     1 P:x            -5.135  0.67     1 C
                                   -3.50%     2 S               2.096  0.00     7 H
                                    2.70%     1 P:y            -5.135  0.67     3 C
                                    2.63%     1 P:y           -11.083  1.67    12 F
                                   -2.53%     2 S               2.096  0.00     6 H
                                    2.34%     1 S              -6.484  1.00     6 H
                                    2.13%     2 S             -13.802  2.00     1 C
                                   -1.78%     3 S              41.380  0.00     7 H
                                   -1.67%     2 S               2.096  0.00     5 H
                                    1.53%     1 P:y            -5.135  0.67     1 C
                                    1.45%     2 P:x             4.559  0.00     1 C
                                   -1.39%     2 P:x             4.559  0.00     3 C
                                   -1.32%     1 P:x            -5.135  0.67     3 C
                                   -1.12%     2 P:y             4.559  0.00     1 C
                                    1.02%     2 P:z             4.559  0.00     1 C
       3.828  0.00    40 A         17.23%     2 P:y             4.559  0.00     4 C
                                   17.07%     2 P:z             4.559  0.00     2 C
                                   15.80%     1 P:y            -5.135  0.67     3 C
                                   13.75%     1 P:y            -5.135  0.67     4 C
                                   11.99%     2 P:x             4.559  0.00     1 C
                                    8.00%     1 S              -6.484  1.00     9 H
                                   -6.47%     2 P:y             4.559  0.00     1 C
                                    6.37%     2 P:z             4.559  0.00     4 C
                                    5.65%     2 P:y             4.559  0.00     2 C
                                   -3.41%     2 S               2.096  0.00     7 H
                                    3.35%     1 P:y           -11.083  1.67    12 F
                                    2.54%     3 S               0.309  0.00    12 F
                                   -2.48%     3 S              41.380  0.00     9 H
                                    2.46%     1 P:x            -5.135  0.67     1 C
                                   -2.41%     4 S              43.147  0.00    12 F
                                   -2.26%     2 P:y            11.793  0.00    12 F
                                    2.22%     2 P:x             4.559  0.00     2 C
                                   -2.20%     3 S              10.456  0.00     4 C
                                    2.12%     1 P:x            -5.135  0.67     3 C
                                   -1.95%     2 P:x            11.793  0.00    12 F
                                    1.94%     2 S               2.096  0.00     6 H
                                    1.83%     1 P:z            -5.135  0.67     2 C
                                   -1.69%     3 S              41.380  0.00     7 H
                                   -1.56%     3 S              10.456  0.00     1 C
                                   -1.50%     2 P:x             4.559  0.00     3 C
                                    1.47%     1 P:z            -5.135  0.67     4 C
                                    1.41%     1 P:x            -5.135  0.67     2 C
                                   -1.35%     1 P:y            -5.135  0.67     1 C
                                    1.35%     2 S             -30.122  2.00    12 F
                                    1.33%     1 P:y            11.162  0.00     8 H
                                    1.30%     1 S              -6.484  1.00     7 H
                                    1.21%     2 P:z             4.559  0.00     1 C
                                    1.18%     2 S             -13.802  2.00     4 C
                                   -1.00%     2 S             -13.802  2.00     1 C
       4.324  0.00    41 A         15.38%     2 P:z             4.559  0.00     3 C
                                   14.74%     1 P:x            -5.135  0.67     3 C
                                   13.35%     2 P:x             4.559  0.00     1 C
                                   10.24%     2 P:x             4.559  0.00     4 C
                                    7.97%     1 P:z            -5.135  0.67     2 C
                                    7.50%     2 P:x             4.559  0.00     3 C
                                    7.10%     2 P:y             4.559  0.00     3 C
                                    6.43%     1 S              -6.484  1.00     8 H
                                    6.10%     1 P:x            -5.135  0.67     4 C
                                    5.10%     1 P:z            -5.135  0.67     4 C
                                   -5.00%     3 S              21.890  0.00    10 O
                                    4.98%     1 P:y            -5.135  0.67     2 C
                                    4.75%     3 S               0.309  0.00    11 F
                                   -4.73%     3 S              10.456  0.00     1 C
                                   -4.54%     2 P:z             4.559  0.00     1 C
                                   -4.12%     2 P:y            11.793  0.00    12 F
                                    3.91%     2 P:y             4.559  0.00     2 C
                                    3.03%     3 S               0.309  0.00    12 F
                                    2.84%     2 S             -13.802  2.00     1 C
                                   -2.83%     2 P:z             4.559  0.00     2 C
                                   -2.64%     2 P:x            11.793  0.00    11 F
                                   -2.48%     2 P:z             4.559  0.00     4 C
                                    2.36%     2 S             -13.802  2.00     3 C
                                    2.29%     1 P:y           -11.083  1.67    12 F
                                   -1.99%     2 S               2.096  0.00     8 H
                                   -1.84%     3 S              41.380  0.00     8 H
                                   -1.82%     2 P:z             9.557  0.00    10 O
                                    1.81%     2 P:y             9.557  0.00    10 O
                                    1.61%     2 S               2.096  0.00     5 H
                                    1.31%     2 S               2.096  0.00     9 H
                                    1.25%     1 P:z            -5.135  0.67     3 C
                                    1.20%     1 P:x           -11.083  1.67    11 F
                                    1.14%     1 P:y            -8.949  1.33    10 O
                                    1.06%     1 P:z            11.162  0.00     5 H
                                    1.03%     2 P:x             4.559  0.00     2 C
       4.464  0.00    42 A         24.84%     2 P:x             4.559  0.00     1 C
                                   16.07%     3 S               0.309  0.00    12 F
                                   13.79%     1 P:x            -5.135  0.67     3 C
                                   11.65%     1 P:z            -5.135  0.67     4 C
                                   10.97%     1 S              -6.484  1.00     8 H
                                   10.66%     2 S             -13.802  2.00     3 C
                                    9.27%     1 P:y            -5.135  0.67     2 C
                                   -9.13%     2 S               2.096  0.00     8 H
                                   -8.90%     2 P:y             4.559  0.00     2 C
                                   -7.81%     2 P:y            11.793  0.00    12 F
                                    7.61%     1 P:x            -5.135  0.67     4 C
                                    6.92%     2 P:z             4.559  0.00     3 C
                                    6.78%     1 P:x            -5.135  0.67     2 C
                                   -6.43%     3 S              21.890  0.00    10 O
                                   -6.10%     2 P:y             4.559  0.00     3 C
                                    5.47%     1 P:y            -5.135  0.67     1 C
                                    4.65%     2 P:y             4.559  0.00     4 C
                                    4.28%     1 P:y           -11.083  1.67    12 F
                                    3.94%     1 P:y            -5.135  0.67     4 C
                                   -2.95%     2 P:y             4.559  0.00     1 C
                                   -2.87%     2 S               2.096  0.00     5 H
                                    2.75%     1 S              -6.484  1.00     7 H
                                    2.58%     1 P:y            -8.949  1.33    10 O
                                   -2.55%     2 S               2.096  0.00     9 H
                                    2.48%     1 S              -6.484  1.00     9 H
                                    2.44%     2 P:z             4.559  0.00     1 C
                                   -2.28%     2 P:x             4.559  0.00     3 C
                                   -2.16%     4 S              43.147  0.00    12 F
                                    2.07%     1 P:x            -5.135  0.67     1 C
                                    2.03%     2 S             -13.802  2.00     1 C
                                   -2.00%     2 P:x             4.559  0.00     2 C
                                    1.74%     2 P:x             4.559  0.00     4 C
                                   -1.50%     2 S               2.096  0.00     7 H
                                    1.49%     2 S             -30.122  2.00    12 F
                                   -1.41%     2 P:z             4.559  0.00     2 C
                                   -1.38%     3 S               0.309  0.00    11 F
                                    1.36%     1 S              -6.484  1.00     5 H
                                    1.29%     2 S             -24.136  2.00    10 O
                                   -1.20%     3 S              10.456  0.00     1 C

 Energy gradients wrt nuclear displacements
 ==========================================

     Atom      Cartesian (a.u./angstrom)
                 X         Y         Z
 ----------------------------------------
     1 C    -0.000343  0.000256 -0.000058
     2 C    -0.000842 -0.000042  0.000584
     3 H     0.000081  0.000019 -0.000054
     4 C     0.000122 -0.000009  0.000393
     5 H     0.000071 -0.000141 -0.000036
     6 O     0.000219 -0.000225 -0.000132
     7 C     0.000070  0.000075 -0.000431
     8 H     0.000054  0.000015  0.000038
     9 H    -0.000016 -0.000081  0.000048
    10 H    -0.000070  0.000002  0.000091
    11 F     0.000548  0.000008 -0.000318
    12 F     0.000106  0.000123 -0.000124
 ----------------------------------------



 =======================================================================
 Electrostatic potential at the Nuclei due to electrons and other nuclei
 =======================================================================
  
         Atom                  Potential
         ----                  ---------
     1)   C                  14.73021274
     2)   C                  14.67695384
     3)   H                   1.08001214
     4)   C                  14.63499499
     5)   H                   1.05891906
     6)   O                  22.38075389
     7)   C                  14.77036620
     8)   H                   1.09351813
     9)   H                   1.08962988
    10)   H                   1.09500876
    11)   F                  26.65047693
    12)   F                  26.63085554

=============================================================
=== CALCULATE ANALYTICAL SECOND DERIVATIVES OF THE ENERGY ===
=============================================================


-----------------------------------------------
*** RESTART ***
*** CHECKING FOR HESSIAN ON RESTART FILE ***
@@@ WARNING: Cannot find section: Hessian                                                                                                                                                         
*** NO HESSIAN EXISTS ON RESTART FILE ***
*** HESSIAN FROM RESTART FILE IS NOT COMPLETE ***
*** FURTHER CALCULATIONS WILL BE DONE         ***
-----------------------------------------------
                  ------------------------------------------------
                  
                  This Analytical Second Derivatives Progam    
                            was written for ADF by             
                  
                                Stephen K. Wolff               
                  
                         Scientific Computing & Modelling      
                  
                                Vrije University
                              Theoretical Chemistry
                                De Boelelaan 1083
                                1081 HV Amsterdam
                                 The Netherlands
                  
                  ------------------------------------------------
                  
                                    References:                
                                    ===========                
                  
                   Attila Berces, Ross M. Dickson, Liangyou Fan
                   Heiko Jacobsen, David Swerhone, Tom Ziegler,
                   Computer Physics Communications 100 (1997) 247.
                  
                   Heiko Jacobsen, Attila Berces
                   David Swerhone, Tom Ziegler,
                   Computer Physics Communications 100 (1997) 263.
                  
                   Stephen K. Wolff
                   Int. J. Quantum Chem. 104 (2005) 645.
                  
                  ------------------------------------------------
                  
              <><><><><><><><><><><><><><><><><><><><><><><><><>
 
                 SECOND DERIVATIVES INFORMATION:
                 -------------------------------
 
                 === PRINT
 
                   EIGS,  lprint_eigbas =  F
                   U1,    lprint_u1     =  F
                   PARTS, lprint_parts  =  F
 
                 === DEBUG
 
                   ALL        =  F
                   B1         =  F
                   DENSITIES  =  F
                   FIT        =  F
                   HESSIAN    =  F
                   NUMBERS    =  F
                   SYMMETRY   =  F
                   U1         =  F
 
                 === CPKS
 
                   MAX_CPKS_ITERATIONS    =    20
                   U1_ACCURACY PARAMETER  =     5.00
                   U1 ACCURACY            =     0.0000100
 

                 Estimated peak private memory usage    114 MB per process
                                 shared memory usage    925 MB per node

              <><><><><><><><><><><><><><><><><><><><><><><><><>

######## LOOPING OVER NUCLEI ########

==========================
###### NUCLEUS:     1  C  
==========================

====================  solving CPKS equations  ====================

NUCLEUS  COORD.    ITERATION   ACCURACY
-------  ------    ---------   --------
    1       1          1       0.40540769D-01
    1       1          2       0.25325057D-01
    1       1          3       0.76509932D-02
    1       1          4       0.52996170D-02
    1       1          5       0.27253097D-02
    1       1          6       0.35536878D-03
    1       1          7       0.16596850D-03
    1       1          8       0.59921586D-04
    1       1          9       0.22926202D-04
    1       1         10       0.54645356D-05
*** CPKS converged.
----------------------------------------------
    1       2          1       0.17965800D-01
    1       2          2       0.62564268D-02
    1       2          3       0.24163846D-02
    1       2          4       0.95853530D-03
    1       2          5       0.83174049D-03
    1       2          6       0.25942810D-03
    1       2          7       0.11118407D-03
    1       2          8       0.35348450D-04
    1       2          9       0.25805376D-04
    1       2         10       0.11334906D-04
    1       2         11       0.35354417D-05
*** CPKS converged.
----------------------------------------------
    1       3          1       0.98443017D-02
    1       3          2       0.55228687D-02
    1       3          3       0.36769554D-02
    1       3          4       0.10526109D-02
    1       3          5       0.19670157D-03
    1       3          6       0.11529520D-03
    1       3          7       0.43728775D-04
    1       3          8       0.23967936D-04
    1       3          9       0.12659200D-04
    1       3         10       0.25249285D-05
*** CPKS converged.
----------------------------------------------

====================  end of solving CPKS equations  ====================

==========================
###### NUCLEUS:     2  C  
==========================

====================  solving CPKS equations  ====================

NUCLEUS  COORD.    ITERATION   ACCURACY
-------  ------    ---------   --------
    2       1          1       0.45859887D-01
    2       1          2       0.99113472D-02
    2       1          3       0.32423515D-02
    2       1          4       0.10988803D-02
    2       1          5       0.37313389D-03
    2       1          6       0.91806100D-04
    2       1          7       0.57688699D-04
    2       1          8       0.35335497D-04
    2       1          9       0.37607302D-05
*** CPKS converged.
----------------------------------------------
    2       2          1       0.54215496D-01
    2       2          2       0.11747852D-01
    2       2          3       0.27564968D-02
    2       2          4       0.16107580D-02
    2       2          5       0.86700760D-03
    2       2          6       0.22223946D-03
    2       2          7       0.58766242D-04
    2       2          8       0.18694079D-04
    2       2          9       0.10436527D-04
    2       2         10       0.61451337D-05
*** CPKS converged.
----------------------------------------------
    2       3          1       0.39106926D-01
    2       3          2       0.87049287D-02
    2       3          3       0.36894414D-02
    2       3          4       0.18443639D-02
    2       3          5       0.86220173D-03
    2       3          6       0.24689298D-03
    2       3          7       0.63137577D-04
    2       3          8       0.17770502D-04
    2       3          9       0.93008545D-05
*** CPKS converged.
----------------------------------------------

====================  end of solving CPKS equations  ====================

==========================
###### NUCLEUS:     4  C  
==========================

====================  solving CPKS equations  ====================

NUCLEUS  COORD.    ITERATION   ACCURACY
-------  ------    ---------   --------
    4       1          1       0.19074364D+00
    4       1          2       0.29434993D-01
    4       1          3       0.23112306D-01
    4       1          4       0.91083680D-02
