

 Parallel Execution: Process Information
 ==============================================================================
 Rank   Node Name                              NodeID   MyNodeRank  NodeMaster
    0   node115                                   0          0          0
    1   node115                                   0          1         -1
    2   node115                                   0          2         -1
    3   node115                                   0          3         -1
 ==============================================================================


May use up to 122928MB of RAM as shared memory on node 0

 *******************************************************************************
 *                                                                             *
 *  --------------------------------                                           *
 *   Amsterdam Modeling Suite (AMS)              2021.102                      *
 *  --------------------------------                                           *
 *                                               r95042 2021-06-07             *
 *                                                                             *
 *                                                                             *
 *                              =================                              *
 *                              |               |                              *
 *                              |     A M S     |                              *
 *                              |               |                              *
 *                              =================                              *
 *                                                                             *
 *                                                                             *
 *   Online information and documentation:  https://www.scm.com/support/       *
 *   E-mail:  support@scm.com   info@scm.com                                   *
 *                                                                             *
 *   Scientific publications using AMS results must be properly referenced     *
 *   See the User Manuals (or the web site) for recommended citations          *
 *   The terms and conditions of the End User License Agreement apply to       *
 *   the use of AMS, https://www.scm.com/license-terms/                        *
 *                                                                             *
 **********************  x86_64_linux_intel / intelmpi  ************************
 
 Licensed to: VU/FEW (+ SARA) / ALGEMEEN / Amsterdam / THE NETHERLANDS
 SCM User ID: u7668
  
 AMS 2021.102  RunTime: Jan22-2022 23:26:33  ShM Nodes: 1  Procs: 4

 AMS jobname: 31.achiral_catalyst.H_H_SnCl4.Rsub_cat_complex
 AMS jobid  : 846145725

 Start   directory: /scistor/tc/yhk800/MasterProject/calculations/achiral_catalyst_H_H_SnCl4/31.achiral_catalyst.H_H_SnCl4.Rsub_cat_complex/
 Results directory: /scistor/tc/yhk800/MasterProject/calculations/achiral_catalyst_H_H_SnCl4/31.achiral_catalyst.H_H_SnCl4.Rsub_cat_complex/
 Scratch directory: /scratch/3980/amstmp_31.achiral_catalyst.H_H_SnCl4.Rsub_cat_complex_kid0.846145725/


 Communication costs MPI_COMM_WORLD:      0.867 usec per message,   0.0067 usec per 8-byte item
 Communication costs for intra-node:      0.835 usec per message,   0.0068 usec per 8-byte item

 RNG seed: -1798142019 1615315817 318434730 -1352243197 -697887686 1645729461 2006723087 -1712725986



                      ************************************************************************
                      *  ADF 2021.102  RunTime: Jan22-2022 23:26:34  ShM Nodes: 1  Procs: 4  *
                      ************************************************************************
  
       ***************************
       *  GEOMETRY OPTIMIZATION  *
       ***************************

Optimization Method                    Quasi Newton
Optimization Coordinates               Delocalized Coordinates
Optimize lattice                       F
 
 ------------------------------------------------------
 Convergence criteria (Hartree,Angstrom)
 ------------------------------------------------------
 Maximum gradient               0.001000000000
 Maximum rms gradient           0.000666666667
 Maximum step allowed           0.010000000000
 Maximum rms step allowed       0.006666666667
 Maximum energy change allowe   0.000130000000
 Maximum stress energy allowe   0.000500000000
 
Initial model Hessian                  Automatic Hessian
 
------------------------------------
Quasi-Newton Optimizer Parameters
------------------------------------
Hessian Update Method                  BFGS
Maximum number of steps                  250
First GDIIS cycle                          0
Maximum GDIIS vectors                      0
Trust radius (bohr)                        0.200000
Trust radius varies                        T
Constraints converged at all steps         T
Use projector                              T
 
 Rigid motions settings for: old optimizer
 Atomic rotations (x,y,z):     T T T
 Atomic translations (x,y,z):  T T T
 Tolerance:                   1.000000000000000E-006
 
--------
Geometry
--------
Formula: C3H4Cl4OSn
Atoms
  Index Symbol   x (angstrom)   y (angstrom)   z (angstrom)
      1      H     0.09039378    -1.80988465    -0.51555853
      2      C    -0.90781845    -0.00771283    -0.04943451
      3      C     0.18266548    -0.75219647    -0.26512258
      4      C     1.55928918    -0.22013974    -0.18291419
      5      O     1.86635738     0.93365884     0.07180470
      6      H    -0.82431619     1.04491294     0.20242594
      7      H    -1.88982657    -0.42714089    -0.11755322
      8      H     2.32514145    -0.94333367    -0.37095895
      9     Sn     2.11649976     4.00970191     1.24030281
     10     Cl     0.64002612     4.77092770    -0.44753448
     11     Cl     3.95933343     4.40456767    -0.19367032
     12     Cl     3.59297340     3.24847611     2.92814011
     13     Cl     0.27366609     3.61483614     2.67427595
 
Total System Charge             0.00000
 
 
----------------
ADF Engine Input
----------------
 
 NumericalQuality VeryGood
 SCF
 Converge 1.0e-6
 Iterations 99
 End
 SYMMETRY NOSYM
 XC
 GGA OLYP
 End
 basis
 core None
 type TZ2P
 End
 

 Title: *** (NO TITLE) ***

 Using automatic Hessian for delocalized coordinates.
 *** GOStep1 ***

 Energy gradients wrt nuclear displacements
 ==========================================

     Atom      Cartesian (a.u./angstrom)
                 X         Y         Z
 ----------------------------------------
     1 H    -0.001257 -0.001156 -0.000284
     2 C    -0.013672 -0.010119 -0.001912
     3 C    -0.000337  0.002692  0.000708
     4 C     0.033783 -0.026954 -0.007017
     5 O    -0.001290 -0.009859 -0.003754
     6 H     0.000232 -0.001201 -0.000227
     7 H     0.020240  0.008054  0.001204
     8 H    -0.038122  0.033377  0.009054
     9 Sn   -0.002496  0.015228  0.006955
    10 Cl    0.000497 -0.002628 -0.000803
    11 Cl    0.000751 -0.002524 -0.001475
    12 Cl    0.000608 -0.002602 -0.000740
    13 Cl    0.001063 -0.002309 -0.001706
 ----------------------------------------
 Mulliken charges used for AMS results%charges...
 
----------------------------------------------------------------------
Geometry Convergence after Step   1       (Hartree/Angstrom,Angstrom)
----------------------------------------------------------------------
current energy                               -2.17851485 Hartree
energy change                      -2.17851485     0.00013000    F
constrained gradient max            0.03812288     0.00100000    F
constrained gradient rms            0.01217517     0.00066667    F
gradient max                        0.03812288
gradient rms                        0.01217517
cart. step max                      0.02429616     0.01000000    F
cart. step rms                      0.00714895     0.00666667    F
 
 
--------
Geometry
--------
Formula: C3H4Cl4OSn
Atoms
  Index Symbol   x (angstrom)   y (angstrom)   z (angstrom)
      1      H     0.09118088    -1.80907437    -0.51408723
      2      C    -0.91475293    -0.00727614    -0.05042668
      3      C     0.18060461    -0.75160027    -0.26487091
      4      C     1.56112844    -0.22333809    -0.18297973
      5      O     1.86771008     0.93412372     0.07417210
      6      H    -0.83407007     1.04698639     0.19837012
      7      H    -1.90725501    -0.43285465    -0.11773368
      8      H     2.34943761    -0.96229847    -0.37978655
      9     Sn     2.11989322     4.00171533     1.23665281
     10     Cl     0.63990152     4.77723841    -0.44087275
     11     Cl     3.96056847     4.41163452    -0.19345394
     12     Cl     3.59261177     3.25616169     2.93311589
     13     Cl     0.27742627     3.62525498     2.67610328
 
Total System Charge             0.00000
 
 *** GOStep2 ***

 Energy gradients wrt nuclear displacements
 ==========================================

     Atom      Cartesian (a.u./angstrom)
                 X         Y         Z
 ----------------------------------------
     1 H    -0.000450 -0.000337 -0.000197
     2 C    -0.006777 -0.002046 -0.000138
     3 C     0.001141  0.000513 -0.000237
     4 C     0.010998 -0.018571 -0.003600
     5 O     0.000637  0.002927 -0.001102
     6 H     0.000422 -0.000308 -0.000194
     7 H     0.005194  0.002297  0.000480
     8 H    -0.011630  0.010149  0.002711
     9 Sn   -0.001674  0.013318  0.005873
    10 Cl    0.000447 -0.002281 -0.000041
    11 Cl    0.000394 -0.001969 -0.001211
    12 Cl    0.000035 -0.002029 -0.000510
    13 Cl    0.001263 -0.001664 -0.001833
 ----------------------------------------
 Mulliken charges used for AMS results%charges...

 dE(predicted):    -0.10291E-02, dE(actual):    -0.13560E-02, Trust radius:    0.200000, all in a.u.
 
----------------------------------------------------------------------
Geometry Convergence after Step   2       (Hartree/Angstrom,Angstrom)
----------------------------------------------------------------------
current energy                               -2.17987088 Hartree
energy change                      -0.00135603     0.00013000    F
constrained gradient max            0.01857035     0.00100000    F
constrained gradient rms            0.00520643     0.00066667    F
gradient max                        0.01857035
gradient rms                        0.00520643
cart. step max                      0.01269889     0.01000000    F
cart. step rms                      0.00526161     0.00666667    T
 
 
--------
Geometry
--------
Formula: C3H4Cl4OSn
Atoms
  Index Symbol   x (angstrom)   y (angstrom)   z (angstrom)
      1      H     0.09387599    -1.81061800    -0.51197349
      2      C    -0.91794044    -0.01113509    -0.05010237
      3      C     0.17888425    -0.75288609    -0.26414516
      4      C     1.55806745    -0.22073931    -0.18645511
      5      O     1.86331962     0.93405745     0.07458447
      6      H    -0.84212363     1.04309524     0.20179351
      7      H    -1.91448142    -0.44182299    -0.12129906
      8      H     2.36020633    -0.96781214    -0.38608693
      9     Sn     2.12236171     3.99070232     1.23183276
     10     Cl     0.64568478     4.78813496    -0.43807178
     11     Cl     3.96400431     4.41594925    -0.18958879
     12     Cl     3.59283228     3.26179359     2.93569118
     13     Cl     0.27969364     3.63795387     2.67802348
 
Total System Charge             0.00000
 
 *** GOStep3 ***

 Energy gradients wrt nuclear displacements
 ==========================================

     Atom      Cartesian (a.u./angstrom)
                 X         Y         Z
 ----------------------------------------
     1 H    -0.000053 -0.000055  0.000211
     2 C     0.000426  0.000473  0.000135
     3 C     0.000165  0.000726  0.000479
     4 C    -0.000704 -0.004212 -0.002109
     5 O    -0.000229 -0.001186 -0.001362
     6 H     0.000358  0.000067  0.000303
     7 H    -0.001661 -0.000616 -0.000397
     8 H     0.001172 -0.000826  0.000378
     9 Sn   -0.000830  0.010957  0.004702
    10 Cl    0.000594 -0.001683  0.000341
    11 Cl   -0.000167 -0.001428 -0.000523
    12 Cl   -0.000290 -0.001193 -0.000634
    13 Cl    0.001218 -0.001024 -0.001525
 ----------------------------------------
 Mulliken charges used for AMS results%charges...

 dE(predicted):    -0.27815E-03, dE(actual):    -0.35962E-03, Trust radius:    0.200000, all in a.u.
 
----------------------------------------------------------------------
Geometry Convergence after Step   3       (Hartree/Angstrom,Angstrom)
----------------------------------------------------------------------
current energy                               -2.18023050 Hartree
energy change                      -0.00035962     0.00013000    F
constrained gradient max            0.01095726     0.00100000    F
constrained gradient rms            0.00219699     0.00066667    F
gradient max                        0.01095726
gradient rms                        0.00219699
cart. step max                      0.01553985     0.01000000    F
cart. step rms                      0.00619213     0.00666667    T
 
 
--------
Geometry
--------
Formula: C3H4Cl4OSn
Atoms
  Index Symbol   x (angstrom)   y (angstrom)   z (angstrom)
      1      H     0.09655279    -1.81308316    -0.51515682
      2      C    -0.92139122    -0.01610793    -0.05496132
      3      C     0.17729382    -0.75576661    -0.26503694
      4      C     1.55471631    -0.22083876    -0.17919632
      5      O     1.85916023     0.93299635     0.08297970
      6      H    -0.85128547     1.04105115     0.18625367
      7      H    -1.91743538    -0.45291449    -0.11887731
      8      H     2.36231101    -0.96781345    -0.39281935
      9     Sn     2.12557877     3.97937649     1.22824943
     10     Cl     0.64869727     4.79584415    -0.43264027
     11     Cl     3.96564261     4.41923426    -0.18867109
     12     Cl     3.59850537     3.27189332     2.93788251
     13     Cl     0.28603875     3.65280174     2.68619684
 
Total System Charge             0.00000
 
 *** GOStep4 ***

 Energy gradients wrt nuclear displacements
 ==========================================

     Atom      Cartesian (a.u./angstrom)
                 X         Y         Z
 ----------------------------------------
     1 H     0.000071  0.000246 -0.000609
     2 C     0.003032  0.001292  0.000186
     3 C    -0.000488  0.000320 -0.000735
     4 C    -0.005465  0.001036  0.004223
     5 O    -0.000299 -0.002919 -0.003164
     6 H     0.000046  0.000398 -0.000566
     7 H    -0.003251 -0.001641  0.000493
     8 H     0.005750 -0.004694 -0.002249
     9 Sn   -0.000022  0.008635  0.003455
    10 Cl    0.000676 -0.001001  0.000617
    11 Cl   -0.000577 -0.000859  0.000109
    12 Cl   -0.000487 -0.000385 -0.000673
    13 Cl    0.001014 -0.000430 -0.001088
 ----------------------------------------
 Mulliken charges used for AMS results%charges...

 dE(predicted):    -0.11025E-03, dE(actual):    -0.14080E-03, Trust radius:    0.200000, all in a.u.
 
----------------------------------------------------------------------
Geometry Convergence after Step   4       (Hartree/Angstrom,Angstrom)
----------------------------------------------------------------------
current energy                               -2.18037131 Hartree
energy change                      -0.00014080     0.00013000    F
constrained gradient max            0.00863553     0.00100000    F
constrained gradient rms            0.00251354     0.00066667    F
gradient max                        0.00863553
gradient rms                        0.00251354
cart. step max                      0.01977613     0.01000000    F
cart. step rms                      0.00854680     0.00666667    F
 
 
--------
Geometry
--------
Formula: C3H4Cl4OSn
Atoms
  Index Symbol   x (angstrom)   y (angstrom)   z (angstrom)
      1      H     0.10181679    -1.81887643    -0.51006914
      2      C    -0.92581991    -0.02607989    -0.05231628
      3      C     0.17599069    -0.76028802    -0.26425442
      4      C     1.54984390    -0.21565001    -0.18848450
      5      O     1.85279645     0.93590221     0.08203126
      6      H    -0.86319055     1.02879501     0.20023756
      7      H    -1.91986486    -0.46525339    -0.12994165
      8      H     2.36177240    -0.96435560    -0.39989175
      9     Sn     2.12948730     3.96007710     1.21943622
     10     Cl     0.66039462     4.81453850    -0.43067985
     11     Cl     3.97387636     4.42631103    -0.18121004
     12     Cl     3.59864223     3.27897468     2.94206493
     13     Cl     0.28863943     3.67257787     2.68728039
 
Total System Charge             0.00000
 
 *** GOStep5 ***

 Energy gradients wrt nuclear displacements
 ==========================================

     Atom      Cartesian (a.u./angstrom)
                 X         Y         Z
 ----------------------------------------
     1 H     0.000256  0.000036  0.000669
     2 C     0.004032  0.001610  0.000686
     3 C    -0.000784 -0.001197  0.000079
     4 C    -0.008727  0.007544 -0.000215
     5 O    -0.000207 -0.005481 -0.002006
     6 H    -0.000349  0.000056  0.000538
     7 H    -0.003206 -0.001281 -0.001046
     8 H     0.008236 -0.007737 -0.001327
     9 Sn    0.001107  0.004873  0.001793
    10 Cl    0.000648  0.000159  0.000869
    11 Cl   -0.001056  0.000045  0.000939
    12 Cl   -0.000636  0.000847 -0.000631
    13 Cl    0.000686  0.000527 -0.000350
 ----------------------------------------
 Mulliken charges used for AMS results%charges...

 dE(predicted):    -0.13311E-03, dE(actual):    -0.13565E-03, Trust radius:    0.200000, all in a.u.
 
----------------------------------------------------------------------
Geometry Convergence after Step   5       (Hartree/Angstrom,Angstrom)
----------------------------------------------------------------------
current energy                               -2.18050696 Hartree
energy change                      -0.00013565     0.00013000    F
constrained gradient max            0.00872045     0.00100000    F
constrained gradient rms            0.00306237     0.00066667    F
gradient max                        0.00872045
gradient rms                        0.00306237
cart. step max                      0.01052111     0.01000000    F
cart. step rms                      0.00348604     0.00666667    T
 
 
--------
Geometry
--------
Formula: C3H4Cl4OSn
Atoms
  Index Symbol   x (angstrom)   y (angstrom)   z (angstrom)
      1      H     0.10317581    -1.81891700    -0.51401261
      2      C    -0.92662632    -0.02790507    -0.05451703
      3      C     0.17633498    -0.76086270    -0.26548393
      4      C     1.54951184    -0.21560431    -0.18686059
      5      O     1.85096026     0.93572509     0.08636630
      6      H    -0.86521103     1.02757040     0.19526644
      7      H    -1.91812263    -0.46987766    -0.12080964
      8      H     2.35820405    -0.95860348    -0.40445512
      9     Sn     2.12986052     3.94955599     1.21567909
     10     Cl     0.66295956     4.81715090    -0.43133263
     11     Cl     3.97634208     4.42686895    -0.17934444
     12     Cl     3.59848379     3.28219781     2.94504700
     13     Cl     0.28851196     3.67937415     2.68865989
 
Total System Charge             0.00000
 
 *** GOStep6 ***

 Energy gradients wrt nuclear displacements
 ==========================================

     Atom      Cartesian (a.u./angstrom)
                 X         Y         Z
 ----------------------------------------
     1 H     0.000220  0.000171  0.000062
     2 C     0.001734  0.001106 -0.000761
     3 C    -0.000375 -0.001215  0.000092
     4 C    -0.004936  0.004728  0.001238
     5 O    -0.000631 -0.006374 -0.002796
     6 H    -0.000385 -0.000082  0.000318
     7 H    -0.001021 -0.000534  0.000253
     8 H     0.004590 -0.004554 -0.001111
     9 Sn    0.001434  0.003344  0.001100
    10 Cl    0.000433  0.000773  0.000751
    11 Cl   -0.000908  0.000510  0.001000
    12 Cl   -0.000472  0.001234 -0.000294
    13 Cl    0.000316  0.000892  0.000149
 ----------------------------------------
 Mulliken charges used for AMS results%charges...

 dE(predicted):    -0.72957E-04, dE(actual):    -0.10704E-03, Trust radius:    0.200000, all in a.u.
 
----------------------------------------------------------------------
Geometry Convergence after Step   6       (Hartree/Angstrom,Angstrom)
----------------------------------------------------------------------
current energy                               -2.18061400 Hartree
energy change                      -0.00010704     0.00013000    T
constrained gradient max            0.00637160     0.00100000    F
constrained gradient rms            0.00208127     0.00066667    F
gradient max                        0.00637160
gradient rms                        0.00208127
cart. step max                      0.01406620     0.01000000    F
cart. step rms                      0.00435526     0.00666667    T
 
 
--------
Geometry
--------
Formula: C3H4Cl4OSn
Atoms
  Index Symbol   x (angstrom)   y (angstrom)   z (angstrom)
      1      H     0.10358702    -1.81756861    -0.51570927
      2      C    -0.92548529    -0.02980839    -0.04467132
      3      C     0.17780853    -0.76078133    -0.26136721
      4      C     1.55091952    -0.21601434    -0.18302537
      5      O     1.84990183     0.93587071     0.09333310
      6      H    -0.86304070     1.02926751     0.18875573
      7      H    -1.91542258    -0.46627417    -0.12695345
      8      H     2.35338365    -0.94824687    -0.41117661
      9     Sn     2.12838916     3.93548979     1.21098079
     10     Cl     0.66075289     4.81381359    -0.43313322
     11     Cl     3.97638436     4.42588151    -0.18086927
     12     Cl     3.59967090     3.28338803     2.94662876
     13     Cl     0.28753555     3.68165564     2.69141007
 
Total System Charge             0.00000
 
 *** GOStep7 ***

 Energy gradients wrt nuclear displacements
 ==========================================

     Atom      Cartesian (a.u./angstrom)
                 X         Y         Z
 ----------------------------------------
     1 H     0.000053  0.000185 -0.000446
     2 C    -0.001412 -0.001657  0.004151
     3 C     0.000005  0.000034 -0.001309
     4 C     0.002670 -0.002473  0.001138
     5 O    -0.001290 -0.006441 -0.003503
     6 H    -0.000223  0.000242 -0.001861
     7 H     0.001751  0.001188 -0.001103
     8 H    -0.002420  0.001792  0.000130
     9 Sn    0.001537  0.001884  0.000458
    10 Cl   -0.000077  0.001562  0.000309
    11 Cl   -0.000256  0.001065  0.000680
    12 Cl    0.000060  0.001450  0.000460
    13 Cl   -0.000397  0.001167  0.000896
 ----------------------------------------
 Mulliken charges used for AMS results%charges...

 dE(predicted):    -0.80449E-04, dE(actual):    -0.55700E-04, Trust radius:    0.200000, all in a.u.
 
----------------------------------------------------------------------
Geometry Convergence after Step   7       (Hartree/Angstrom,Angstrom)
----------------------------------------------------------------------
current energy                               -2.18066970 Hartree
energy change                      -0.00005570     0.00013000    T
constrained gradient max            0.00643837     0.00100000    F
constrained gradient rms            0.00180587     0.00066667    F
gradient max                        0.00643837
gradient rms                        0.00180587
cart. step max                      0.03233880     0.01000000    F
cart. step rms                      0.00873639     0.00666667    F
 
 
--------
Geometry
--------
Formula: C3H4Cl4OSn
Atoms
  Index Symbol   x (angstrom)   y (angstrom)   z (angstrom)
      1      H     0.10332219    -1.81302451    -0.52383227
      2      C    -0.92357520    -0.02600093    -0.04739298
      3      C     0.17922505    -0.75624025    -0.26923090
      4      C     1.55282553    -0.21310387    -0.18991343
      5      O     1.85062573     0.93859154     0.09120842
      6      H    -0.85750346     1.02456313     0.22109453
      7      H    -1.91253161    -0.46681747    -0.10500631
      8      H     2.35261608    -0.94056034    -0.41828670
      9     Sn     2.12536330     3.92722301     1.20568379
     10     Cl     0.66783509     4.81179436    -0.44668666
     11     Cl     3.98370973     4.42175280    -0.17416170
     12     Cl     3.58735885     3.27731218     2.95245577
     13     Cl     0.27511358     3.68118342     2.67827116
 
Total System Charge             0.00000
 
 *** GOStep8 ***

 Energy gradients wrt nuclear displacements
 ==========================================

     Atom      Cartesian (a.u./angstrom)
                 X         Y         Z
 ----------------------------------------
     1 H    -0.000066 -0.000174  0.000482
     2 C    -0.002924 -0.000565 -0.003542
     3 C     0.000228  0.000612 -0.000027
     4 C     0.006817 -0.007006 -0.000429
     5 O    -0.001569 -0.005942 -0.003186
     6 H     0.000159 -0.000492  0.001260
     7 H     0.002592  0.000977  0.001355
     8 H    -0.006110  0.005267  0.001191
     9 Sn    0.001321  0.001339  0.000492
    10 Cl   -0.000537  0.002005 -0.000218
    11 Cl    0.000378  0.001343  0.000232
    12 Cl    0.000569  0.001398  0.001083
    13 Cl   -0.000857  0.001239  0.001306
 ----------------------------------------
 Mulliken charges used for AMS results%charges...

 dE(predicted):    -0.70565E-04, dE(actual):    -0.40180E-04, Trust radius:    0.200000, all in a.u.
 
----------------------------------------------------------------------
Geometry Convergence after Step   8       (Hartree/Angstrom,Angstrom)
----------------------------------------------------------------------
current energy                               -2.18070988 Hartree
energy change                      -0.00004018     0.00013000    T
constrained gradient max            0.00700455     0.00100000    F
constrained gradient rms            0.00258791     0.00066667    F
gradient max                        0.00700455
gradient rms                        0.00258791
cart. step max                      0.00712600     0.01000000    T
cart. step rms                      0.00261558     0.00666667    T
 
 
--------
Geometry
--------
Formula: C3H4Cl4OSn
Atoms
  Index Symbol   x (angstrom)   y (angstrom)   z (angstrom)
      1      H     0.10365424    -1.81104310    -0.52487413
      2      C    -0.92287379    -0.02555936    -0.04122179
      3      C     0.17961322    -0.75513866    -0.26673592
      4      C     1.55287322    -0.21018181    -0.19368541
      5      O     1.85125761     0.94093342     0.08865282
      6      H    -0.85743829     1.02758051     0.21746780
      7      H    -1.91288074    -0.46733494    -0.09788032
      8      H     2.35572437    -0.94062899    -0.41915107
      9     Sn     2.12451135     3.92794783     1.20591640
     10     Cl     0.66896025     4.81020050    -0.44940735
     11     Cl     3.98505581     4.42026642    -0.17226469
     12     Cl     3.58401275     3.27218932     2.95289681
     13     Cl     0.27191486     3.67744193     2.67448957
 
Total System Charge             0.00000
 
 *** GOStep9 ***

 Energy gradients wrt nuclear displacements
 ==========================================

     Atom      Cartesian (a.u./angstrom)
                 X         Y         Z
 ----------------------------------------
     1 H    -0.000091 -0.000026 -0.000210
     2 C    -0.001366 -0.000305 -0.001837
     3 C     0.000127  0.000243  0.000915
     4 C     0.003729 -0.004123 -0.001622
     5 O    -0.001347 -0.005990 -0.002542
     6 H     0.000121 -0.000128  0.000364
     7 H     0.001108  0.000365  0.000880
     8 H    -0.003150  0.002698  0.001168
     9 Sn    0.001150  0.001805  0.000708
    10 Cl   -0.000568  0.001894 -0.000280
    11 Cl    0.000499  0.001230  0.000097
    12 Cl    0.000635  0.001242  0.001129
    13 Cl   -0.000846  0.001093  0.001230
 ----------------------------------------
 Mulliken charges used for AMS results%charges...

 dE(predicted):    -0.43770E-04, dE(actual):    -0.68759E-04, Trust radius:    0.200000, all in a.u.
 
----------------------------------------------------------------------
Geometry Convergence after Step   9       (Hartree/Angstrom,Angstrom)
----------------------------------------------------------------------
current energy                               -2.18077864 Hartree
energy change                      -0.00006876     0.00013000    T
constrained gradient max            0.00598796     0.00100000    F
constrained gradient rms            0.00177115     0.00066667    F
gradient max                        0.00598796
gradient rms                        0.00177115
cart. step max                      0.02356708     0.01000000    F
cart. step rms                      0.00947101     0.00666667    F
 
 
--------
Geometry
--------
Formula: C3H4Cl4OSn
Atoms
  Index Symbol   x (angstrom)   y (angstrom)   z (angstrom)
      1      H     0.10543791    -1.80068310    -0.53427828
      2      C    -0.91938143    -0.02232326    -0.02051068
      3      C     0.18200960    -0.74788556    -0.26391757
      4      C     1.55452817    -0.20091351    -0.19588333
      5      O     1.85360229     0.94895555     0.09038497
      6      H    -0.85401338     1.03028561     0.24103488
      7      H    -1.91207784    -0.46234155    -0.09072883
      8      H     2.36305784    -0.93115427    -0.43284391
      9     Sn     2.11985216     3.92006983     1.20109940
     10     Cl     0.67210123     4.79617411    -0.46651511
     11     Cl     3.99021766     4.41058979    -0.16861651
     12     Cl     3.57086440     3.25743803     2.95553709
     13     Cl     0.25818624     3.66846139     2.65944061
 
Total System Charge             0.00000
 
 *** GOStep10 ***

 Energy gradients wrt nuclear displacements
 ==========================================

     Atom      Cartesian (a.u./angstrom)
                 X         Y         Z
 ----------------------------------------
     1 H    -0.000157 -0.000096 -0.000289
     2 C     0.001583  0.000077  0.001904
     3 C    -0.000081  0.000331  0.000191
     4 C    -0.001622 -0.000156 -0.000410
     5 O    -0.001088 -0.005939 -0.002673
     6 H     0.000151  0.000371 -0.000703
     7 H    -0.001786 -0.000657 -0.000822
     8 H     0.002095 -0.001314 -0.000135
     9 Sn    0.000543  0.002563  0.001189
    10 Cl   -0.001022  0.002019 -0.000834
    11 Cl    0.001351  0.001177 -0.000614
    12 Cl    0.001227  0.000835  0.001806
    13 Cl   -0.001194  0.000790  0.001390
 ----------------------------------------
 Mulliken charges used for AMS results%charges...

 dE(predicted):    -0.10675E-03, dE(actual):    -0.16807E-03, Trust radius:    0.200000, all in a.u.
 
----------------------------------------------------------------------
Geometry Convergence after Step  10       (Hartree/Angstrom,Angstrom)
----------------------------------------------------------------------
current energy                               -2.18094671 Hartree
energy change                      -0.00016807     0.00013000    F
constrained gradient max            0.00593726     0.00100000    F
constrained gradient rms            0.00152788     0.00066667    F
gradient max                        0.00593726
gradient rms                        0.00152788
cart. step max                      0.03148939     0.01000000    F
cart. step rms                      0.01652878     0.00666667    F
 
 
--------
Geometry
--------
Formula: C3H4Cl4OSn
Atoms
  Index Symbol   x (angstrom)   y (angstrom)   z (angstrom)
      1      H     0.10936706    -1.78142305    -0.54815194
      2      C    -0.91255977    -0.01313073     0.00546704
      3      C     0.18723035    -0.73288503    -0.26202862
      4      C     1.55841575    -0.18300297    -0.20258903
      5      O     1.85752513     0.96510490     0.09195206
      6      H    -0.84679655     1.03821297     0.27252427
      7      H    -1.90654085    -0.45499779    -0.06192285
      8      H     2.37160797    -0.91151989    -0.44715452
      9     Sn     2.11062400     3.89938489     1.19089858
     10     Cl     0.67628917     4.76995090    -0.49555324
     11     Cl     3.99809970     4.39456959    -0.16137536
     12     Cl     3.54741367     3.22716659     2.95891671
     13     Cl     0.23370923     3.64924267     2.63321963
 
Total System Charge             0.00000
 
 *** GOStep11 ***

 Energy gradients wrt nuclear displacements
 ==========================================

     Atom      Cartesian (a.u./angstrom)
                 X         Y         Z
 ----------------------------------------
     1 H    -0.000300 -0.000038 -0.000828
     2 C     0.003478  0.000461  0.003754
     3 C    -0.000024  0.000226  0.000737
     4 C    -0.005069  0.002019 -0.001303
     5 O    -0.001042 -0.005847 -0.002131
     6 H     0.000245  0.000871 -0.001522
     7 H    -0.003726 -0.001517 -0.001398
     8 H     0.005474 -0.003859 -0.000356
     9 Sn   -0.000425  0.003450  0.001847
    10 Cl   -0.001861  0.002418 -0.001809
    11 Cl    0.002887  0.001207 -0.001802
    12 Cl    0.002284  0.000261  0.003078
    13 Cl   -0.001922  0.000348  0.001734
 ----------------------------------------
 Mulliken charges used for AMS results%charges...

 dE(predicted):    -0.20171E-03, dE(actual):    -0.27048E-03, Trust radius:    0.400000, all in a.u.
 
----------------------------------------------------------------------
Geometry Convergence after Step  11       (Hartree/Angstrom,Angstrom)
----------------------------------------------------------------------
current energy                               -2.18121719 Hartree
energy change                      -0.00027048     0.00013000    F
constrained gradient max            0.00584476     0.00100000    F
constrained gradient rms            0.00241805     0.00066667    F
gradient max                        0.00584476
gradient rms                        0.00241805
cart. step max                      0.06300637     0.01000000    F
cart. step rms                      0.02967328     0.00666667    F
 
 
--------
Geometry
--------
Formula: C3H4Cl4OSn
Atoms
  Index Symbol   x (angstrom)   y (angstrom)   z (angstrom)
      1      H     0.12034288    -1.74251852    -0.56568906
      2      C    -0.90077210     0.00962568     0.03960465
      3      C     0.19811855    -0.70019085    -0.25807776
      4      C     1.56666970    -0.14669579    -0.20166751
      5      O     1.86514793     0.99965129     0.10351496
      6      H    -0.83652820     1.05580226     0.32663896
      7      H    -1.89500927    -0.43514257    -0.02937838
      8      H     2.38593031    -0.87074899    -0.45862954
      9     Sn     2.09290357     3.85199091     1.16990195
     10     Cl     0.67301968     4.70694453    -0.54397541
     11     Cl     4.00308967     4.36441145    -0.15766957
     12     Cl     3.51394988     3.16700923     2.95529368
     13     Cl     0.19752226     3.60653443     2.59433576
 
Total System Charge             0.00000
 
 *** GOStep12 ***

 Energy gradients wrt nuclear displacements
 ==========================================

     Atom      Cartesian (a.u./angstrom)
                 X         Y         Z
 ----------------------------------------
     1 H    -0.000437  0.000005 -0.000906
     2 C     0.005129  0.000948  0.005051
     3 C     0.000100  0.000022  0.000481
     4 C    -0.008835  0.003894 -0.000861
     5 O    -0.001216 -0.005798 -0.002063
     6 H     0.000350  0.001436 -0.001711
     7 H    -0.005366 -0.002224 -0.001929
     8 H     0.009184 -0.006659 -0.001244
     9 Sn   -0.002098  0.005399  0.003036
    10 Cl   -0.003156  0.003066 -0.003315
    11 Cl    0.005456  0.001211 -0.003701
    12 Cl    0.003982 -0.000613  0.005170
    13 Cl   -0.003093 -0.000685  0.001990
 ----------------------------------------
 Mulliken charges used for AMS results%charges...

 dE(predicted):    -0.54819E-03, dE(actual):    -0.66560E-03, Trust radius:    0.800000, all in a.u.
 
----------------------------------------------------------------------
Geometry Convergence after Step  12       (Hartree/Angstrom,Angstrom)
----------------------------------------------------------------------
current energy                               -2.18188279 Hartree
energy change                      -0.00066560     0.00013000    F
constrained gradient max            0.00919277     0.00100000    F
constrained gradient rms            0.00370415     0.00066667    F
gradient max                        0.00919277
gradient rms                        0.00370415
cart. step max                      0.14273544     0.01000000    F
cart. step rms                      0.05837257     0.00666667    F
 
 
--------
Geometry
--------
Formula: C3H4Cl4OSn
Atoms
  Index Symbol   x (angstrom)   y (angstrom)   z (angstrom)
      1      H     0.14515837    -1.66375778    -0.58381941
      2      C    -0.87833690     0.06412602     0.08620985
      3      C     0.22055520    -0.62991530    -0.24945131
      4      C     1.58430492    -0.07230302    -0.18627439
      5      O     1.88095518     1.07331950     0.13154031
      6      H    -0.81808309     1.09838116     0.41378175
      7      H    -1.87085309    -0.38697365     0.01499376
      8      H     2.41327624    -0.79004960    -0.45564086
      9     Sn     2.05733498     3.75747566     1.13067239
     10     Cl     0.65098051     4.56420909    -0.62833872
     11     Cl     3.99896690     4.30563738    -0.16289394
     12     Cl     3.46175771     3.04107421     2.93357536
     13     Cl     0.13836792     3.50544940     2.52984794
 
Total System Charge             0.00000
 
 *** GOStep13 ***

 Energy gradients wrt nuclear displacements
 ==========================================

     Atom      Cartesian (a.u./angstrom)
                 X         Y         Z
 ----------------------------------------
     1 H    -0.000582 -0.000016 -0.000298
     2 C     0.006372  0.002073  0.004812
     3 C     0.000088 -0.000694 -0.000979
     4 C    -0.013629  0.005635  0.001075
     5 O    -0.001943 -0.005117 -0.002232
     6 H     0.000442  0.001718 -0.000986
     7 H    -0.006511 -0.002953 -0.001998
     8 H     0.014223 -0.010882 -0.003137
     9 Sn   -0.005620  0.011814  0.006261
    10 Cl   -0.005113  0.003161 -0.005536
    11 Cl    0.009979  0.000768 -0.006967
    12 Cl    0.006641 -0.002580  0.008275
    13 Cl   -0.004347 -0.002927  0.001710
 ----------------------------------------
 Mulliken charges used for AMS results%charges...

 dE(predicted):    -0.13644E-02, dE(actual):    -0.15918E-02, Trust radius:    1.000000, all in a.u.
 
----------------------------------------------------------------------
Geometry Convergence after Step  13       (Hartree/Angstrom,Angstrom)
----------------------------------------------------------------------
current energy                               -2.18347454 Hartree
energy change                      -0.00159175     0.00013000    F
constrained gradient max            0.01422859     0.00100000    F
constrained gradient rms            0.00574846     0.00066667    F
gradient max                        0.01422859
gradient rms                        0.00574846
cart. step max                      0.16890843     0.01000000    F
cart. step rms                      0.07299503     0.00666667    F
 
 
--------
Geometry
--------
Formula: C3H4Cl4OSn
Atoms
  Index Symbol   x (angstrom)   y (angstrom)   z (angstrom)
      1      H     0.17346525    -1.56533207    -0.60697448
      2      C    -0.84769036     0.12807961     0.15418776
      3      C     0.24796726    -0.54503654    -0.23446845
      4      C     1.60436144     0.02017407    -0.17441904
      5      O     1.89519125     1.16495261     0.16192127
      6      H    -0.79008460     1.15051350     0.51795042
      7      H    -1.83980620    -0.32809915     0.07991638
      8      H     2.44736562    -0.68692107    -0.45658821
      9     Sn     2.01351980     3.61849260     1.07388134
     10     Cl     0.63557192     4.39530065    -0.73266970
     11     Cl     3.99147537     4.24322678    -0.15987103
     12     Cl     3.39093385     2.88614073     2.90817819
     13     Cl     0.06211426     3.38518136     2.44315828
 
Total System Charge             0.00000
 
 *** GOStep14 ***

 Energy gradients wrt nuclear displacements
 ==========================================

     Atom      Cartesian (a.u./angstrom)
                 X         Y         Z
 ----------------------------------------
     1 H    -0.000806  0.000229 -0.000501
     2 C     0.009028  0.002139  0.007195
     3 C    -0.000913 -0.001288 -0.001189
     4 C    -0.017042  0.010537  0.001180
     5 O    -0.004912 -0.006758 -0.001967
     6 H     0.000644  0.003091 -0.001184
     7 H    -0.008565 -0.003636 -0.002911
     8 H     0.020460 -0.016271 -0.004576
     9 Sn   -0.009092  0.016745  0.009168
    10 Cl   -0.006251  0.003223 -0.007224
    11 Cl    0.014321  0.001288 -0.009788
    12 Cl    0.008713 -0.004115  0.010908
    13 Cl   -0.005585 -0.005184  0.000889
 ----------------------------------------
 Mulliken charges used for AMS results%charges...
 Rebuilding optimization coordinates

 dE(predicted):    -0.19795E-02, dE(actual):    -0.25849E-02, Trust radius:    1.000000, all in a.u.
 
----------------------------------------------------------------------
Geometry Convergence after Step  14       (Hartree/Angstrom,Angstrom)
----------------------------------------------------------------------
current energy                               -2.18605947 Hartree
energy change                      -0.00258493     0.00013000    F
constrained gradient max            0.02046066     0.00100000    F
constrained gradient rms            0.00808912     0.00066667    F
gradient max                        0.02046066
gradient rms                        0.00808912
cart. step max                      0.21120317     0.01000000    F
cart. step rms                      0.08567191     0.00666667    F
 
 
--------
Geometry
--------
Formula: C3H4Cl4OSn
Atoms
  Index Symbol   x (angstrom)   y (angstrom)   z (angstrom)
      1      H     0.21976081    -1.45019831    -0.61035187
      2      C    -0.82336882     0.20094074     0.21445273
      3      C     0.28028180    -0.44084383    -0.20808361
      4      C     1.62327310     0.14098648    -0.14334918
      5      O     1.90812964     1.28885883     0.20288602
      6      H    -0.78428208     1.21145920     0.61168236
      7      H    -1.80870067    -0.27332320     0.12980576
      8      H     2.48496000    -0.54693541    -0.44032083
      9     Sn     1.96982918     3.45135229     1.00609805
     10     Cl     0.61324737     4.18409748    -0.84669485
     11     Cl     3.97874226     4.17057425    -0.16223033
     12     Cl     3.32750021     2.69216132     2.86264807
     13     Cl    -0.00498793     3.23754323     2.35766042
 
Total System Charge             0.00000
 
 *** GOStep15 ***

 Energy gradients wrt nuclear displacements
 ==========================================

     Atom      Cartesian (a.u./angstrom)
                 X         Y         Z
 ----------------------------------------
     1 H    -0.001533  0.000315 -0.000580
     2 C     0.012335  0.002405  0.008946
     3 C    -0.004226 -0.002429 -0.002388
     4 C    -0.020168  0.020076  0.006575
     5 O    -0.005998  0.000955  0.000813
     6 H     0.000860  0.003684 -0.001141
     7 H    -0.010833 -0.004526 -0.003622
     8 H     0.027189 -0.021029 -0.007219
     9 Sn   -0.014270  0.012744  0.008407
    10 Cl   -0.006392  0.001344 -0.008010
    11 Cl    0.018791  0.001603 -0.011963
    12 Cl    0.009662 -0.006384  0.011509
    13 Cl   -0.005416 -0.008759 -0.001326
 ----------------------------------------
 Mulliken charges used for AMS results%charges...

 dE(predicted):    -0.48779E-02, dE(actual):    -0.24853E-02, Trust radius:    1.000000, all in a.u.
 
----------------------------------------------------------------------
Geometry Convergence after Step  15       (Hartree/Angstrom,Angstrom)
----------------------------------------------------------------------
current energy                               -2.18854480 Hartree
energy change                      -0.00248533     0.00013000    F
constrained gradient max            0.02719217     0.00100000    F
constrained gradient rms            0.01009900     0.00066667    F
gradient max                        0.02719217
gradient rms                        0.01009900
cart. step max                      0.17987923     0.01000000    F
cart. step rms                      0.06978694     0.00666667    F
 
 
--------
Geometry
--------
Formula: C3H4Cl4OSn
Atoms
  Index Symbol   x (angstrom)   y (angstrom)   z (angstrom)
      1      H     0.19804979    -1.54323094    -0.60172201
      2      C    -0.85324460     0.12915032     0.16598606
      3      C     0.25562644    -0.52437788    -0.22249470
      4      C     1.60121311     0.05590891    -0.16661889
      5      O     1.89048712     1.20173499     0.17678311
      6      H    -0.81752110     1.15343177     0.52714502
      7      H    -1.83695500    -0.34588230     0.08553160
      8      H     2.45126081    -0.63466167    -0.46216010
      9     Sn     2.01296467     3.56338246     1.05155790
     10     Cl     0.64234886     4.36397672    -0.75824992
     11     Cl     3.99835405     4.22402133    -0.16021995
     12     Cl     3.38164730     2.84029575     2.90257950
     13     Cl     0.06015340     3.38292359     2.43608509
 
Total System Charge             0.00000
 
 *** GOStep16 ***

 Energy gradients wrt nuclear displacements
 ==========================================

     Atom      Cartesian (a.u./angstrom)
                 X         Y         Z
 ----------------------------------------
     1 H    -0.000591  0.000364 -0.001039
     2 C     0.008846  0.002534  0.008492
     3 C     0.001060 -0.001451 -0.001026
     4 C    -0.020659  0.008145  0.001380
     5 O    -0.003049 -0.005732 -0.001749
     6 H     0.000349  0.003015 -0.001895
     7 H    -0.009395 -0.004227 -0.003324
     8 H     0.020811 -0.015070 -0.004774
     9 Sn   -0.008541  0.014172  0.007893
    10 Cl   -0.006673  0.004554 -0.008085
    11 Cl    0.015190  0.002307 -0.010185
    12 Cl    0.008848 -0.003698  0.012141
    13 Cl   -0.006197 -0.004913  0.002170
 ----------------------------------------
 Mulliken charges used for AMS results%charges...

 dE(predicted):    -0.49602E-03, dE(actual):     0.10277E-02, Trust radius:    0.103926, all in a.u.
 
----------------------------------------------------------------------
Geometry Convergence after Step  16       (Hartree/Angstrom,Angstrom)
----------------------------------------------------------------------
current energy                               -2.18751714 Hartree
energy change                       0.00102766     0.00013000    F
constrained gradient max            0.02081212     0.00100000    F
constrained gradient rms            0.00821032     0.00066667    F
gradient max                        0.02081212
gradient rms                        0.00821032
cart. step max                      0.03647550     0.01000000    F
cart. step rms                      0.01285777     0.00666667    F
 
 
--------
Geometry
--------
Formula: C3H4Cl4OSn
Atoms
  Index Symbol   x (angstrom)   y (angstrom)   z (angstrom)
      1      H     0.21132515    -1.52893729    -0.59917938
      2      C    -0.85490915     0.13654684     0.16130235
      3      C     0.26100830    -0.50915252    -0.22137343
      4      C     1.60232102     0.07301601    -0.15632194
      5      O     1.89569772     1.22051973     0.18265330
      6      H    -0.82826918     1.15660244     0.53250208
      7      H    -1.83138919    -0.34571323     0.07952825
      8      H     2.44623298    -0.61092560    -0.44430179
      9     Sn     2.00901292     3.53644913     1.04146487
     10     Cl     0.63531774     4.32750121    -0.76818491
     11     Cl     3.98990781     4.21889306    -0.15823854
     12     Cl     3.38248258     2.80826776     2.88559466
     13     Cl     0.06564616     3.38360553     2.43875721
 
Total System Charge             0.00000
 
 *** GOStep17 ***

 Energy gradients wrt nuclear displacements
 ==========================================

     Atom      Cartesian (a.u./angstrom)
                 X         Y         Z
 ----------------------------------------
     1 H    -0.000579  0.000199 -0.000638
     2 C     0.005174  0.002190  0.006603
     3 C     0.002877 -0.001598 -0.001817
     4 C    -0.016391  0.003048  0.000689
     5 O    -0.001731 -0.005284 -0.002282
     6 H     0.000246  0.001576 -0.001421
     7 H    -0.005853 -0.002763 -0.002440
     8 H     0.013458 -0.009128 -0.002475
     9 Sn   -0.008659  0.013691  0.007326
    10 Cl   -0.006016  0.004325 -0.007124
    11 Cl    0.014161  0.001683 -0.009189
    12 Cl    0.008494 -0.003062  0.011166
    13 Cl   -0.005182 -0.004877  0.001604
 ----------------------------------------
 Mulliken charges used for AMS results%charges...

 dE(predicted):    -0.83778E-03, dE(actual):    -0.12843E-02, Trust radius:    0.207851, all in a.u.
 
----------------------------------------------------------------------
Geometry Convergence after Step  17       (Hartree/Angstrom,Angstrom)
----------------------------------------------------------------------
current energy                               -2.18880141 Hartree
energy change                      -0.00128426     0.00013000    F
constrained gradient max            0.01638946     0.00100000    F
constrained gradient rms            0.00659549     0.00066667    F
gradient max                        0.01638946
gradient rms                        0.00659549
cart. step max                      0.09296330     0.01000000    F
cart. step rms                      0.02886437     0.00666667    F
 
 
--------
Geometry
--------
Formula: C3H4Cl4OSn
Atoms
  Index Symbol   x (angstrom)   y (angstrom)   z (angstrom)
      1      H     0.22977036    -1.50072776    -0.58688353
      2      C    -0.84715847     0.16308249     0.15917569
      3      C     0.27405592    -0.47901864    -0.21402282
      4      C     1.61282831     0.09751784    -0.14624203
      5      O     1.91476969     1.24401269     0.18674506
      6      H    -0.82791930     1.17825979     0.54014186
      7      H    -1.81355981    -0.32399466     0.08460946
      8      H     2.43668829    -0.57539894    -0.42994201
      9     Sn     1.99504073     3.46731051     1.01887073
     10     Cl     0.62270705     4.23453792    -0.79079688
     11     Cl     3.94980638     4.22906894    -0.13558340
     12     Cl     3.36389533     2.73246190     2.85059308
     13     Cl     0.07346039     3.39956097     2.43753752
 
Total System Charge             0.00000
 
 *** GOStep18 ***

 Energy gradients wrt nuclear displacements
 ==========================================

     Atom      Cartesian (a.u./angstrom)
                 X         Y         Z
 ----------------------------------------
     1 H    -0.000106  0.000302 -0.000222
     2 C    -0.002253 -0.000372  0.002337
     3 C     0.004249  0.000120 -0.001587
     4 C     0.001462 -0.003270 -0.000913
     5 O    -0.003829 -0.009909 -0.004320
     6 H     0.000113 -0.000688 -0.000673
     7 H     0.002295  0.001108 -0.000405
     8 H    -0.004567  0.004629  0.003012
     9 Sn   -0.006795  0.009033  0.004384
    10 Cl   -0.002687  0.003903 -0.002832
    11 Cl    0.008024 -0.000380 -0.005568
    12 Cl    0.005720 -0.000110  0.007446
    13 Cl   -0.001624 -0.004364 -0.000658
 ----------------------------------------
 Mulliken charges used for AMS results%charges...

 dE(predicted):    -0.24368E-02, dE(actual):    -0.25511E-02, Trust radius:    0.415702, all in a.u.
 
----------------------------------------------------------------------
Geometry Convergence after Step  18       (Hartree/Angstrom,Angstrom)
----------------------------------------------------------------------
current energy                               -2.19135253 Hartree
energy change                      -0.00255112     0.00013000    F
constrained gradient max            0.00991032     0.00100000    F
constrained gradient rms            0.00398335     0.00066667    F
gradient max                        0.00991032
gradient rms                        0.00398335
cart. step max                      0.19891021     0.01000000    F
cart. step rms                      0.06044525     0.00666667    F
 
 
--------
Geometry
--------
Formula: C3H4Cl4OSn
Atoms
  Index Symbol   x (angstrom)   y (angstrom)   z (angstrom)
      1      H     0.25991603    -1.44013903    -0.55057082
      2      C    -0.83005609     0.22711092     0.16560991
      3      C     0.29759644    -0.41357757    -0.19152709
      4      C     1.63512941     0.15761880    -0.12495287
      5      O     1.95386397     1.30587725     0.19900186
      6      H    -0.82245644     1.23485951     0.56282340
      7      H    -1.78670153    -0.26945408     0.10224620
      8      H     2.44234724    -0.50930221    -0.42154722
      9     Sn     1.96657810     3.33319862     0.97243456
     10     Cl     0.59551772     4.03562771    -0.84823150
     11     Cl     3.87523004     4.24687402    -0.08850567
     12     Cl     3.32114954     2.57463858     2.78586042
     13     Cl     0.07627044     3.38334054     2.41156153
 
Total System Charge             0.00000
 
 *** GOStep19 ***

 Energy gradients wrt nuclear displacements
 ==========================================

     Atom      Cartesian (a.u./angstrom)
                 X         Y         Z
 ----------------------------------------
     1 H    -0.000052  0.000078  0.000864
     2 C    -0.006398 -0.002018 -0.004743
     3 C    -0.000556 -0.000462 -0.002767
     4 C     0.016372 -0.003583  0.002178
     5 O    -0.004472  0.012735  0.002895
     6 H    -0.000070 -0.003301  0.001371
     7 H     0.008251  0.003968  0.002178
     8 H    -0.015212  0.011119  0.004990
     9 Sn   -0.004543 -0.014146 -0.006465
    10 Cl    0.003013  0.001617  0.004915
    11 Cl   -0.000892 -0.004962 -0.000455
    12 Cl    0.000229  0.003724 -0.000107
    13 Cl    0.004330 -0.004769 -0.004853
 ----------------------------------------
 Mulliken charges used for AMS results%charges...

 dE(predicted):    -0.23430E-02, dE(actual):    -0.11121E-02, Trust radius:    0.415702, all in a.u.
 
----------------------------------------------------------------------
Geometry Convergence after Step  19       (Hartree/Angstrom,Angstrom)
----------------------------------------------------------------------
current energy                               -2.19246465 Hartree
energy change                      -0.00111213     0.00013000    F
constrained gradient max            0.01637655     0.00100000    F
constrained gradient rms            0.00606988     0.00066667    F
gradient max                        0.01637655
gradient rms                        0.00606988
cart. step max                      0.06384560     0.01000000    F
cart. step rms                      0.02886478     0.00666667    F
 
 
--------
Geometry
--------
Formula: C3H4Cl4OSn
Atoms
  Index Symbol   x (angstrom)   y (angstrom)   z (angstrom)
      1      H     0.24031935    -1.48097576    -0.53733824
      2      C    -0.83252643     0.20637537     0.15815926
      3      C     0.28814593    -0.44978678    -0.19223415
      4      C     1.63186364     0.11359070    -0.14995743
      5      O     1.95785933     1.25710161     0.17826788
      6      H    -0.81473479     1.22472386     0.52906512
      7      H    -1.79510275    -0.28275196     0.10875173
      8      H     2.43123384    -0.55766090    -0.46379147
      9     Sn     1.97831138     3.38119435     0.99283206
     10     Cl     0.60934698     4.09947330    -0.82066262
     11     Cl     3.87849963     4.28533948    -0.06839176
     12     Cl     3.32166487     2.62890905     2.80916947
     13     Cl     0.08950387     3.44114075     2.43033290
 
Total System Charge             0.00000
 
 *** GOStep20 ***

 Energy gradients wrt nuclear displacements
 ==========================================

     Atom      Cartesian (a.u./angstrom)
                 X         Y         Z
 ----------------------------------------
     1 H     0.000580  0.000164  0.000483
     2 C    -0.006522 -0.001605 -0.004020
     3 C     0.001700  0.000898 -0.001353
     4 C     0.014695 -0.008388 -0.000989
     5 O    -0.005465 -0.002077 -0.002002
     6 H    -0.000170 -0.002201  0.001274
     7 H     0.006823  0.003296  0.001813
     8 H    -0.013942  0.010902  0.005133
     9 Sn   -0.000049 -0.000414 -0.002354
    10 Cl    0.002663  0.003594  0.004869
    11 Cl   -0.004258 -0.005598  0.001068
    12 Cl   -0.000475  0.005511  0.000562
    13 Cl    0.004419 -0.004082 -0.004483
 ----------------------------------------
 Mulliken charges used for AMS results%charges...

 dE(predicted):    -0.10641E-02, dE(actual):    -0.98248E-03, Trust radius:    0.415702, all in a.u.
 
----------------------------------------------------------------------
Geometry Convergence after Step  20       (Hartree/Angstrom,Angstrom)
----------------------------------------------------------------------
current energy                               -2.19344713 Hartree
energy change                      -0.00098248     0.00013000    F
constrained gradient max            0.01469663     0.00100000    F
constrained gradient rms            0.00503042     0.00066667    F
gradient max                        0.01469663
gradient rms                        0.00503042
cart. step max                      0.04508603     0.01000000    F
cart. step rms                      0.01886345     0.00666667    F
 
 
--------
Geometry
--------
Formula: C3H4Cl4OSn
Atoms
  Index Symbol   x (angstrom)   y (angstrom)   z (angstrom)
      1      H     0.23334545    -1.48138009    -0.50919377
      2      C    -0.82256126     0.22271459     0.17011071
      3      C     0.29125369    -0.44598280    -0.17808185
      4      C     1.63951119     0.11172814    -0.16534833
      5      O     1.97945352     1.25017204     0.16663954
      6      H    -0.79790681     1.25059160     0.51427521
      7      H    -1.78959617    -0.26192920     0.13629737
      8      H     2.43087324    -0.56360211    -0.50359020
      9     Sn     1.97183769     3.37076940     0.99133212
     10     Cl     0.60973066     4.05438728    -0.83807623
     11     Cl     3.85985913     4.31942427    -0.03268220
     12     Cl     3.29832087     2.59351787     2.80339735
     13     Cl     0.08026367     3.44626207     2.41912301
 
Total System Charge             0.00000
 
 *** GOStep21 ***

 Energy gradients wrt nuclear displacements
 ==========================================

     Atom      Cartesian (a.u./angstrom)
                 X         Y         Z
 ----------------------------------------
     1 H     0.000470  0.000120  0.000112
     2 C    -0.005066 -0.001796 -0.003165
     3 C     0.000136  0.000873 -0.000560
     4 C     0.013487 -0.005503 -0.001357
     5 O    -0.006174 -0.001053 -0.000745
     6 H    -0.000140 -0.001347  0.000926
     7 H     0.005227  0.002653  0.001425
     8 H    -0.010211  0.007830  0.004199
     9 Sn    0.002369  0.000530 -0.002961
    10 Cl    0.003158  0.003535  0.006032
    11 Cl   -0.006700 -0.007400  0.002038
    12 Cl   -0.001800  0.006351 -0.000656
    13 Cl    0.005243 -0.004792 -0.005288
 ----------------------------------------
 Mulliken charges used for AMS results%charges...

 dE(predicted):    -0.39531E-03, dE(actual):    -0.76968E-03, Trust radius:    0.415702, all in a.u.
 
----------------------------------------------------------------------
Geometry Convergence after Step  21       (Hartree/Angstrom,Angstrom)
----------------------------------------------------------------------
current energy                               -2.19421681 Hartree
energy change                      -0.00076968     0.00013000    F
constrained gradient max            0.01349109     0.00100000    F
constrained gradient rms            0.00457442     0.00066667    F
gradient max                        0.01349109
gradient rms                        0.00457442
cart. step max                      0.21154111     0.01000000    F
cart. step rms                      0.08595045     0.00666667    F
 
 
--------
Geometry
--------
Formula: C3H4Cl4OSn
Atoms
  Index Symbol   x (angstrom)   y (angstrom)   z (angstrom)
      1      H     0.20873880    -1.46017897    -0.43250754
      2      C    -0.77973003     0.28282001     0.24420388
      3      C     0.30552232    -0.41793502    -0.13125657
      4      C     1.66635697     0.11125557    -0.23052008
      5      O     2.07654315     1.22808695     0.10775256
      6      H    -0.73403366     1.33287212     0.51682855
      7      H    -1.76238417    -0.18976013     0.26441293
      8      H     2.42196831    -0.58794948    -0.65860498
      9     Sn     1.94604611     3.31866216     0.97232128
     10     Cl     0.64133727     3.84284616    -0.94720490
     11     Cl     3.76815938     4.48379766     0.15170749
     12     Cl     3.18469510     2.40675286     2.76287818
     13     Cl     0.04116530     3.51540316     2.35419194
 
Total System Charge             0.00000
 
 *** GOStep22 ***

 Energy gradients wrt nuclear displacements
 ==========================================

     Atom      Cartesian (a.u./angstrom)
                 X         Y         Z
 ----------------------------------------
     1 H     0.000060 -0.000236 -0.001212
     2 C     0.003030 -0.000842  0.001175
     3 C    -0.004711  0.000299  0.002104
     4 C     0.000119  0.003878 -0.000781
     5 O    -0.003552  0.010763  0.006719
     6 H     0.000055  0.002437 -0.000634
     7 H    -0.004308 -0.001491 -0.000155
     8 H     0.007512 -0.007070 -0.003208
     9 Sn    0.014061  0.003228 -0.005143
    10 Cl    0.003199  0.003351  0.008070
    11 Cl   -0.015897 -0.015765  0.004719
    12 Cl   -0.006136  0.009061 -0.005110
    13 Cl    0.006570 -0.007615 -0.006545
 ----------------------------------------
 Mulliken charges used for AMS results%charges...

 dE(predicted):    -0.39271E-02, dE(actual):    -0.37270E-02, Trust radius:    0.831405, all in a.u.
 
----------------------------------------------------------------------
Geometry Convergence after Step  22       (Hartree/Angstrom,Angstrom)
----------------------------------------------------------------------
current energy                               -2.19794379 Hartree
energy change                      -0.00372698     0.00013000    F
constrained gradient max            0.01589897     0.00100000    F
constrained gradient rms            0.00621659     0.00066667    F
gradient max                        0.01589897
gradient rms                        0.00621659
cart. step max                      0.21532323     0.01000000    F
cart. step rms                      0.09280052     0.00666667    F
 
 
--------
Geometry
--------
Formula: C3H4Cl4OSn
Atoms
  Index Symbol   x (angstrom)   y (angstrom)   z (angstrom)
      1      H     0.19002211    -1.43096934    -0.38145243
      2      C    -0.73044816     0.33021945     0.33495091
      3      C     0.32340608    -0.38842735    -0.09302494
      4      C     1.68599421     0.11272569    -0.30101717
      5      O     2.17001464     1.20171197     0.04110489
      6      H    -0.67189876     1.39275882     0.55780336
      7      H    -1.72237083    -0.13630947     0.41071746
      8      H     2.39628422    -0.60756746    -0.81457643
      9     Sn     1.92131465     3.26761207     0.94775141
     10     Cl     0.71502487     3.64255013    -1.07118720
     11     Cl     3.64523093     4.64161124     0.36703071
     12     Cl     3.05256709     2.20224180     2.70624425
     13     Cl     0.00924382     3.63851552     2.26985790
 
Total System Charge             0.00000
 
 *** GOStep23 ***

 Energy gradients wrt nuclear displacements
 ==========================================

     Atom      Cartesian (a.u./angstrom)
                 X         Y         Z
 ----------------------------------------
     1 H    -0.000410 -0.000569 -0.002590
     2 C     0.011045  0.000726  0.005186
     3 C    -0.007132  0.000173  0.005554
     4 C    -0.014788  0.012326  0.001277
     5 O     0.003285  0.020857  0.014683
     6 H     0.000232  0.005785 -0.002586
     7 H    -0.013308 -0.005421 -0.000810
     8 H     0.020584 -0.019167 -0.012397
     9 Sn    0.026849  0.007847 -0.004924
    10 Cl    0.002149  0.001587  0.007095
    11 Cl   -0.025811 -0.025393  0.006078
    12 Cl   -0.009088  0.009723 -0.010436
    13 Cl    0.006394 -0.008474 -0.006130
 ----------------------------------------
 Mulliken charges used for AMS results%charges...

 dE(predicted):    -0.68307E-02, dE(actual):    -0.26960E-02, Trust radius:    0.831405, all in a.u.
 
----------------------------------------------------------------------
Geometry Convergence after Step  23       (Hartree/Angstrom,Angstrom)
----------------------------------------------------------------------
current energy                               -2.20063980 Hartree
energy change                      -0.00269601     0.00013000    F
constrained gradient max            0.02685762     0.00100000    F
constrained gradient rms            0.01144943     0.00066667    F
gradient max                        0.02685762
gradient rms                        0.01144943
cart. step max                      0.16372818     0.01000000    F
cart. step rms                      0.06379595     0.00666667    F
 
 
--------
Geometry
--------
Formula: C3H4Cl4OSn
Atoms
  Index Symbol   x (angstrom)   y (angstrom)   z (angstrom)
      1      H     0.18526092    -1.44066480    -0.35709148
      2      C    -0.70594939     0.31327708     0.40359317
      3      C     0.32923663    -0.39556732    -0.08173805
      4      C     1.68029920     0.10531912    -0.36268294
      5      O     2.19657936     1.18611681    -0.03575781
      6      H    -0.65708286     1.38213719     0.60057306
      7      H    -1.69342347    -0.16860114     0.52810444
      8      H     2.37410974    -0.63410955    -0.91082154
      9     Sn     1.91673706     3.27399339     0.93241962
     10     Cl     0.80053893     3.62288921    -1.15685472
     11     Cl     3.61135237     4.74525922     0.53075889
     12     Cl     2.94302727     2.07558798     2.67404664
     13     Cl     0.00369908     3.80103587     2.20965345
 
Total System Charge             0.00000
 
 *** GOStep24 ***

 Energy gradients wrt nuclear displacements
 ==========================================

     Atom      Cartesian (a.u./angstrom)
                 X         Y         Z
 ----------------------------------------
     1 H    -0.000987 -0.000948 -0.002857
     2 C     0.018561  0.003026  0.008199
     3 C    -0.006316  0.000134  0.005923
     4 C    -0.031534  0.016929  0.003834
     5 O     0.010844  0.024743  0.016947
     6 H    -0.000524  0.006464 -0.004267
     7 H    -0.020549 -0.009391 -0.000532
     8 H     0.030436 -0.029260 -0.019217
     9 Sn    0.030468  0.007480 -0.000832
    10 Cl   -0.001639  0.002268 -0.000110
    11 Cl   -0.024221 -0.022916  0.003582
    12 Cl   -0.006953  0.006977 -0.008132
    13 Cl    0.002414 -0.005504 -0.002537
 ----------------------------------------
 Mulliken charges used for AMS results%charges...

 dE(predicted):    -0.13451E-02, dE(actual):    -0.17928E-02, Trust radius:    0.831405, all in a.u.
 
----------------------------------------------------------------------
Geometry Convergence after Step  24       (Hartree/Angstrom,Angstrom)
----------------------------------------------------------------------
current energy                               -2.20243261 Hartree
energy change                      -0.00179281     0.00013000    F
constrained gradient max            0.03153832     0.00100000    F
constrained gradient rms            0.01420054     0.00066667    F
gradient max                        0.03153832
gradient rms                        0.01420054
cart. step max                      0.15843006     0.01000000    F
cart. step rms                      0.04474080     0.00666667    F
 
 
--------
Geometry
--------
Formula: C3H4Cl4OSn
Atoms
  Index Symbol   x (angstrom)   y (angstrom)   z (angstrom)
      1      H     0.19137291    -1.47941544    -0.31924223
      2      C    -0.69115886     0.28410698     0.42322877
      3      C     0.33709094    -0.42839280    -0.06848244
      4      C     1.67121109     0.07839619    -0.40586722
      5      O     2.19312116     1.15185520    -0.08308427
      6      H    -0.65146264     1.35952477     0.57938438
      7      H    -1.66706396    -0.20133523     0.58920108
      8      H     2.33409857    -0.64502226    -0.99686391
      9     Sn     1.91410984     3.30084016     0.93920406
     10     Cl     0.84507051     3.64813383    -1.18383449
     11     Cl     3.60946728     4.81133975     0.62818272
     12     Cl     2.87465779     2.02717599     2.67292646
     13     Cl     0.02387023     3.95946592     2.19944980
 
Total System Charge             0.00000
 
 *** GOStep25 ***

 Energy gradients wrt nuclear displacements
 ==========================================

     Atom      Cartesian (a.u./angstrom)
                 X         Y         Z
 ----------------------------------------
     1 H    -0.001018 -0.000492 -0.003500
     2 C     0.016823  0.002665  0.007812
     3 C    -0.001917  0.001880  0.006844
     4 C    -0.027945  0.016106  0.004804
     5 O     0.008249  0.012096  0.013121
     6 H    -0.001391  0.005220 -0.004958
     7 H    -0.017146 -0.008128 -0.000104
     8 H     0.025187 -0.023541 -0.017925
     9 Sn    0.027635  0.003640  0.000648
    10 Cl   -0.004646  0.004557 -0.005825
    11 Cl   -0.019041 -0.016328  0.002172
    12 Cl   -0.004142  0.004383 -0.003264
    13 Cl   -0.000648 -0.002057  0.000175
 ----------------------------------------
 Mulliken charges used for AMS results%charges...
 Rebuilding optimization coordinates

 dE(predicted):    -0.14878E-02, dE(actual):    -0.23164E-02, Trust radius:    1.000000, all in a.u.
 
----------------------------------------------------------------------
Geometry Convergence after Step  25       (Hartree/Angstrom,Angstrom)
----------------------------------------------------------------------
current energy                               -2.20474900 Hartree
energy change                      -0.00231640     0.00013000    F
constrained gradient max            0.02795291     0.00100000    F
constrained gradient rms            0.01169216     0.00066667    F
gradient max                        0.02795291
gradient rms                        0.01169216
cart. step max                      0.17574784     0.01000000    F
cart. step rms                      0.04701779     0.00666667    F
 
 
--------
Geometry
--------
Formula: C3H4Cl4OSn
Atoms
  Index Symbol   x (angstrom)   y (angstrom)   z (angstrom)
      1      H     0.21603114    -1.54559360    -0.26464715
      2      C    -0.70408958     0.23291444     0.38871904
      3      C     0.33752002    -0.48021344    -0.06954225
      4      C     1.65580132     0.04416147    -0.42928850
      5      O     2.16306727     1.11561383    -0.10022575
      6      H    -0.67902517     1.31170518     0.50783744
      7      H    -1.65875436    -0.25655748     0.58976432
      8      H     2.28419403    -0.63829756    -1.05443358
      9     Sn     1.92014759     3.35426863     0.96721523
     10     Cl     0.85752046     3.68855518    -1.16596382
     11     Cl     3.65331452     4.87346040     0.66622220
     12     Cl     2.85784649     2.03144224     2.69282489
     13     Cl     0.08081114     4.13521377     2.24572065
 
Total System Charge             0.00000
 
 *** GOStep26 ***

 Energy gradients wrt nuclear displacements
 ==========================================

     Atom      Cartesian (a.u./angstrom)
                 X         Y         Z
 ----------------------------------------
     1 H    -0.000139 -0.000127 -0.001595
     2 C     0.006251  0.000663  0.004627
     3 C     0.003282  0.003360  0.002273
     4 C    -0.011703  0.005503  0.001383
     5 O     0.002724 -0.001881  0.007145
     6 H    -0.001968  0.001764 -0.003154
     7 H    -0.005347 -0.002571 -0.000289
     8 H     0.007865 -0.005641 -0.006664
     9 Sn    0.016973 -0.006028 -0.000954
    10 Cl   -0.007046  0.006623 -0.010806
    11 Cl   -0.006507 -0.003637  0.000375
    12 Cl   -0.000232  0.000565  0.004304
    13 Cl   -0.004153  0.001408  0.003357
 ----------------------------------------
 Mulliken charges used for AMS results%charges...

 dE(predicted):    -0.18290E-02, dE(actual):    -0.23095E-02, Trust radius:    1.000000, all in a.u.
 
----------------------------------------------------------------------
Geometry Convergence after Step  26       (Hartree/Angstrom,Angstrom)
----------------------------------------------------------------------
current energy                               -2.20705855 Hartree
energy change                      -0.00230954     0.00013000    F
constrained gradient max            0.01698465     0.00100000    F
constrained gradient rms            0.00543707     0.00066667    F
gradient max                        0.01698465
gradient rms                        0.00543707
cart. step max                      0.05824195     0.01000000    F
cart. step rms                      0.01437929     0.00666667    F
 
 
--------
Geometry
--------
Formula: C3H4Cl4OSn
Atoms
  Index Symbol   x (angstrom)   y (angstrom)   z (angstrom)
      1      H     0.21697120    -1.55557665    -0.26769773
      2      C    -0.70817080     0.22288230     0.37873324
      3      C     0.33673887    -0.49058745    -0.06988028
      4      C     1.65431852     0.03682070    -0.43079500
      5      O     2.16586585     1.10302710    -0.09331178
      6      H    -0.67740504     1.29958923     0.51029365
      7      H    -1.66109551    -0.26414248     0.57804003
      8      H     2.26785343    -0.63316573    -1.07054496
      9     Sn     1.91877681     3.36665047     0.97577864
     10     Cl     0.86348335     3.65813903    -1.16142345
     11     Cl     3.64378368     4.90042362     0.68003530
     12     Cl     2.85687580     2.02915719     2.68721774
     13     Cl     0.10638872     4.19345571     2.25775734
 
Total System Charge             0.00000
 
 *** GOStep27 ***

 Energy gradients wrt nuclear displacements
 ==========================================

     Atom      Cartesian (a.u./angstrom)
                 X         Y         Z
 ----------------------------------------
     1 H     0.000124  0.000022 -0.001366
     2 C     0.002490 -0.000057  0.001857
     3 C     0.003576  0.002678  0.003052
     4 C    -0.007778  0.001030 -0.001430
     5 O     0.003642 -0.001382  0.006907
     6 H    -0.001460  0.001011 -0.001869
     7 H    -0.002058 -0.001032 -0.000299
     8 H     0.002605 -0.000350 -0.002801
     9 Sn    0.013945 -0.006975 -0.001288
    10 Cl   -0.006366  0.005421 -0.010540
    11 Cl   -0.005614 -0.002366  0.000628
    12 Cl    0.000132 -0.000041  0.003852
    13 Cl   -0.003238  0.002038  0.003297
 ----------------------------------------
 Mulliken charges used for AMS results%charges...

 dE(predicted):    -0.26568E-03, dE(actual):    -0.41475E-03, Trust radius:    1.000000, all in a.u.
 
----------------------------------------------------------------------
Geometry Convergence after Step  27       (Hartree/Angstrom,Angstrom)
----------------------------------------------------------------------
current energy                               -2.20747330 Hartree
energy change                      -0.00041475     0.00013000    F
constrained gradient max            0.01395880     0.00100000    F
constrained gradient rms            0.00422981     0.00066667    F
gradient max                        0.01395880
gradient rms                        0.00422981
cart. step max                      0.13554836     0.01000000    F
cart. step rms                      0.04152636     0.00666667    F
 
 
--------
Geometry
--------
Formula: C3H4Cl4OSn
Atoms
  Index Symbol   x (angstrom)   y (angstrom)   z (angstrom)
      1      H     0.20986617    -1.58857867    -0.33257060
      2      C    -0.73465044     0.16919633     0.34864790
      3      C     0.31703837    -0.52811451    -0.10702297
      4      C     1.64149789     0.01815827    -0.42134311
      5      O     2.13434982     1.08543743    -0.06176299
      6      H    -0.68428588     1.23137133     0.55980258
      7      H    -1.68629693    -0.31986917     0.52266567
      8      H     2.26158190    -0.63268580    -1.05532837
      9     Sn     1.92386777     3.43248323     1.00128915
     10     Cl     0.87105067     3.64316191    -1.13270046
     11     Cl     3.69320286     4.94754792     0.65826508
     12     Cl     2.87790756     2.07956073     2.69619790
     13     Cl     0.15925510     4.32900407     2.29806295
 
Total System Charge             0.00000
 
 *** GOStep28 ***

 Energy gradients wrt nuclear displacements
 ==========================================

     Atom      Cartesian (a.u./angstrom)
                 X         Y         Z
 ----------------------------------------
     1 H     0.001179 -0.000190  0.000946
     2 C    -0.004098 -0.000046 -0.003763
     3 C     0.002722  0.000819  0.000680
     4 C    -0.002802 -0.007099 -0.005627
     5 O     0.006226  0.002320  0.005126
     6 H     0.000203 -0.001077  0.001411
     7 H     0.003306  0.001006  0.000007
     8 H    -0.005948  0.007204  0.004228
     9 Sn    0.001127 -0.012310 -0.002569
    10 Cl   -0.005149  0.003449 -0.010048
    11 Cl    0.004401  0.005337 -0.000975
    12 Cl    0.002557 -0.002142  0.006415
    13 Cl   -0.003723  0.002729  0.004169
 ----------------------------------------
 Mulliken charges used for AMS results%charges...

 dE(predicted):    -0.58323E-03, dE(actual):    -0.70445E-03, Trust radius:    1.000000, all in a.u.
 
----------------------------------------------------------------------
Geometry Convergence after Step  28       (Hartree/Angstrom,Angstrom)
----------------------------------------------------------------------
current energy                               -2.20817775 Hartree
energy change                      -0.00070445     0.00013000    F
constrained gradient max            0.01231287     0.00100000    F
constrained gradient rms            0.00441734     0.00066667    F
gradient max                        0.01231287
gradient rms                        0.00441734
cart. step max                      0.14148685     0.01000000    F
cart. step rms                      0.03820121     0.00666667    F
 
 
--------
Geometry
--------
Formula: C3H4Cl4OSn
Atoms
  Index Symbol   x (angstrom)   y (angstrom)   z (angstrom)
      1      H     0.19217487    -1.60243167    -0.41648967
      2      C    -0.74255172     0.12419441     0.35539427
      3      C     0.30232732    -0.55424229    -0.14116680
      4      C     1.63281448     0.00178793    -0.42714089
      5      O     2.11820683     1.05981996    -0.03945740
      6      H    -0.67499537     1.16924178     0.63415340
      7      H    -1.69570983    -0.36458428     0.51058732
      8      H     2.25341447    -0.63528560    -1.06861729
      9     Sn     1.92630717     3.48630828     1.01769461
     10     Cl     0.90083325     3.61214890    -1.11771070
     11     Cl     3.70945237     4.99165314     0.67374120
     12     Cl     2.85426407     2.10757158     2.69613910
     13     Cl     0.20784694     4.47049092     2.29707558
 
Total System Charge             0.00000
 
 *** GOStep29 ***

 Energy gradients wrt nuclear displacements
 ==========================================

     Atom      Cartesian (a.u./angstrom)
                 X         Y         Z
 ----------------------------------------
     1 H     0.001720 -0.000239  0.001439
[...]
     7     H       0.000857   0.004532   0.002091
     8     H      -0.000158  -0.000350   0.000724
     9    Sn       0.212683  -0.212349  -0.101567
    10    Cl       0.076540   0.056768   0.183715
    11    Cl      -0.398068  -0.118687   0.044418
    12    Cl       0.013202   0.184428  -0.158000
    13    Cl      -0.420381   0.607003   0.278540
 
 Mode:    22      Frequency (cm-1):      374.9667     Intensity (km/mol):       69.5300
 Index  Atom      ---- Displacements (x/y/z) ----
     1     H      -0.002882  -0.001129   0.001358
     2     C       0.000557   0.001625   0.000438
     3     C      -0.000459  -0.000928   0.000037
     4     C      -0.001293  -0.002894  -0.003083
     5     O       0.003231  -0.003723  -0.000077
     6     H       0.001641   0.001388   0.000361
     7     H      -0.000497   0.003924   0.002342
     8     H      -0.004614   0.002161  -0.006035
     9    Sn      -0.227648  -0.222302  -0.007063
    10    Cl       0.150608   0.113644   0.364833
    11    Cl       0.667696   0.198925  -0.074643
    12    Cl       0.024829   0.360177  -0.307134
    13    Cl      -0.063452   0.091764   0.042149
 
 Mode:    23      Frequency (cm-1):      378.4085     Intensity (km/mol):       63.5703
 Index  Atom      ---- Displacements (x/y/z) ----
     1     H       0.005103  -0.004084   0.001866
     2     C      -0.000920   0.001961  -0.003438
     3     C       0.001838  -0.002313   0.000160
     4     C      -0.003674   0.002860  -0.001504
     5     O       0.004228  -0.007837   0.012635
     6     H      -0.000132   0.001499  -0.002809
     7     H      -0.000596   0.001494  -0.003114
     8     H      -0.015212   0.019981  -0.019210
     9    Sn      -0.066757   0.078643  -0.304032
    10    Cl       0.255905   0.193674   0.619158
    11    Cl       0.018922   0.005620  -0.002213
    12    Cl      -0.033484  -0.485799   0.413633
    13    Cl      -0.013119   0.019032   0.008427
 
 Mode:    24      Frequency (cm-1):      531.0722     Intensity (km/mol):        7.8230
 Index  Atom      ---- Displacements (x/y/z) ----
     1     H      -0.184163   0.220346  -0.248638
     2     C      -0.014338   0.017171  -0.019274
     3     C       0.069685  -0.082714   0.094073
     4     C       0.007469  -0.008747   0.009581
     5     O      -0.016530   0.019238  -0.021967
     6     H       0.217078  -0.260339   0.294493
     7     H      -0.341987   0.408201  -0.462487
     8     H      -0.176990   0.211613  -0.240277
     9    Sn       0.000025   0.000004   0.000062
    10    Cl      -0.000051  -0.000042  -0.000102
    11    Cl      -0.000021  -0.000007  -0.000011
    12    Cl      -0.000004   0.000041  -0.000058
    13    Cl       0.000004  -0.000022  -0.000016
 
 Mode:    25      Frequency (cm-1):      665.7533     Intensity (km/mol):        8.1144
 Index  Atom      ---- Displacements (x/y/z) ----
     1     H      -0.075274   0.154669   0.193717
     2     C      -0.010036   0.044118   0.046484
     3     C       0.119972   0.205329   0.091727
     4     C       0.117722  -0.070638  -0.149435
     5     O      -0.151759  -0.115924   0.010259
     6     H      -0.558114  -0.092013   0.329948
     7     H       0.169768  -0.332166  -0.415933
     8     H       0.160102  -0.022886  -0.137192
     9    Sn       0.000033  -0.000018  -0.000045
    10    Cl       0.000003   0.000073   0.000056
    11    Cl      -0.000041   0.000004   0.000017
    12    Cl      -0.000003   0.000022   0.000057
    13    Cl      -0.000034   0.000054   0.000033
 
 Mode:    26      Frequency (cm-1):      905.0733     Intensity (km/mol):       58.2915
 Index  Atom      ---- Displacements (x/y/z) ----
     1     H       0.373478   0.193897  -0.105156
     2     C       0.157532   0.033951  -0.086660
     3     C       0.137964   0.124375   0.007821
     4     C      -0.316375  -0.069659   0.172708
     5     O       0.010499  -0.047198  -0.049370
     6     H      -0.047038  -0.022444   0.014918
     7     H       0.270562  -0.179020  -0.358095
     8     H      -0.514784  -0.299836   0.113761
     9    Sn      -0.000047   0.000061   0.000110
    10    Cl      -0.000010  -0.000069  -0.000158
    11    Cl       0.000048  -0.000021  -0.000041
    12    Cl       0.000034   0.000004  -0.000089
    13    Cl       0.000084  -0.000102  -0.000077
 
 Mode:    27      Frequency (cm-1):      989.2455     Intensity (km/mol):       11.0082
 Index  Atom      ---- Displacements (x/y/z) ----
     1     H       0.108799  -0.130625   0.147717
     2     C       0.078804  -0.093905   0.106251
     3     C      -0.027996   0.033349  -0.037816
     4     C      -0.021903   0.026003  -0.029465
     5     O       0.005637  -0.006637   0.007579
     6     H      -0.250756   0.298909  -0.337520
     7     H      -0.380896   0.454853  -0.515209
     8     H       0.089222  -0.106467   0.120936
     9    Sn      -0.000020   0.000011  -0.000039
    10    Cl       0.000035   0.000012   0.000050
    11    Cl       0.000016  -0.000004   0.000018
    12    Cl       0.000003  -0.000035   0.000047
    13    Cl       0.000013  -0.000007   0.000015
 
 Mode:    28      Frequency (cm-1):     1001.3949     Intensity (km/mol):       19.0294
 Index  Atom      ---- Displacements (x/y/z) ----
     1     H       0.311050  -0.372724   0.421498
     2     C      -0.021058   0.025470  -0.028629
     3     C      -0.005148   0.006034  -0.007025
     4     C      -0.051003   0.060634  -0.068761
     5     O       0.013054  -0.015377   0.017581
     6     H       0.311116  -0.372662   0.421499
     7     H      -0.084016   0.100377  -0.114659
     8     H       0.174190  -0.207910   0.236087
     9    Sn       0.000022  -0.000010   0.000038
    10    Cl      -0.000036  -0.000020  -0.000060
    11    Cl      -0.000019   0.000001  -0.000011
    12    Cl      -0.000013   0.000044  -0.000053
    13    Cl      -0.000013   0.000005  -0.000011
 
 Mode:    29      Frequency (cm-1):     1012.9223     Intensity (km/mol):        8.7937
 Index  Atom      ---- Displacements (x/y/z) ----
     1     H      -0.289796   0.343321  -0.388372
     2     C      -0.007774   0.010070  -0.011038
     3     C       0.066280  -0.079704   0.089595
     4     C      -0.088522   0.105273  -0.119297
     5     O       0.020470  -0.024037   0.027515
     6     H      -0.083132   0.097205  -0.109069
     7     H       0.043707  -0.052006   0.055844
     8     H       0.361870  -0.431419   0.490198
     9    Sn      -0.000013   0.000006  -0.000027
    10    Cl       0.000017   0.000003   0.000041
    11    Cl       0.000013   0.000001   0.000007
    12    Cl       0.000005  -0.000021   0.000026
    13    Cl       0.000006  -0.000002   0.000013
 
 Mode:    30      Frequency (cm-1):     1046.7644     Intensity (km/mol):        3.8180
 Index  Atom      ---- Displacements (x/y/z) ----
     1     H      -0.527297  -0.228652   0.189011
     2     C       0.092363   0.083496   0.005414
     3     C      -0.068865  -0.117329  -0.053200
     4     C      -0.023943   0.010494   0.028342
     5     O       0.039570   0.045453   0.010464
     6     H      -0.410049  -0.046545   0.262522
     7     H       0.261993  -0.275890  -0.436969
     8     H       0.052604   0.107593   0.050875
     9    Sn      -0.000002   0.000017   0.000018
    10    Cl      -0.000007  -0.000023  -0.000028
    11    Cl      -0.000001  -0.000005  -0.000005
    12    Cl       0.000002  -0.000011  -0.000014
    13    Cl       0.000016  -0.000018  -0.000013
 
 Mode:    31      Frequency (cm-1):     1284.6626     Intensity (km/mol):        2.4155
 Index  Atom      ---- Displacements (x/y/z) ----
     1     H      -0.704170  -0.083307   0.447592
     2     C       0.015703  -0.084157  -0.086032
     3     C       0.021213   0.085787   0.060179
     4     C      -0.002275  -0.001858   0.000094
     5     O       0.000662   0.014493   0.012254
     6     H       0.395252   0.003483  -0.289617
     7     H       0.002154  -0.024784  -0.023572
     8     H      -0.116234  -0.122653  -0.022201
     9    Sn       0.000005  -0.000007  -0.000018
    10    Cl       0.000004   0.000013   0.000026
    11    Cl      -0.000003   0.000001   0.000006
    12    Cl      -0.000006  -0.000002   0.000018
    13    Cl      -0.000011   0.000011   0.000010
 
 Mode:    32      Frequency (cm-1):     1390.3870     Intensity (km/mol):        0.5743
 Index  Atom      ---- Displacements (x/y/z) ----
     1     H      -0.025224  -0.044219  -0.020515
     2     C       0.015390   0.006172  -0.005940
     3     C       0.014101  -0.028558  -0.035629
     4     C       0.060064   0.011000  -0.034579
     5     O      -0.012121   0.051011   0.053822
     6     H      -0.240230  -0.052892   0.131027
     7     H      -0.056822   0.134645   0.161141
     8     H      -0.551733  -0.711566  -0.219288
     9    Sn      -0.000005  -0.000002   0.000010
    10    Cl       0.000002  -0.000003  -0.000014
    11    Cl       0.000007  -0.000000  -0.000004
    12    Cl       0.000005   0.000012  -0.000008
    13    Cl       0.000003  -0.000002  -0.000006
 
 Mode:    33      Frequency (cm-1):     1401.8140     Intensity (km/mol):       39.7116
 Index  Atom      ---- Displacements (x/y/z) ----
     1     H       0.276663   0.068382  -0.144190
     2     C      -0.007277   0.026984   0.029252
     3     C      -0.108085  -0.023125   0.059567
     4     C       0.056612   0.012021  -0.031259
     5     O      -0.008451   0.015466   0.019851
     6     H       0.476780   0.135709  -0.232930
     7     H       0.222051  -0.408963  -0.526208
     8     H      -0.141775  -0.229340  -0.097039
     9    Sn      -0.000004  -0.000032  -0.000009
    10    Cl       0.000010   0.000023   0.000019
    11    Cl       0.000014   0.000014   0.000003
    12    Cl       0.000006   0.000034  -0.000004
    13    Cl      -0.000017   0.000031   0.000014
 
 Mode:    34      Frequency (cm-1):     1615.0724     Intensity (km/mol):       81.0752
 Index  Atom      ---- Displacements (x/y/z) ----
     1     H       0.285362   0.200780  -0.033336
     2     C       0.264629  -0.069070  -0.257009
     3     C      -0.312004   0.027563   0.255283
     4     C       0.105030   0.146604   0.051393
     5     O      -0.039506  -0.100500  -0.059230
     6     H      -0.466554  -0.273029   0.104343
     7     H       0.086561   0.372110   0.265211
     8     H       0.035153   0.043479   0.012443
     9    Sn      -0.000001  -0.000058  -0.000053
    10    Cl       0.000020   0.000073   0.000090
    11    Cl       0.000023   0.000030   0.000016
    12    Cl      -0.000005   0.000040   0.000035
    13    Cl      -0.000036   0.000065   0.000041
 
 Mode:    35      Frequency (cm-1):     1729.6827     Intensity (km/mol):      138.6718
 Index  Atom      ---- Displacements (x/y/z) ----
     1     H      -0.313071  -0.180200   0.072398
     2     C      -0.101504   0.038586   0.109257
     3     C       0.121077  -0.055692  -0.138800
     4     C       0.159736   0.471628   0.297267
     5     O      -0.099445  -0.311847  -0.200963
     6     H       0.174320   0.128027  -0.015671
     7     H      -0.021884  -0.183805  -0.146696
     8     H      -0.395929  -0.227427   0.091582
     9    Sn      -0.000036  -0.000168  -0.000070
    10    Cl       0.000059   0.000183   0.000143
    11    Cl       0.000107   0.000085   0.000011
    12    Cl       0.000022   0.000172   0.000014
    13    Cl      -0.000069   0.000158   0.000072
 
 Mode:    36      Frequency (cm-1):     2827.0409     Intensity (km/mol):      157.6295
 Index  Atom      ---- Displacements (x/y/z) ----
     1     H       0.003815  -0.029724  -0.029107
     2     C       0.000156   0.000150   0.000019
     3     C      -0.000823   0.001541   0.001973
     4     C       0.052202  -0.023653  -0.059404
     5     O      -0.001122  -0.002127  -0.001044
     6     H      -0.001564   0.004260   0.004914
     7     H       0.002099  -0.000738  -0.002200
     8     H      -0.600190   0.321400   0.726531
     9    Sn       0.000007   0.000013  -0.000002
    10    Cl      -0.000004  -0.000011  -0.000000
    11    Cl      -0.000014  -0.000007   0.000003
    12    Cl      -0.000005  -0.000018   0.000007
    13    Cl       0.000001  -0.000009  -0.000001
 
 Mode:    37      Frequency (cm-1):     3100.8377     Intensity (km/mol):        7.7757
 Index  Atom      ---- Displacements (x/y/z) ----
     1     H      -0.057284  -0.352223  -0.269044
     2     C      -0.040273   0.011330   0.039865
     3     C       0.008168   0.028692   0.019327
     4     C      -0.001109   0.001101   0.001788
     5     O       0.000073  -0.000465  -0.000462
     6     H      -0.084376  -0.487848  -0.369184
     7     H       0.527304   0.362015  -0.070380
     8     H       0.008677  -0.004228  -0.010133
     9    Sn      -0.000000   0.000001  -0.000001
    10    Cl       0.000000   0.000000   0.000001
    11    Cl       0.000000   0.000000   0.000000
    12    Cl      -0.000000  -0.000001   0.000001
    13    Cl       0.000000  -0.000000   0.000000
 
 Mode:    38      Frequency (cm-1):     3114.1787     Intensity (km/mol):       11.3741
 Index  Atom      ---- Displacements (x/y/z) ----
     1     H      -0.111919  -0.693403  -0.530303
     2     C       0.018248  -0.015854  -0.027548
     3     C       0.005424   0.060508   0.049489
     4     C      -0.003991  -0.000531   0.002479
     5     O       0.000124   0.000173   0.000062
     6     H       0.052930   0.311406   0.236354
     7     H      -0.202494  -0.138663   0.027353
     8     H       0.025170  -0.007435  -0.025147
     9    Sn      -0.000001  -0.000005  -0.000000
    10    Cl       0.000001   0.000004   0.000001
    11    Cl       0.000003   0.000002  -0.000000
    12    Cl       0.000001   0.000005  -0.000001
    13    Cl      -0.000001   0.000004   0.000001
 
 Mode:    39      Frequency (cm-1):     3199.0369     Intensity (km/mol):        2.8160
 Index  Atom      ---- Displacements (x/y/z) ----
     1     H      -0.011658  -0.080686  -0.062712
     2     C       0.056884   0.077082   0.026065
     3     C       0.000884   0.007856   0.006291
     4     C      -0.000275   0.000046   0.000243
     5     O      -0.000034  -0.000236  -0.000183
     6     H      -0.076895  -0.531455  -0.413347
     7     H      -0.595449  -0.396989   0.089932
     8     H      -0.000025   0.000969   0.000874
     9    Sn      -0.000000  -0.000001  -0.000001
    10    Cl       0.000001   0.000001   0.000001
    11    Cl       0.000001   0.000001   0.000000
    12    Cl       0.000000   0.000001   0.000000
    13    Cl      -0.000000   0.000001   0.000001

PES point character: Geometry corresponds to a local minimum on the PES.
                     (Hint: Very small negative frequencies do not count towards being a
                     transition state, as they usually indicate noise on a very flat PES. See
                     the PESPointCharacter%NegativeFrequenciesTolerance keyword documentation.)




 ============================
 Statistical Thermal Analysis  ***  ideal gas assumed  ***
 ============================
  
 Pressure:                  1.000000 atm.
 Temperature:             298.150000 K



 Moments of Inertia [amu*bohr^2] and principal axis
 ==================================================

        2002.0890       8819.8205       9003.9353
 ------------------------------------------------
           0.3173         -0.8121          0.4897
           0.9079          0.1109         -0.4043
           0.2740          0.5728          0.7725


 The rotational contribution to the molecular entropy includes
 a term, dependent on the symmetry number sigma. The results 
 reported below were computed using sigma = 1, determined from
 the point group symmetry of the input geometry (NOSYM). 
 If this is not the correct symmetry, try symmetrizing the molecule before
 running the calculation (note: linear molecules should be aligned along one
 of the Cartesian axes).
 Contributions from frequencies below 20 1/cm are not included in vibrational sums.
 Their contributions, if any, are reported separately.


     Temp                                                        Transl      Rotat     Vibrat     Total
     ----                                                        ------      -----     ------     -----

     298.15   Entropy (cal/mol-K):                               43.146     33.430     39.896    116.472
              Nuclear Internal Energy (kcal/mol):                 0.889      0.889     45.719     47.496
              Constant Volume Heat Capacity (cal/mol-K):          2.981      2.981     27.959     33.921
          (c) Constant Volume Heat Capacity (cal/mol-K):          2.981      2.981     26.750     32.712

 Contributions from frequencies below 20 1/cm
 Frequency (1/cm):                                    8.235     6.834    19.658
 Entropy (cal/mol-K):                                 8.397     8.767     6.668
 Nuclear Internal Energy (kcal/mol):                  0.593     0.593     0.593
 Constant Volume Heat Capacity (cal/mol-K):           1.987     1.987     1.986

       Summary of energy terms
                                                   hartree              eV         kcal/mol           kJ/mol
                                      --------------------     -----------       ----------      -----------
      Energy from Engine:               -2.227797808521327        -60.6215         -1397.96         -5849.08
      Nuclear Internal Energy:           0.075690226103467          2.0596            47.50           198.72
  (c) Nuclear Internal Energy:           0.074994362991453          2.0407            47.06           196.90
      Internal Energy U:                -2.152107582417860        -58.5618         -1350.47         -5650.36
      pV/n = RT:                         0.000944186013486          0.0257             0.59             2.48
      Enthalpy H:                       -2.151163396404374        -58.5361         -1349.88         -5647.88
      -T*S:                             -0.055339577507687         -1.5059           -34.73          -145.29
  (c) -T*S:                             -0.059991169243815         -1.6324           -37.65          -157.51
      Gibbs free energy:                -2.206502973912061        -60.0420         -1384.60         -5793.17
 
 
 
  (c) The properties marked with this symbol have been corrected using 'low vibrational frequency free rotor
      interpolation corrections'. For those terms all positive frequencies are used (also ones below 20 1/cm),
      but the contribution to the partition function of small vibrational frequencies is modified as described
      in the following paper:
      S. Grimme, 'Supramolecular Binding Thermodynamics by Dispersion-Corrected Density Functional Theory'
      (Chem. Eur. J. 2012, 18, 9955-9964)
      Configuration: Dampener Frequency          :   100.000 1/cm
                     Dampener Alpha              :     4.000
                     Averaging Moment of Inertia : 1.000E-44 kg m2

--------------
Atomic charges
--------------
  Index   Atom    Charge
      1      H   -0.2031
      2      C    0.5085
      3      C    0.1668
      4      C    0.6579
      5      O   -0.4863
      6      H   -0.1731
      7      H   -0.2147
      8      H   -0.2565
      9     Sn    0.9975
     10     Cl   -0.2419
     11     Cl   -0.2536
     12     Cl   -0.2449
     13     Cl   -0.2565


Dipole moment vector    (Debye):    -1.64168568   -2.45714113   -0.76710229
              magnitude (Debye):     3.05305099


Final PES point is a local minimum. Geometry optimization successful!


AMS application finished. Exiting.
NORMAL TERMINATION
     Total cpu time:   18990.67
  Total system time:     194.79
 Total elapsed time:   38548.57
 WARNING: total elapsed time is much higher than the (CPU+system) time. 
 Make sure the machine is not oversubscribed and has enough memory, SCM_TMPDIR p
 oints to a fast file system, and the network is fast enough.
