

 Parallel Execution: Process Information
 ==============================================================================
 Rank   Node Name                              NodeID   MyNodeRank  NodeMaster
    0   node109                                   0          0          0
    1   node109                                   0          1         -1
    2   node109                                   0          2         -1
    3   node109                                   0          3         -1
 ==============================================================================


May use up to 122928MB of RAM as shared memory on node 0

 *******************************************************************************
 *                                                                             *
 *  --------------------------------                                           *
 *   Amsterdam Modeling Suite (AMS)              2021.102                      *
 *  --------------------------------                                           *
 *                                               r95042 2021-06-07             *
 *                                                                             *
 *                                                                             *
 *                              =================                              *
 *                              |               |                              *
 *                              |     A M S     |                              *
 *                              |               |                              *
 *                              =================                              *
 *                                                                             *
 *                                                                             *
 *   Online information and documentation:  https://www.scm.com/support/       *
 *   E-mail:  support@scm.com   info@scm.com                                   *
 *                                                                             *
 *   Scientific publications using AMS results must be properly referenced     *
 *   See the User Manuals (or the web site) for recommended citations          *
 *   The terms and conditions of the End User License Agreement apply to       *
 *   the use of AMS, https://www.scm.com/license-terms/                        *
 *                                                                             *
 **********************  x86_64_linux_intel / intelmpi  ************************
 
 Licensed to: VU/FEW (+ SARA) / ALGEMEEN / Amsterdam / THE NETHERLANDS
 SCM User ID: u7668
  
 AMS 2021.102  RunTime: Jan28-2022 18:44:31  ShM Nodes: 1  Procs: 4

 AMS jobname: 7.achiral_catalyst.H_Ph_ZnCl2.P2
 AMS jobid  : 1226447443

 Start   directory: /scistor/tc/yhk800/MasterProject/calculations/achiral_catalyst_H_Ph_ZnCl2/7.achiral_catalyst.H_Ph_ZnCl2.P2/
 Results directory: /scistor/tc/yhk800/MasterProject/calculations/achiral_catalyst_H_Ph_ZnCl2/7.achiral_catalyst.H_Ph_ZnCl2.P2/
 Scratch directory: /scratch/5292/amstmp_7.achiral_catalyst.H_Ph_ZnCl2.P2_kid0.1226447443/


 Communication costs MPI_COMM_WORLD:      0.985 usec per message,   0.0075 usec per 8-byte item
 Communication costs for intra-node:      0.961 usec per message,   0.0075 usec per 8-byte item

 RNG seed: -2135814707 -367591144 1265563177 442112887 -2061170434 -2085061225 116629977 212908280



                      ************************************************************************
                      *  ADF 2021.102  RunTime: Jan28-2022 18:44:32  ShM Nodes: 1  Procs: 4  *
                      ************************************************************************
  
       ***************************
       *  GEOMETRY OPTIMIZATION  *
       ***************************

Optimization Method                    Quasi Newton
Optimization Coordinates               Delocalized Coordinates
Optimize lattice                       F
 
 ------------------------------------------------------
 Convergence criteria (Hartree,Angstrom)
 ------------------------------------------------------
 Maximum gradient               0.001000000000
 Maximum rms gradient           0.000666666667
 Maximum step allowed           0.010000000000
 Maximum rms step allowed       0.006666666667
 Maximum energy change allowe   0.000260000000
 Maximum stress energy allowe   0.000500000000
 
Initial model Hessian                  Automatic Hessian
 
------------------------------------
Quasi-Newton Optimizer Parameters
------------------------------------
Hessian Update Method                  BFGS
Maximum number of steps                  250
First GDIIS cycle                          0
Maximum GDIIS vectors                      0
Trust radius (bohr)                        0.200000
Trust radius varies                        T
Constraints converged at all steps         T
Use projector                              T
 
 Rigid motions settings for: old optimizer
 Atomic rotations (x,y,z):     T T T
 Atomic translations (x,y,z):  T T T
 Tolerance:                   1.000000000000000E-006
 
--------
Geometry
--------
Formula: C10H12Cl2OSn
Atoms
  Index Symbol   x (angstrom)   y (angstrom)   z (angstrom)
      1      H     0.83345051    -1.35209109     1.20167740
      2      C    -0.83092072     0.03538951     0.93442801
      3      C     0.35139657    -0.78131674     0.40158875
      4      C     1.39689343     0.07225735    -0.26739819
      5      O     2.40703452    -0.34587328    -0.75774611
      6      H    -1.19392452     0.69150371     0.13740680
      7      H     0.00939092    -1.50634328    -0.34451216
      8      H    -0.05768346     0.24518214     2.94899716
      9      C    -0.44138171     0.87842746     2.14736270
     10      H     0.32560687     1.60312788     1.87585802
     11      H    -1.31355949     1.41759590     2.51749654
     12      C    -4.04067044    -2.67858482     2.01857462
     13      C    -4.31865374    -1.53007797     1.26695277
     14      C    -3.28313086    -0.65450113     0.91718762
     15      C    -1.96962468    -0.92743114     1.31904430
     16      C    -1.69164136    -2.07593799     2.07066615
     17      C    -2.72716424    -2.95151482     2.42043130
     18      H    -5.32378380    -1.32122463     0.95944130
     19      H    -3.49585113     0.22436701     0.34202649
     20      H    -0.68651131    -2.28479133     2.37817763
     21      H    -2.51444398    -3.83038297     2.99559244
     22      H    -4.83308023    -3.34859962     2.28622427
     23      H     1.16279025     1.11629180    -0.25802988
     24     Sn     3.62898812    -1.04016615    -1.71419100
     25     Cl     3.95998856    -0.67181682    -4.04370676
     26     Cl     5.57055229    -2.31763730    -1.19435336
 
Total System Charge             0.00000
 
 
----------------
ADF Engine Input
----------------
 
 NumericalQuality VeryGood
 SCF
 Converge 1.0e-6
 Iterations 99
 End
 SYMMETRY NOSYM
 XC
 GGA OLYP
 End
 basis
 core None
 type TZ2P
 End
 

 Title: *** (NO TITLE) ***

 Using automatic Hessian for delocalized coordinates.
 *** GOStep1 ***

 Energy gradients wrt nuclear displacements
 ==========================================

     Atom      Cartesian (a.u./angstrom)
                 X         Y         Z
 ----------------------------------------
     1 H    -0.000182  0.006173 -0.000488
     2 C     0.016582  0.031550 -0.014493
     3 C    -0.025123 -0.018365  0.022518
     4 C     0.236125 -0.068190 -0.117521
     5 O     0.124045 -0.140066 -0.257553
     6 H     0.000805 -0.000802  0.001913
     7 H     0.002858  0.011414  0.004084
     8 H    -0.001292 -0.000851 -0.003864
     9 C     0.000185 -0.005601  0.004451
    10 H    -0.005102 -0.007177 -0.004640
    11 H     0.000440 -0.003966 -0.004150
    12 C    -0.018414 -0.016641  0.006788
    13 C    -0.025842  0.005828 -0.009232
    14 C    -0.000840  0.029539 -0.018815
    15 C    -0.012095 -0.015675  0.012726
    16 C     0.036296  0.000665  0.003663
    17 C     0.004560 -0.024194  0.014700
    18 H     0.019385 -0.004015  0.006177
    19 H     0.004247 -0.016713  0.011602
    20 H    -0.014202  0.007038 -0.007732
    21 H    -0.004263  0.016988 -0.011026
    22 H     0.014999  0.012852 -0.004896
    23 H     0.001016 -0.036827  0.025825
    24 Sn   -0.305334  0.252113  0.307667
    25 Cl   -0.008319 -0.028070  0.061724
    26 Cl   -0.040538  0.012994 -0.029429
 ----------------------------------------
 Mulliken charges used for AMS results%charges...
 
----------------------------------------------------------------------
Geometry Convergence after Step   1       (Hartree/Angstrom,Angstrom)
----------------------------------------------------------------------
current energy                               -5.12398167 Hartree
energy change                      -5.12398167     0.00026000    F
constrained gradient max            0.30765796     0.00100000    F
constrained gradient rms            0.07571261     0.00066667    F
gradient max                        0.30765796
gradient rms                        0.07571261
cart. step max                      0.06013670     0.01000000    F
cart. step rms                      0.01644869     0.00666667    F
 
 
--------
Geometry
--------
Formula: C10H12Cl2OSn
Atoms
  Index Symbol   x (angstrom)   y (angstrom)   z (angstrom)
      1      H     0.84971521    -1.33447012     1.21390515
      2      C    -0.83303435     0.03393967     0.94322997
      3      C     0.36302537    -0.76911081     0.41159835
      4      C     1.40147264     0.09123882    -0.25746113
      5      O     2.42696757    -0.32630492    -0.73154256
      6      H    -1.20027242     0.68440411     0.14282899
      7      H     0.02948567    -1.50128640    -0.33525950
      8      H    -0.06522655     0.25981892     2.96345068
      9      C    -0.45297600     0.88654326     2.15774705
     10      H     0.30923051     1.62039261     1.89056468
     11      H    -1.33022268     1.42012308     2.52660767
     12      C    -4.05074544    -2.68169391     2.01376887
     13      C    -4.31873835    -1.53634463     1.25839080
     14      C    -3.27961545    -0.66450741     0.91559957
     15      C    -1.96818121    -0.93350562     1.32605946
     16      C    -1.70370270    -2.08254593     2.08338377
     17      C    -2.74274249    -2.95410448     2.42608035
     18      H    -5.32522133    -1.32510309     0.94012818
     19      H    -3.48926456     0.21662095     0.33370927
     20      H    -0.69963878    -2.29744834     2.40381095
     21      H    -2.53497396    -3.83568743     3.00794204
     22      H    -4.84997719    -3.35278248     2.27759984
     23      H     1.16829460     1.14416179    -0.26097428
     24     Sn     3.65754039    -1.06848969    -1.75714056
     25     Cl     3.95373914    -0.67946864    -4.10384346
     26     Cl     5.60912872    -2.34853762    -1.23098731
 
Total System Charge             0.00000
 
 *** GOStep2 ***

 Energy gradients wrt nuclear displacements
 ==========================================

     Atom      Cartesian (a.u./angstrom)
                 X         Y         Z
 ----------------------------------------
     1 H    -0.000627  0.005182  0.000824
     2 C     0.013447  0.029059 -0.015724
     3 C    -0.017781 -0.016137  0.020136
     4 C     0.193416 -0.056415 -0.093558
     5 O     0.070960 -0.111289 -0.212533
     6 H     0.000630 -0.000851  0.001066
     7 H     0.001199  0.008405  0.001840
     8 H    -0.000871 -0.000734 -0.003005
     9 C     0.000065 -0.005127  0.005466
    10 H    -0.003700 -0.005501 -0.003972
    11 H     0.000036 -0.003002 -0.003171
    12 C    -0.011813 -0.010729  0.004299
    13 C    -0.017327  0.003091 -0.006192
    14 C    -0.000012  0.021247 -0.013546
    15 C    -0.010211 -0.013140  0.012039
    16 C     0.026315 -0.000866  0.003394
    17 C     0.002139 -0.016590  0.009778
    18 H     0.013180 -0.002933  0.004531
    19 H     0.003046 -0.011458  0.008264
    20 H    -0.010052  0.005587 -0.006006
    21 H    -0.003103  0.011583 -0.007572
    22 H     0.010299  0.008851 -0.003237
    23 H     0.000843 -0.026763  0.024010
    24 Sn   -0.214988  0.201074  0.245631
    25 Cl   -0.006876 -0.024710  0.053067
    26 Cl   -0.038212  0.012167 -0.025830
 ----------------------------------------
 Mulliken charges used for AMS results%charges...

 dE(predicted):    -0.35832E-01, dE(actual):    -0.39617E-01, Trust radius:    0.400000, all in a.u.
 
----------------------------------------------------------------------
Geometry Convergence after Step   2       (Hartree/Angstrom,Angstrom)
----------------------------------------------------------------------
current energy                               -5.16359819 Hartree
energy change                      -0.03961652     0.00026000    F
constrained gradient max            0.24566174     0.00100000    F
constrained gradient rms            0.05907449     0.00066667    F
gradient max                        0.24566174
gradient rms                        0.05907449
cart. step max                      0.11565134     0.01000000    F
cart. step rms                      0.03373139     0.00666667    F
 
 
--------
Geometry
--------
Formula: C10H12Cl2OSn
Atoms
  Index Symbol   x (angstrom)   y (angstrom)   z (angstrom)
      1      H     0.88110084    -1.29780461     1.24553434
      2      C    -0.83739026     0.03186951     0.96099945
      3      C     0.38692315    -0.74407602     0.43822868
      4      C     1.41376715     0.12965035    -0.22498197
      5      O     2.48522195    -0.28455815    -0.65479714
      6      H    -1.20961393     0.67147208     0.15313228
      7      H     0.07618439    -1.48957359    -0.31023498
      8      H    -0.08530297     0.28985027     2.99186289
      9      C    -0.47791080     0.90353408     2.17692676
     10      H     0.27594742     1.65322490     1.91830730
     11      H    -1.36485305     1.42754425     2.54009803
     12      C    -4.06471140    -2.69018817     1.99958521
     13      C    -4.31750059    -1.55126847     1.23490172
     14      C    -3.27347596    -0.68381345     0.90536263
     15      C    -1.96567346    -0.94242139     1.33484080
     16      C    -1.72193090    -2.08963260     2.10339458
     17      C    -2.76505128    -2.95714903     2.43305500
     18      H    -5.32444205    -1.33865938     0.89541974
     19      H    -3.47860060     0.19891983     0.31076770
     20      H    -0.72065400    -2.31154141     2.44896076
     21      H    -2.56380475    -3.84051016     3.02759446
     22      H    -4.87315909    -3.36442420     2.25591863
     23      H     1.18343531     1.19727522    -0.25888049
     24     Sn     3.69241155    -1.13199374    -1.83579497
     25     Cl     3.90233245    -0.69457073    -4.21949480
     26     Cl     5.67081728    -2.42530372    -1.31150982
 
Total System Charge             0.00000
 
 *** GOStep3 ***

 Energy gradients wrt nuclear displacements
 ==========================================

     Atom      Cartesian (a.u./angstrom)
                 X         Y         Z
 ----------------------------------------
     1 H    -0.000747  0.003740  0.002187
     2 C     0.006917  0.022640 -0.016096
     3 C    -0.007963 -0.012483  0.016452
     4 C     0.097385 -0.032404 -0.051219
     5 O     0.046071 -0.085487 -0.160182
     6 H    -0.000125 -0.001170 -0.000044
     7 H    -0.000275  0.004444 -0.000873
     8 H    -0.000178 -0.000586 -0.001600
     9 C    -0.000007 -0.004523  0.006327
    10 H    -0.001387 -0.002386 -0.002620
    11 H    -0.000359 -0.001505 -0.001741
    12 C    -0.003202 -0.002793  0.000956
    13 C    -0.005644 -0.000044 -0.002158
    14 C     0.000185  0.008780 -0.005791
    15 C    -0.006270 -0.008411  0.010302
    16 C     0.011342 -0.002011  0.001901
    17 C     0.000123 -0.005661  0.002826
    18 H     0.004431 -0.001230  0.001910
    19 H     0.001180 -0.003948  0.003329
    20 H    -0.003433  0.002889 -0.002943
    21 H    -0.001363  0.004008 -0.002645
    22 H     0.003521  0.003174 -0.001006
    23 H     0.000874 -0.009265  0.021157
    24 Sn   -0.109468  0.136059  0.165949
    25 Cl   -0.004507 -0.018010  0.032982
    26 Cl   -0.027101  0.006182 -0.017358
 ----------------------------------------
 Mulliken charges used for AMS results%charges...

 dE(predicted):    -0.53410E-01, dE(actual):    -0.56747E-01, Trust radius:    0.800000, all in a.u.
 
----------------------------------------------------------------------
Geometry Convergence after Step   3       (Hartree/Angstrom,Angstrom)
----------------------------------------------------------------------
current energy                               -5.22034563 Hartree
energy change                      -0.05674744     0.00026000    F
constrained gradient max            0.16595914     0.00100000    F
constrained gradient rms            0.03779904     0.00066667    F
gradient max                        0.16595914
gradient rms                        0.03779904
cart. step max                      0.21132147     0.01000000    F
cart. step rms                      0.07194338     0.00666667    F
 
 
--------
Geometry
--------
Formula: C10H12Cl2OSn
Atoms
  Index Symbol   x (angstrom)   y (angstrom)   z (angstrom)
      1      H     0.94466282    -1.23853791     1.34101885
      2      C    -0.82520371     0.02757599     1.01053630
      3      C     0.44505455    -0.70602953     0.52219258
      4      C     1.46158746     0.17676734    -0.13040410
      5      O     2.59980647    -0.24054506    -0.47631695
      6      H    -1.18712459     0.64668577     0.18133834
      7      H     0.17895319    -1.47649680    -0.22132998
      8      H    -0.13864866     0.36527126     3.06113352
      9      C    -0.52176954     0.94548017     2.21605615
     10      H     0.22185673     1.71297148     1.96958388
     11      H    -1.42973499     1.45879740     2.54431786
     12      C    -4.07443476    -2.70664216     1.94888605
     13      C    -4.29462673    -1.58445411     1.15237429
     14      C    -3.24072508    -0.72028331     0.85530432
     15      C    -1.94877721    -0.95448027     1.34540461
     16      C    -1.74350166    -2.08716060     2.14668400
     17      C    -2.79447324    -2.95338962     2.44494150
     18      H    -5.28891732    -1.38066005     0.75700328
     19      H    -3.42773546     0.15223781     0.22934889
     20      H    -0.75768204    -2.30600308     2.55213006
     21      H    -2.61087458    -3.82738226     3.06852476
     22      H    -4.89338459    -3.38565222     2.18114382
     23      H     1.22199814     1.24484598    -0.28441902
     24     Sn     3.60451216    -1.32308958    -1.96858523
     25     Cl     3.70052764    -0.66930349    -4.36483968
     26     Cl     5.72272134    -2.50467147    -1.52283129
 
Total System Charge             0.00000
 
 *** GOStep4 ***

 Energy gradients wrt nuclear displacements
 ==========================================

     Atom      Cartesian (a.u./angstrom)
                 X         Y         Z
 ----------------------------------------
     1 H     0.000112  0.002505  0.002040
     2 C    -0.001016  0.009078 -0.009761
     3 C     0.000214 -0.008822  0.004892
     4 C    -0.023687 -0.002673 -0.008714
     5 O     0.061698 -0.063808 -0.088970
     6 H    -0.000642 -0.001805 -0.000247
     7 H    -0.000991  0.001071 -0.000707
     8 H     0.000268 -0.000364 -0.000489
     9 C     0.000111 -0.001285  0.004519
    10 H     0.000425  0.001142 -0.000191
    11 H    -0.000264  0.000158 -0.000199
    12 C     0.002045  0.002047 -0.000936
    13 C     0.002436 -0.000855  0.000930
    14 C    -0.000272 -0.001592  0.001078
    15 C    -0.001110 -0.002175  0.004875
    16 C    -0.001328 -0.001444 -0.000963
    17 C    -0.000002  0.002509 -0.001860
    18 H    -0.001942  0.000264 -0.000619
    19 H    -0.000356  0.001713 -0.000896
    20 H     0.001672 -0.000152  0.000403
    21 H     0.000206 -0.001583  0.001178
    22 H    -0.001544 -0.001233  0.000455
    23 H     0.002242  0.006348  0.012408
    24 Sn   -0.030282  0.079136  0.086639
    25 Cl   -0.003797 -0.009704  0.000453
    26 Cl   -0.004195 -0.008477 -0.005317
 ----------------------------------------
 Mulliken charges used for AMS results%charges...

 dE(predicted):    -0.47727E-01, dE(actual):    -0.54911E-01, Trust radius:    1.000000, all in a.u.
 
----------------------------------------------------------------------
Geometry Convergence after Step   4       (Hartree/Angstrom,Angstrom)
----------------------------------------------------------------------
current energy                               -5.27525694 Hartree
energy change                      -0.05491131     0.00026000    F
constrained gradient max            0.08898122     0.00100000    F
constrained gradient rms            0.02024053     0.00066667    F
gradient max                        0.08898122
gradient rms                        0.02024053
cart. step max                      0.21559540     0.01000000    F
cart. step rms                      0.05650861     0.00666667    F
 
 
--------
Geometry
--------
Formula: C10H12Cl2OSn
Atoms
  Index Symbol   x (angstrom)   y (angstrom)   z (angstrom)
      1      H     0.96497316    -1.25239804     1.38580389
      2      C    -0.81182021     0.00462080     1.02736900
      3      C     0.46571993    -0.73022604     0.56038273
      4      C     1.48116856     0.13479952    -0.10779979
      5      O     2.62267730    -0.29902609    -0.42015905
      6      H    -1.15884336     0.61265203     0.18297674
      7      H     0.20878701    -1.51616737    -0.17057586
      8      H    -0.15135349     0.39246581     3.07962550
      9      C    -0.52105620     0.95114237     2.21378692
     10      H     0.22913424     1.70923799     1.95842431
     11      H    -1.43075637     1.47630883     2.51804793
     12      C    -4.09590663    -2.68953858     1.95118441
     13      C    -4.28902355    -1.58730316     1.11967371
     14      C    -3.22308214    -0.73680081     0.82694545
     15      C    -1.94407963    -0.96328553     1.35403274
     16      C    -1.76692075    -2.07528367     2.19005877
     17      C    -2.82948543    -2.92867516     2.48500651
     18      H    -5.27117394    -1.38779946     0.69298994
     19      H    -3.39038800     0.11911802     0.17266616
     20      H    -0.79358841    -2.28980023     2.62814083
     21      H    -2.66456195    -3.78624258     3.13608737
     22      H    -4.92402241    -3.35822539     2.18078878
     23      H     1.23153092     1.18313700    -0.35856009
     24     Sn     3.45660276    -1.52620451    -2.07026387
     25     Cl     3.76300936    -0.45370810    -4.31309250
     26     Cl     5.76652560    -2.33694597    -1.66434370
 
Total System Charge             0.00000
 
 *** GOStep5 ***

 Energy gradients wrt nuclear displacements
 ==========================================

     Atom      Cartesian (a.u./angstrom)
                 X         Y         Z
 ----------------------------------------
     1 H     0.000052  0.001716  0.001564
     2 C    -0.002788  0.003231 -0.005483
     3 C     0.005045 -0.007991 -0.002752
     4 C    -0.046775  0.011252  0.003373
     5 O     0.056752 -0.048971 -0.048481
     6 H    -0.000351 -0.001601 -0.000232
     7 H    -0.001227 -0.000093  0.000350
     8 H     0.000279 -0.000345 -0.000126
     9 C     0.000107  0.000317  0.002632
    10 H     0.000383  0.001212  0.000204
    11 H    -0.000234  0.000321  0.000165
    12 C     0.001489  0.001407 -0.000593
    13 C     0.002332 -0.000233  0.000690
    14 C    -0.000551 -0.002055  0.002008
    15 C     0.001132  0.000117  0.002306
    16 C    -0.002327 -0.000511 -0.001606
    17 C     0.000315  0.002267 -0.001621
    18 H    -0.001863  0.000428 -0.000845
    19 H    -0.000420  0.001776 -0.001255
    20 H     0.001699 -0.000692  0.000931
    21 H     0.000384 -0.001595  0.001276
    22 H    -0.001541 -0.001276  0.000472
    23 H     0.002314  0.004932  0.005294
    24 Sn   -0.028935  0.049656  0.062433
    25 Cl    0.001901 -0.002085 -0.016616
    26 Cl    0.012831 -0.011183 -0.004088
 ----------------------------------------
 Mulliken charges used for AMS results%charges...
 Rebuilding optimization coordinates

 dE(predicted):    -0.23400E-01, dE(actual):    -0.21425E-01, Trust radius:    1.000000, all in a.u.
 
----------------------------------------------------------------------
Geometry Convergence after Step   5       (Hartree/Angstrom,Angstrom)
----------------------------------------------------------------------
current energy                               -5.29668178 Hartree
energy change                      -0.02142483     0.00026000    F
constrained gradient max            0.06242774     0.00100000    F
constrained gradient rms            0.01534733     0.00066667    F
gradient max                        0.06242774
gradient rms                        0.01534733
cart. step max                      0.19800839     0.01000000    F
cart. step rms                      0.04931957     0.00666667    F
 
 
--------
Geometry
--------
Formula: C10H12Cl2OSn
Atoms
  Index Symbol   x (angstrom)   y (angstrom)   z (angstrom)
      1      H     0.96472053    -1.28679028     1.37632595
      2      C    -0.80660995    -0.01811615     1.02006822
      3      C     0.46165218    -0.76699403     0.55196010
      4      C     1.47839113     0.07544168    -0.14008364
      5      O     2.60745439    -0.36871650    -0.44293486
      6      H    -1.15026954     0.58594300     0.17102469
      7      H     0.19448878    -1.55935654    -0.16835517
      8      H    -0.13280632     0.39088382     3.06430116
      9      C    -0.50022404     0.94065569     2.19170783
     10      H     0.25737236     1.68594957     1.92184503
     11      H    -1.40243466     1.48031281     2.49266032
     12      C    -4.11589986    -2.66686068     1.97961791
     13      C    -4.29763355    -1.57641091     1.12980165
     14      C    -3.22351716    -0.74045984     0.82492256
     15      C    -1.94741659    -0.96962044     1.35794814
     16      C    -1.78180243    -2.06922442     2.21243043
     17      C    -2.85240296    -2.90850886     2.51952855
     18      H    -5.27668782    -1.37481026     0.69823300
     19      H    -3.38216587     0.10571926     0.15667222
     20      H    -0.81153944    -2.28513533     2.65597713
     21      H    -2.69583742    -3.75633586     3.18450010
     22      H    -4.94999515    -3.32400209     2.21846447
     23      H     1.23402518     1.11757682    -0.42007354
     24     Sn     3.38127464    -1.64800838    -2.14976218
     25     Cl     3.90353698    -0.25569971    -4.16850895
     26     Cl     5.76839295    -2.14158068    -1.67907432
 
Total System Charge             0.00000
 
 *** GOStep6 ***

 Energy gradients wrt nuclear displacements
 ==========================================

     Atom      Cartesian (a.u./angstrom)
                 X         Y         Z
 ----------------------------------------
     1 H    -0.000274  0.001144  0.001259
     2 C    -0.003093  0.001244 -0.003265
     3 C     0.007753 -0.006077 -0.003997
     4 C    -0.039447  0.010430  0.001443
     5 O     0.041780 -0.035662 -0.029551
     6 H    -0.000205 -0.001382 -0.000275
     7 H    -0.000604 -0.000414  0.000165
     8 H     0.000241 -0.000302 -0.000043
     9 C     0.000063  0.000786  0.001687
    10 H     0.000279  0.000955  0.000199
    11 H    -0.000176  0.000241  0.000221
    12 C     0.000890  0.000775 -0.000345
    13 C     0.001660  0.000068  0.000383
    14 C    -0.000599 -0.001599  0.001719
    15 C     0.001708  0.000781  0.001360
    16 C    -0.001832 -0.000125 -0.001610
    17 C     0.000311  0.001568 -0.001082
    18 H    -0.001308  0.000372 -0.000674
    19 H    -0.000333  0.001317 -0.001012
    20 H     0.001297 -0.000702  0.000818
    21 H     0.000348 -0.001145  0.000943
    22 H    -0.001093 -0.000934  0.000344
    23 H     0.003194  0.002597  0.003139
    24 Sn   -0.041623  0.025852  0.052351
    25 Cl    0.010772  0.004586 -0.018542
    26 Cl    0.020289 -0.004375 -0.005635
 ----------------------------------------
 Mulliken charges used for AMS results%charges...

 dE(predicted):    -0.20047E-01, dE(actual):    -0.76358E-02, Trust radius:    1.000000, all in a.u.
 
----------------------------------------------------------------------
Geometry Convergence after Step   6       (Hartree/Angstrom,Angstrom)
----------------------------------------------------------------------
current energy                               -5.30431755 Hartree
energy change                      -0.00763577     0.00026000    F
constrained gradient max            0.05234310     0.00100000    F
constrained gradient rms            0.01232684     0.00066667    F
gradient max                        0.05234310
gradient rms                        0.01232684
cart. step max                      0.19422161     0.01000000    F
cart. step rms                      0.05095351     0.00666667    F
 
 
--------
Geometry
--------
Formula: C10H12Cl2OSn
Atoms
  Index Symbol   x (angstrom)   y (angstrom)   z (angstrom)
      1      H     0.97653256    -1.31946216     1.35470660
      2      C    -0.79440038    -0.04013695     1.01663672
      3      C     0.46239856    -0.79959705     0.53752999
      4      C     1.47419943     0.02077459    -0.18618054
      5      O     2.59095070    -0.42270175    -0.47707158
      6      H    -1.13577318     0.56689441     0.16818788
      7      H     0.18134313    -1.59699738    -0.17185395
      8      H    -0.10345755     0.37720944     3.05411597
      9      C    -0.46788536     0.92319093     2.17776956
     10      H     0.29913076     1.65393306     1.89606943
     11      H    -1.36021314     1.47880907     2.47885300
     12      C    -4.13019742    -2.64435622     2.00025704
     13      C    -4.29698626    -1.57006695     1.12679677
     14      C    -3.21422324    -0.74846816     0.81314848
     15      C    -1.94404258    -0.97594795     1.36082032
     16      C    -1.79364820    -2.05859075     2.23940589
     17      C    -2.87273920    -2.88407229     2.55511462
     18      H    -5.27052677    -1.36985046     0.68364169
     19      H    -3.36142514     0.08447413     0.12671768
     20      H    -0.82908744    -2.27172731     2.69576103
     21      H    -2.72737497    -3.71861859     3.23830221
     22      H    -4.97067979    -3.28991127     2.24574252
     23      H     1.21902131     1.04745870    -0.51167206
     24     Sn     3.30768439    -1.75958721    -2.25052164
     25     Cl     3.98066504    -0.06944112    -3.97666620
     26     Cl     5.70480110    -1.94735907    -1.63641462
 
Total System Charge             0.00000
 
 *** GOStep7 ***

 Energy gradients wrt nuclear displacements
 ==========================================

     Atom      Cartesian (a.u./angstrom)
                 X         Y         Z
 ----------------------------------------
     1 H    -0.000289  0.000428  0.000589
     2 C    -0.003534 -0.001123 -0.000179
     3 C     0.009892 -0.002348 -0.005881
     4 C    -0.020904  0.003678 -0.000815
     5 O     0.018917 -0.017218 -0.011688
     6 H     0.000045 -0.000996 -0.000359
     7 H     0.000630 -0.000856  0.000012
     8 H     0.000142 -0.000266  0.000095
     9 C     0.000019  0.001321  0.000474
    10 H     0.000122  0.000714  0.000290
    11 H    -0.000036  0.000134  0.000239
    12 C     0.000331  0.000161 -0.000014
    13 C     0.000972  0.000423  0.000111
    14 C    -0.000654 -0.000953  0.001395
    15 C     0.002242  0.001098 -0.000043
    16 C    -0.001247  0.000369 -0.001576
    17 C     0.000123  0.000764 -0.000423
    18 H    -0.000655  0.000294 -0.000466
    19 H    -0.000246  0.000765 -0.000736
    20 H     0.000732 -0.000722  0.000748
    21 H     0.000304 -0.000627  0.000531
    22 H    -0.000561 -0.000543  0.000183
    23 H     0.004029 -0.000355  0.000434
    24 Sn   -0.053250 -0.002056  0.036088
    25 Cl    0.019778  0.011116 -0.013200
    26 Cl    0.023097  0.006796 -0.005809
 ----------------------------------------
 Mulliken charges used for AMS results%charges...

 dE(predicted):    -0.55264E-02, dE(actual):    -0.32125E-02, Trust radius:    1.000000, all in a.u.
 
----------------------------------------------------------------------
Geometry Convergence after Step   7       (Hartree/Angstrom,Angstrom)
----------------------------------------------------------------------
current energy                               -5.30753009 Hartree
energy change                      -0.00321254     0.00026000    F
constrained gradient max            0.05326070     0.00100000    F
constrained gradient rms            0.00939255     0.00066667    F
gradient max                        0.05326070
gradient rms                        0.00939255
cart. step max                      0.20844088     0.01000000    F
cart. step rms                      0.04096672     0.00666667    F
 
 
--------
Geometry
--------
Formula: C10H12Cl2OSn
Atoms
  Index Symbol   x (angstrom)   y (angstrom)   z (angstrom)
      1      H     1.00682634    -1.31445659     1.36204701
      2      C    -0.77557802    -0.04057287     1.04021141
      3      C     0.48130484    -0.79253961     0.55372517
      4      C     1.48443877     0.02213712    -0.19071666
      5      O     2.59272171    -0.39594883    -0.46214996
      6      H    -1.11004517     0.57822122     0.19667773
      7      H     0.19947131    -1.59193768    -0.15324195
      8      H    -0.09575390     0.36591978     3.08468001
      9      C    -0.44963571     0.91520266     2.20594717
     10      H     0.32591624     1.63850631     1.92968618
     11      H    -1.33904393     1.47807399     2.50196163
     12      C    -4.12439418    -2.64466964     1.97325138
     13      C    -4.27101225    -1.58891470     1.07405288
     14      C    -3.18419465    -0.76649896     0.77639036
     15      C    -1.92963760    -0.97539927     1.36554056
     16      C    -1.79981457    -2.03910985     2.27033074
     17      C    -2.88291297    -2.86562814     2.56995831
     18      H    -5.23172746    -1.40332268     0.59876444
     19      H    -3.31562707     0.05132915     0.06960536
     20      H    -0.84847224    -2.23597185     2.75974890
     21      H    -2.75326147    -3.68505202     3.27362761
     22      H    -4.96808943    -3.28983100     2.20656056
     23      H     1.18644451     1.01655966    -0.57932038
     24     Sn     3.31033319    -1.76388984    -2.31796043
     25     Cl     3.77222416     0.01347275    -4.01960795
     26     Cl     5.64358590    -2.01982742    -1.53057328
 
Total System Charge             0.00000
 
 *** GOStep8 ***

 Energy gradients wrt nuclear displacements
 ==========================================

     Atom      Cartesian (a.u./angstrom)
                 X         Y         Z
 ----------------------------------------
     1 H     0.000322 -0.000182 -0.000547
     2 C    -0.004178 -0.003639  0.002915
     3 C     0.009346  0.002723 -0.008943
     4 C     0.023489 -0.012977 -0.003289
     5 O    -0.027870  0.005795  0.002708
     6 H     0.000423 -0.000326 -0.000554
     7 H     0.001738 -0.001455  0.000337
     8 H     0.000008 -0.000211  0.000309
     9 C     0.000117  0.001650 -0.000897
    10 H    -0.000047  0.000384  0.000359
    11 H     0.000108 -0.000053  0.000167
    12 C     0.000242 -0.000127  0.000251
    13 C     0.000559  0.000467  0.000038
    14 C    -0.000670 -0.000266  0.001219
    15 C     0.002480  0.001170 -0.001542
    16 C    -0.000726  0.000801 -0.001397
    17 C    -0.000433  0.000045 -0.000040
    18 H    -0.000121  0.000203 -0.000270
    19 H    -0.000151  0.000266 -0.000497
    20 H     0.000171 -0.000686  0.000708
    21 H     0.000238 -0.000204  0.000184
    22 H    -0.000121 -0.000199  0.000066
    23 H     0.004514 -0.003443 -0.002144
    24 Sn   -0.039079 -0.004825  0.023027
    25 Cl    0.008862  0.014814 -0.016182
    26 Cl    0.020778  0.000276  0.004012
 ----------------------------------------
 Mulliken charges used for AMS results%charges...

 dE(predicted):    -0.72882E-02, dE(actual):    -0.51662E-02, Trust radius:    1.000000, all in a.u.
 
----------------------------------------------------------------------
Geometry Convergence after Step   8       (Hartree/Angstrom,Angstrom)
----------------------------------------------------------------------
current energy                               -5.31269633 Hartree
energy change                      -0.00516624     0.00026000    F
constrained gradient max            0.03909011     0.00100000    F
constrained gradient rms            0.00793857     0.00066667    F
gradient max                        0.03909011
gradient rms                        0.00793857
cart. step max                      0.17041858     0.01000000    F
cart. step rms                      0.04093051     0.00666667    F
 
 
--------
Geometry
--------
Formula: C10H12Cl2OSn
Atoms
  Index Symbol   x (angstrom)   y (angstrom)   z (angstrom)
      1      H     0.98927281    -1.35888330     1.32539105
      2      C    -0.77329353    -0.05028890     1.03507706
      3      C     0.45634571    -0.82884589     0.52730636
      4      C     1.45822075    -0.03296549    -0.25292026
      5      O     2.59437654    -0.42411973    -0.47115255
      6      H    -1.10849139     0.58097790     0.20071093
      7      H     0.13996379    -1.62213358    -0.17149434
      8      H    -0.05528531     0.33129276     3.07167401
      9      C    -0.40701253     0.89084063     2.19876260
     10      H     0.38439572     1.59156183     1.91066485
     11      H    -1.27661232     1.47734824     2.50757604
     12      C    -4.13352547    -2.63071844     1.98909601
     13      C    -4.27200806    -1.59572084     1.06485216
     14      C    -3.18418349    -0.77505373     0.76408796
     15      C    -1.93796821    -0.96654717     1.37598716
     16      C    -1.81539596    -2.01025271     2.30492143
     17      C    -2.89945956    -2.83444834     2.60754435
     18      H    -5.22694549    -1.42437226     0.57399540
     19      H    -3.30823756     0.02663856     0.03876648
     20      H    -0.86780967    -2.19371707     2.80541362
     21      H    -2.77700991    -3.63807937     3.32964873
     22      H    -4.97803404    -3.27297413     2.22518635
     23      H     1.14852142     0.96111971    -0.64266899
     24     Sn     3.39895819    -1.74326243    -2.40319641
     25     Cl     3.73481953     0.18389132    -3.94025199
     26     Cl     5.64046440    -1.97543591    -1.41578119
 
Total System Charge             0.00000
 
 *** GOStep9 ***

 Energy gradients wrt nuclear displacements
 ==========================================

     Atom      Cartesian (a.u./angstrom)
                 X         Y         Z
 ----------------------------------------
     1 H    -0.000270 -0.000967  0.000426
     2 C    -0.001779 -0.003987  0.002077
     3 C     0.003102  0.003658  0.000529
     4 C     0.004720 -0.013494 -0.016681
     5 O    -0.003590  0.004939  0.005302
     6 H     0.000492  0.000329 -0.000730
     7 H     0.002366 -0.000607  0.000132
     8 H    -0.000074 -0.000174  0.000396
     9 C    -0.000272  0.000671 -0.000819
    10 H    -0.000198 -0.000209 -0.000148
    11 H     0.000067 -0.000127  0.000066
    12 C    -0.000217 -0.000517  0.000348
    13 C    -0.000212  0.000217 -0.000557
    14 C    -0.000617  0.000360 -0.000035
    15 C     0.001713  0.001852 -0.000198
    16 C     0.000626  0.000824 -0.000623
    17 C    -0.000447 -0.000776  0.000302
    18 H     0.000400  0.000085  0.000107
    19 H    -0.000046 -0.000270  0.000110
    20 H    -0.000066 -0.000415 -0.000045
    21 H     0.000133  0.000316 -0.000261
    22 H     0.000314  0.000257 -0.000055
    23 H     0.003492  0.002226  0.003177
    24 Sn   -0.026923 -0.007246  0.011632
    25 Cl    0.003174  0.014146 -0.012176
    26 Cl    0.014113 -0.001091  0.007725
 ----------------------------------------
 Mulliken charges used for AMS results%charges...

 dE(predicted):    -0.18702E-02, dE(actual):    -0.24387E-02, Trust radius:    1.000000, all in a.u.
 Residual max backtransformation error   0.3397E-05
 
----------------------------------------------------------------------
Geometry Convergence after Step   9       (Hartree/Angstrom,Angstrom)
----------------------------------------------------------------------
current energy                               -5.31513506 Hartree
energy change                      -0.00243873     0.00026000    F
constrained gradient max            0.02694156     0.00100000    F
constrained gradient rms            0.00527881     0.00066667    F
gradient max                        0.02694156
gradient rms                        0.00527881
cart. step max                      0.15622292     0.01000000    F
cart. step rms                      0.05149669     0.00666667    F
 
 
--------
Geometry
--------
Formula: C10H12Cl2OSn
Atoms
  Index Symbol   x (angstrom)   y (angstrom)   z (angstrom)
      1      H     0.97617105    -1.41859374     1.30912889
      2      C    -0.75788046    -0.06789432     1.03812729
      3      C     0.44586201    -0.87632060     0.51837092
      4      C     1.45781544    -0.08813142    -0.27112315
      5      O     2.60718648    -0.46111509    -0.46802474
      6      H    -1.08596395     0.57829323     0.21268385
      7      H     0.09601134    -1.65497185    -0.18090223
      8      H    -0.01691730     0.27678710     3.07294478
      9      C    -0.35857768     0.85182401     2.20666604
     10      H     0.45136193     1.53038646     1.91751278
     11      H    -1.20907733     1.46118457     2.52450147
     12      C    -4.15524585    -2.60039960     1.99355849
     13      C    -4.26658910    -1.59708086     1.03184548
     14      C    -3.16819536    -0.78948346     0.73174119
     15      C    -1.93972434    -0.96428151     1.38232570
     16      C    -1.84452303    -1.97513796     2.35047255
     17      C    -2.93920706    -2.78484117     2.65304309
     18      H    -5.20783462    -1.44154878     0.51088786
     19      H    -3.27024981    -0.01115147    -0.02114248
     20      H    -0.91179497    -2.13702497     2.88388696
     21      H    -2.84052855    -3.56190608     3.40668038
     22      H    -5.00751732    -3.23241304     2.22811688
     23      H     1.07738450     0.84597236    -0.74370465
     24     Sn     3.50901271    -1.70464896    -2.46106485
     25     Cl     3.58840218     0.30756184    -3.87512832
     26     Cl     5.69468548    -1.81921299    -1.39220737
 
Total System Charge             0.00000
 
 *** GOStep10 ***

 Energy gradients wrt nuclear displacements
 ==========================================

     Atom      Cartesian (a.u./angstrom)
                 X         Y         Z
 ----------------------------------------
     1 H     0.001047  0.000194 -0.000392
     2 C     0.000578 -0.001433 -0.001121
     3 C    -0.006482 -0.000005 -0.001949
     4 C     0.009380  0.001560 -0.001975
     5 O     0.010062 -0.000835 -0.001748
     6 H     0.000302  0.000619 -0.000296
     7 H     0.000010 -0.001729  0.001446
     8 H    -0.000179 -0.000159  0.000215
     9 C    -0.000066 -0.000284 -0.000252
    10 H    -0.000314 -0.000570 -0.000228
    11 H    -0.000033 -0.000202 -0.000116
    12 C    -0.000466 -0.000661  0.000207
    13 C    -0.000956  0.000230 -0.000294
    14 C    -0.000214  0.001062 -0.000748
    15 C     0.000536  0.000438 -0.000123
    16 C     0.001651 -0.000251 -0.000149
    17 C    -0.000390 -0.000835  0.000813
    18 H     0.000715 -0.000190  0.000308
    19 H     0.000118 -0.000592  0.000667
    20 H    -0.000531  0.000420 -0.000242
    21 H    -0.000046  0.000617 -0.000558
    22 H     0.000601  0.000439 -0.000264
    23 H    -0.005816 -0.000160  0.001180
    24 Sn   -0.012156 -0.003702  0.004984
    25 Cl   -0.002227  0.008063 -0.006270
    26 Cl    0.004876 -0.002037  0.006904
 ----------------------------------------
 Mulliken charges used for AMS results%charges...

 dE(predicted):    -0.12808E-02, dE(actual):    -0.15077E-02, Trust radius:    1.000000, all in a.u.
 
----------------------------------------------------------------------
Geometry Convergence after Step  10       (Hartree/Angstrom,Angstrom)
----------------------------------------------------------------------
current energy                               -5.31664275 Hartree
energy change                      -0.00150769     0.00026000    F
constrained gradient max            0.01216835     0.00100000    F
constrained gradient rms            0.00294058     0.00066667    F
gradient max                        0.01216835
gradient rms                        0.00294058
cart. step max                      0.20936428     0.01000000    F
cart. step rms                      0.06073435     0.00666667    F
 
 
--------
Geometry
--------
Formula: C10H12Cl2OSn
Atoms
  Index Symbol   x (angstrom)   y (angstrom)   z (angstrom)
      1      H     0.94419630    -1.50185761     1.24919657
      2      C    -0.75732333    -0.10423504     1.01888591
      3      C     0.41249251    -0.94411134     0.47080538
      4      C     1.42523237    -0.17043026    -0.33794001
      5      O     2.58143988    -0.53260982    -0.48559694
      6      H    -1.08936026     0.55094669     0.20265741
      7      H     0.02391833    -1.70469228    -0.22760776
      8      H     0.04155113     0.21977319     3.03532448
      9      C    -0.30635093     0.80354102     2.17784628
     10      H     0.51432823     1.46072695     1.86960136
     11      H    -1.13246331     1.43530881     2.51592225
     12      C    -4.19558435    -2.55609092     2.04341258
     13      C    -4.29031588    -1.57984199     1.05286952
     14      C    -3.17897273    -0.79835275     0.73116072
     15      C    -1.95445236    -0.97287685     1.38860759
     16      C    -1.87599369    -1.95667445     2.38608231
     17      C    -2.98301961    -2.74059225     2.70952367
     18      H    -5.22916659    -1.42448534     0.52720589
     19      H    -3.26815869    -0.03984453    -0.04341282
     20      H    -0.94583349    -2.11677135     2.92434706
     21      H    -2.89781139    -3.49746836     3.48527731
     22      H    -5.05804010    -3.16770238     2.29506457
     23      H     1.03539249     0.75098984    -0.82872447
     24     Sn     3.68865733    -1.60682780    -2.49969707
     25     Cl     3.61893700     0.46987920    -3.77956418
     26     Cl     5.80076750    -1.60984871    -1.32205081
 
Total System Charge             0.00000
 
 *** GOStep11 ***

 Energy gradients wrt nuclear displacements
 ==========================================

     Atom      Cartesian (a.u./angstrom)
                 X         Y         Z
 ----------------------------------------
     1 H     0.000732  0.000200  0.000199
     2 C     0.002474 -0.000060 -0.002256
     3 C    -0.005799 -0.002005  0.001007
     4 C     0.016366  0.001078 -0.012837
     5 O     0.002525  0.001672  0.003695
     6 H     0.000210  0.000477  0.000096
     7 H     0.000027 -0.001395  0.001154
     8 H    -0.000249 -0.000094 -0.000063
     9 C    -0.000035 -0.000494  0.000152
    10 H    -0.000111 -0.000401 -0.000218
    11 H    -0.000030 -0.000058 -0.000127
    12 C    -0.000390 -0.000228  0.000128
    13 C    -0.000840 -0.000003 -0.000068
    14 C     0.000155  0.000928 -0.000667
    15 C    -0.000514 -0.000673 -0.000504
    16 C     0.001071 -0.000635  0.000595
    17 C    -0.000065 -0.000513  0.000564
    18 H     0.000484 -0.000220  0.000309
    19 H     0.000179 -0.000486  0.000627
    20 H    -0.000512  0.000542 -0.000408
    21 H    -0.000118  0.000422 -0.000475
    22 H     0.000428  0.000288 -0.000267
    23 H    -0.007378  0.001732  0.004753
    24 Sn   -0.003288  0.001253  0.002573
    25 Cl   -0.003811  0.001775 -0.002116
    26 Cl   -0.001513 -0.003103  0.004156
 ----------------------------------------
 Mulliken charges used for AMS results%charges...

 dE(predicted):    -0.10524E-02, dE(actual):    -0.12806E-02, Trust radius:    1.000000, all in a.u.
 
----------------------------------------------------------------------
Geometry Convergence after Step  11       (Hartree/Angstrom,Angstrom)
----------------------------------------------------------------------
current energy                               -5.31792337 Hartree
energy change                      -0.00128062     0.00026000    F
constrained gradient max            0.01636500     0.00100000    F
constrained gradient rms            0.00293053     0.00066667    F
gradient max                        0.01636500
gradient rms                        0.00293053
cart. step max                      0.20950922     0.01000000    F
cart. step rms                      0.05375258     0.00666667    F
 
 
--------
Geometry
--------
Formula: C10H12Cl2OSn
Atoms
  Index Symbol   x (angstrom)   y (angstrom)   z (angstrom)
      1      H     0.90783398    -1.57793205     1.19375978
      2      C    -0.75874348    -0.13450336     1.00095303
      3      C     0.37888437    -1.00291198     0.42678788
      4      C     1.39693212    -0.24698030    -0.39497505
      5      O     2.55678580    -0.60600443    -0.50563786
      6      H    -1.09449152     0.52843141     0.19291763
      7      H    -0.04456446    -1.74365841    -0.27232906
      8      H     0.09478224     0.17028990     2.99842615
      9      C    -0.26095094     0.76179144     2.14977289
     10      H     0.56666956     1.40134005     1.82308900
     11      H    -1.06473852     1.41147191     2.50735415
     12      C    -4.22785662    -2.51745476     2.08670352
     13      C    -4.31265611    -1.55962484     1.07766065
     14      C    -3.19203044    -0.79912421     0.73807581
     15      C    -1.96816087    -0.97682720     1.39556638
     16      C    -1.89941000    -1.94284318     2.41110444
     17      C    -3.01553424    -2.70559321     2.75242573
     18      H    -5.25147919    -1.40144165     0.55236682
     19      H    -3.27350590    -0.05453877    -0.05099938
     20      H    -0.96862696    -2.10667751     2.94733238
     21      H    -2.93816809    -3.44913248     3.54207754
     22      H    -5.09793676    -3.11202303     2.35339242
     23      H     1.00407845     0.65890780    -0.91132902
     24     Sn     3.84205635    -1.51710012    -2.50728884
     25     Cl     3.65405161     0.58833013    -3.69570875
     26     Cl     5.89084600    -1.40033949    -1.25230142
 
Total System Charge             0.00000
 
 *** GOStep12 ***

 Energy gradients wrt nuclear displacements
 ==========================================

     Atom      Cartesian (a.u./angstrom)
                 X         Y         Z
 ----------------------------------------
     1 H     0.000583  0.000420  0.000459
     2 C     0.003380  0.000335 -0.002944
     3 C    -0.005388 -0.003469  0.002137
     4 C     0.019657  0.001959 -0.017482
     5 O    -0.001004  0.002514  0.005981
     6 H     0.000073  0.000271  0.000357
     7 H     0.000091 -0.001070  0.000936
     8 H    -0.000256 -0.000011 -0.000224
     9 C    -0.000196 -0.000621  0.000502
    10 H     0.000062 -0.000248 -0.000171
    11 H     0.000003  0.000072 -0.000111
    12 C    -0.000263  0.000029 -0.000067
    13 C    -0.000556 -0.000277 -0.000010
    14 C     0.000361  0.000663 -0.000478
    15 C    -0.001466 -0.000748 -0.000093
    16 C     0.000491 -0.000739  0.000962
    17 C     0.000248 -0.000208  0.000256
    18 H     0.000237 -0.000188  0.000260
    19 H     0.000190 -0.000351  0.000443
    20 H    -0.000324  0.000434 -0.000518
    21 H    -0.000144  0.000221 -0.000311
    22 H     0.000214  0.000185 -0.000162
    23 H    -0.008547  0.002423  0.006434
    24 Sn    0.001854  0.005947  0.002104
    25 Cl   -0.003645 -0.003584  0.000683
    26 Cl   -0.005654 -0.003961  0.001058
 ----------------------------------------
 Mulliken charges used for AMS results%charges...

 dE(predicted):    -0.22588E-02, dE(actual):    -0.11761E-02, Trust radius:    1.000000, all in a.u.
 
----------------------------------------------------------------------
Geometry Convergence after Step  12       (Hartree/Angstrom,Angstrom)
----------------------------------------------------------------------
current energy                               -5.31909942 Hartree
energy change                      -0.00117605     0.00026000    F
constrained gradient max            0.01965587     0.00100000    F
constrained gradient rms            0.00367735     0.00066667    F
gradient max                        0.01965587
gradient rms                        0.00367735
cart. step max                      0.21568180     0.01000000    F
cart. step rms                      0.05096590     0.00666667    F
 
 
--------
Geometry
--------
Formula: C10H12Cl2OSn
Atoms
  Index Symbol   x (angstrom)   y (angstrom)   z (angstrom)
      1      H     0.87148646    -1.64977724     1.14118937
      2      C    -0.76035246    -0.16405157     0.98119540
      3      C     0.34693608    -1.05860067     0.38415928
      4      C     1.37004802    -0.32165465    -0.44884755
      5      O     2.53259116    -0.67746905    -0.53052309
      6      H    -1.09922655     0.50518221     0.17995208
      7      H    -0.10790356    -1.78015881    -0.31503090
      8      H     0.14411101     0.12417446     2.95927059
      9      C    -0.22001574     0.72209369     2.11885920
     10      H     0.61195760     1.34657666     1.77425115
     11      H    -1.00329935     1.38663924     2.49432062
     12      C    -4.25598124    -2.47948211     2.12906330
     13      C    -4.33479855    -1.53419414     1.10789037
     14      C    -3.20568568    -0.79548117     0.74894955
     15      C    -1.97934538    -0.98218127     1.39917997
     16      C    -1.91672165    -1.93529649     2.42724298
     17      C    -3.04111549    -2.67659061     2.78758920
     18      H    -5.27568744    -1.36882574     0.58807602
     19      H    -3.28280934    -0.06005894    -0.04944772
     20      H    -0.98393392    -2.10585578     2.95819184
     21      H    -2.96851587    -3.41064284     3.58683218
     22      H    -5.13268084    -3.05745754     2.41098687
     23      H     0.98068000     0.57091176    -0.98938645
     24     Sn     3.97823845    -1.43223589    -2.49440202
     25     Cl     3.69430704     0.68494586    -3.61756556
     26     Cl     5.96178361    -1.18465769    -1.17279985
 
Total System Charge             0.00000
 
 *** GOStep13 ***

 Energy gradients wrt nuclear displacements
 ==========================================

     Atom      Cartesian (a.u./angstrom)
                 X         Y         Z
 ----------------------------------------
     1 H     0.000409  0.000622  0.000651
     2 C     0.003571  0.000586 -0.003016
     3 C    -0.004704 -0.004265  0.003085
     4 C     0.020311  0.001309 -0.019796
     5 O    -0.003491  0.003720  0.006794
     6 H    -0.000093  0.000114  0.000518
     7 H     0.000262 -0.000702  0.000578
     8 H    -0.000231  0.000059 -0.000303
     9 C    -0.000261 -0.000558  0.000752
    10 H     0.000205 -0.000070 -0.000037
    11 H     0.000036  0.000177 -0.000082
    12 C    -0.000118  0.000225 -0.000228
    13 C    -0.000309 -0.000280  0.000223
    14 C     0.000504  0.000282 -0.000269
    15 C    -0.001934 -0.000963 -0.000042
    16 C    -0.000015 -0.000819  0.000994
    17 C     0.000436  0.000106 -0.000011
    18 H    -0.000005 -0.000160  0.000145
    19 H     0.000152 -0.000141  0.000244
    20 H    -0.000148  0.000383 -0.000415
    21 H    -0.000159  0.000023 -0.000107
    22 H     0.000015  0.000024 -0.000093
    23 H    -0.008404  0.002876  0.007223
    24 Sn    0.004589  0.009598  0.002385
    25 Cl   -0.002475 -0.007673  0.002680
    26 Cl   -0.008141 -0.004471 -0.001875
 ----------------------------------------
 Mulliken charges used for AMS results%charges...

 dE(predicted):    -0.32050E-02, dE(actual):    -0.12112E-02, Trust radius:    1.000000, all in a.u.
 
----------------------------------------------------------------------
Geometry Convergence after Step  13       (Hartree/Angstrom,Angstrom)
----------------------------------------------------------------------
current energy                               -5.32031061 Hartree
energy change                      -0.00121119     0.00026000    F
constrained gradient max            0.02031102     0.00100000    F
constrained gradient rms            0.00419621     0.00066667    F
gradient max                        0.02031102
gradient rms                        0.00419621
cart. step max                      0.22150492     0.01000000    F
cart. step rms                      0.05163059     0.00666667    F
 
 
--------
Geometry
--------
Formula: C10H12Cl2OSn
Atoms
  Index Symbol   x (angstrom)   y (angstrom)   z (angstrom)
      1      H     0.83054221    -1.72355252     1.08740864
      2      C    -0.76215351    -0.19319951     0.95880802
      3      C     0.31301506    -1.11480141     0.34014241
      4      C     1.34230954    -0.39899616    -0.50175875
      5      O     2.50679487    -0.75323708    -0.55870720
      6      H    -1.10340027     0.48164689     0.16349820
      7      H    -0.17324948    -1.81529306    -0.35909045
      8      H     0.19516963     0.07923467     2.91483485
      9      C    -0.17809445     0.68292896     2.08266219
     10      H     0.65700103     1.29178010     1.71800521
     11      H    -0.93970589     1.36231760     2.47582607
     12      C    -4.27992339    -2.44135459     2.17208425
     13      C    -4.35568604    -1.50607300     1.14153547
     14      C    -3.21983338    -0.78785095     0.76306780
     15      C    -1.98935508    -0.98582757     1.40205813
     16      C    -1.92969537    -1.92918629     2.43917854
     17      C    -3.06086834    -2.64984463     2.81925276
     18      H    -5.29980028    -1.33176000     0.63012663
     19      H    -3.29482476    -0.06012763    -0.04290185
     20      H    -0.99323960    -2.10992441     2.96061022
     21      H    -2.99027851    -3.37713196     3.62513066
     22      H    -5.16211527    -3.00309235     2.47000452
     23      H     0.96138950     0.48034933    -1.06799334
     24     Sn     4.10425611    -1.34557730    -2.46599136
     25     Cl     3.73579139     0.77757729    -3.53281496
     26     Cl     6.01002067    -0.96315276    -1.07577982
 
Total System Charge             0.00000
 
 *** GOStep14 ***

 Energy gradients wrt nuclear displacements
 ==========================================

     Atom      Cartesian (a.u./angstrom)
                 X         Y         Z
 ----------------------------------------
     1 H     0.000276  0.000769  0.000732
     2 C     0.003350  0.000617 -0.002937
     3 C    -0.003669 -0.004630  0.003715
     4 C     0.018651  0.000324 -0.019701
     5 O    -0.004759  0.004724  0.006449
     6 H    -0.000192  0.000031  0.000598
     7 H     0.000411 -0.000361  0.000185
     8 H    -0.000171  0.000106 -0.000336
     9 C    -0.000259 -0.000478  0.000876
    10 H     0.000346  0.000062  0.000016
    11 H     0.000049  0.000240 -0.000078
    12 C     0.000044  0.000408 -0.000306
    13 C     0.000032 -0.000462  0.000175
    14 C     0.000512  0.000052  0.000081
    15 C    -0.002188 -0.000883  0.000160
    16 C    -0.000481 -0.000654  0.000985
    17 C     0.000571  0.000305 -0.000332
    18 H    -0.000225 -0.000083  0.000036
    19 H     0.000115  0.000016 -0.000027
    20 H     0.000079  0.000197 -0.000367
    21 H    -0.000140 -0.000177  0.000065
    22 H    -0.000173 -0.000090  0.000018
    23 H    -0.007535  0.003082  0.007224
    24 Sn    0.005652  0.012294  0.003096
    25 Cl   -0.000724 -0.010689  0.004252
    26 Cl   -0.009574 -0.004721 -0.004578
 ----------------------------------------
 Mulliken charges used for AMS results%charges...

 dE(predicted):    -0.30689E-02, dE(actual):    -0.12512E-02, Trust radius:    1.000000, all in a.u.
 
----------------------------------------------------------------------
Geometry Convergence after Step  14       (Hartree/Angstrom,Angstrom)
----------------------------------------------------------------------
current energy                               -5.32156177 Hartree
energy change                      -0.00125116     0.00026000    F
constrained gradient max            0.01970868     0.00100000    F
constrained gradient rms            0.00435986     0.00066667    F
gradient max                        0.01970868
gradient rms                        0.00435986
cart. step max                      0.21410580     0.01000000    F
cart. step rms                      0.04251317     0.00666667    F
 
 
--------
Geometry
--------
Formula: C10H12Cl2OSn
Atoms
  Index Symbol   x (angstrom)   y (angstrom)   z (angstrom)
      1      H     0.82107215    -1.74672078     1.09077564
      2      C    -0.76461058    -0.21078496     0.94162311
      3      C     0.30584623    -1.14663105     0.33505054
      4      C     1.33722650    -0.44868144    -0.51748125
      5      O     2.49437377    -0.82366339    -0.59528949
      6      H    -1.10564536     0.45180596     0.13599524
      7      H    -0.18478816    -1.85466037    -0.35345523
      8      H     0.20046969     0.09099066     2.88967524
      9      C    -0.17415971     0.68200574     2.04901240
     10      H     0.66118360     1.28276554     1.67170393
     11      H    -0.93265898     1.36967628     2.43370491
     12      C    -4.28753974    -2.42476075     2.20165807
     13      C    -4.36254988    -1.50596591     1.15630265
     14      C    -3.22492889    -0.79879104     0.76284780
     15      C    -1.99324165    -0.99144424     1.40122963
     16      C    -1.93438525    -1.91812832     2.45326644
     17      C    -3.06738328    -2.62773289     2.84844317
     18      H    -5.30748310    -1.33593251     0.64484086
     19      H    -3.29951312    -0.08388053    -0.05465865
     20      H    -0.99722450    -2.09441883     2.97512594
     21      H    -2.99723929    -3.34207365     3.66593996
     22      H    -5.17115509    -2.97790953     2.51139488
     23      H     0.95479325     0.40209350    -1.12427191
     24     Sn     4.11981292    -1.24159493    -2.52276963
     25     Cl     3.82176280     0.99168308    -3.36473462
     26     Cl     6.01203206    -1.03139396    -1.07673284
 
Total System Charge             0.00000
 
 *** GOStep15 ***

 Energy gradients wrt nuclear displacements
 ==========================================

     Atom      Cartesian (a.u./angstrom)
                 X         Y         Z
 ----------------------------------------
     1 H     0.000495  0.001009  0.000418
     2 C     0.002852  0.000737 -0.002914
     3 C    -0.004511 -0.006615 -0.000180
     4 C     0.019661  0.006238 -0.006692
     5 O    -0.005251  0.003496  0.001647
     6 H    -0.000232  0.000025  0.000587
     7 H    -0.000369 -0.000798  0.000664
     8 H    -0.000149  0.000102 -0.000308
     9 C    -0.000180 -0.000352  0.000851
    10 H     0.000324  0.000059  0.000105
    11 H     0.000019  0.000225 -0.000071
    12 C     0.000093  0.000385 -0.000335
    13 C     0.000154 -0.000411  0.000212
    14 C     0.000472 -0.000026  0.000174
    15 C    -0.002026 -0.000803  0.000211
    16 C    -0.000592 -0.000573  0.000845
    17 C     0.000541  0.000362 -0.000399
    18 H    -0.000281 -0.000057 -0.000015
    19 H     0.000091  0.000066 -0.000113
    20 H     0.000127  0.000145 -0.000287
    21 H    -0.000132 -0.000224  0.000131
    22 H    -0.000228 -0.000129  0.000048
    23 H    -0.007306  0.000274  0.003043
    24 Sn    0.005906  0.011293  0.004736
    25 Cl   -0.000447 -0.010711  0.003026
    26 Cl   -0.009033 -0.003717 -0.005381
 ----------------------------------------
 Mulliken charges used for AMS results%charges...

 dE(predicted):    -0.45266E-02, dE(actual):    -0.99837E-03, Trust radius:    1.000000, all in a.u.
 
----------------------------------------------------------------------
Geometry Convergence after Step  15       (Hartree/Angstrom,Angstrom)
----------------------------------------------------------------------
current energy                               -5.32256014 Hartree
energy change                      -0.00099837     0.00026000    F
constrained gradient max            0.01965618     0.00100000    F
constrained gradient rms            0.00375909     0.00066667    F
gradient max                        0.01965618
gradient rms                        0.00375909
cart. step max                      0.22025951     0.01000000    F
cart. step rms                      0.03927505     0.00666667    F
 
 
--------
Geometry
--------
Formula: C10H12Cl2OSn
Atoms
  Index Symbol   x (angstrom)   y (angstrom)   z (angstrom)
      1      H     0.79047105    -1.80407357     1.06385183
      2      C    -0.76916416    -0.23909178     0.92496580
      3      C     0.28500967    -1.19344889     0.31049758
      4      C     1.32295059    -0.51712451    -0.53906387
      5      O     2.49045040    -0.86900460    -0.61417709
      6      H    -1.10944242     0.42210261     0.11786529
      7      H    -0.22162708    -1.88939651    -0.37870865
      8      H     0.22568770     0.06389693     2.85888918
      9      C    -0.15508343     0.65390962     2.01992451
     10      H     0.67999679     1.24643373     1.62920512
     11      H    -0.90262752     1.34967490     2.41142632
     12      C    -4.31086001    -2.39239950     2.23419313
     13      C    -4.38266594    -1.47585861     1.18642035
     14      C    -3.23831527    -0.78974724     0.77690601
     15      C    -2.00186290    -1.00031798     1.40095954
     16      C    -1.94656783    -1.92414310     2.45530862
     17      C    -3.08669506    -2.61279989     2.86711573
     18      H    -5.33047308    -1.29126185     0.68466731
     19      H    -3.31162276    -0.07610584    -0.04253486
     20      H    -1.00738859    -2.11465833     2.96962050
     21      H    -3.01809654    -3.32464419     3.68741325
     22      H    -5.19996119    -2.92970817     2.55697142
     23      H     0.98681138     0.34755873    -1.14975115
     24     Sn     4.18435653    -1.20217359    -2.48690083
     25     Cl     3.87616604     1.03936777    -3.32433421
     26     Cl     6.07462001    -0.81113446    -1.06153399
 
Total System Charge             0.00000
 
 *** GOStep16 ***

 Energy gradients wrt nuclear displacements
 ==========================================

     Atom      Cartesian (a.u./angstrom)
                 X         Y         Z
 ----------------------------------------
     1 H     0.000370  0.001610  0.000166
     2 C     0.000188 -0.000473 -0.000853
     3 C    -0.002994 -0.002503 -0.000538
     4 C     0.002658 -0.010091  0.000640
     5 O    -0.000022  0.012789 -0.005790
     6 H    -0.000432  0.000016  0.000368
     7 H     0.000223 -0.000336 -0.000016
     8 H     0.000009  0.000036 -0.000085
     9 C    -0.000259  0.000123  0.000608
    10 H     0.000464  0.000297  0.000244
    11 H     0.000098  0.000294 -0.000006
    12 C     0.000470  0.000347 -0.000385
    13 C     0.000826 -0.000110  0.000332
    14 C     0.000114 -0.000732  0.000859
    15 C    -0.000972 -0.000101  0.000212
    16 C    -0.001221 -0.000236 -0.000216
    17 C     0.000358  0.000729 -0.000705
    18 H    -0.000601  0.000090 -0.000323
    19 H    -0.000091  0.000479 -0.000607
    20 H     0.000444 -0.000165  0.000322
    21 H    -0.000025 -0.000494  0.000530
    22 H    -0.000528 -0.000367  0.000228
    23 H     0.003753  0.001388  0.002329
    24 Sn   -0.000102  0.004110  0.003657
    25 Cl    0.002557 -0.006478  0.003540
    26 Cl   -0.005284 -0.000223 -0.004511
 ----------------------------------------
 Mulliken charges used for AMS results%charges...

 dE(predicted):    -0.79038E-02, dE(actual):    -0.82369E-03, Trust radius:    0.043160, all in a.u.
 
----------------------------------------------------------------------
Geometry Convergence after Step  16       (Hartree/Angstrom,Angstrom)
----------------------------------------------------------------------
current energy                               -5.32338382 Hartree
energy change                      -0.00082369     0.00026000    F
constrained gradient max            0.01276625     0.00100000    F
constrained gradient rms            0.00252381     0.00066667    F
gradient max                        0.01276625
gradient rms                        0.00252381
cart. step max                      0.02895467     0.01000000    F
cart. step rms                      0.00629614     0.00666667    T
 
 
--------
Geometry
--------
Formula: C10H12Cl2OSn
Atoms
  Index Symbol   x (angstrom)   y (angstrom)   z (angstrom)
      1      H     0.78744357    -1.80937687     1.06172629
      2      C    -0.76891316    -0.24065069     0.92117354
      3      C     0.28286442    -1.19787770     0.30810342
      4      C     1.31950491    -0.52389669    -0.54234445
      5      O     2.48672128    -0.88224501    -0.61273451
      6      H    -1.10816073     0.41966569     0.11281958
      7      H    -0.22503835    -1.89395513    -0.37999536
      8      H     0.22745085     0.06437119     2.85384314
      9      C    -0.15313159     0.65319421     2.01389262
     10      H     0.68213115     1.24361074     1.62085737
     11      H    -0.89973163     1.35043068     2.40446725
     12      C    -4.30921165    -2.38991851     2.23808003
     13      C    -4.38244555    -1.47525192     1.18865396
     14      C    -3.23855211    -0.79001083     0.77616521
     15      C    -2.00132734    -0.99980991     1.39909861
     16      C    -1.94447924    -1.92159742     2.45506469
     17      C    -3.08422198    -2.60944637     2.86975890
     18      H    -5.33072144    -1.29150295     0.68802155
     19      H    -3.31274735    -0.07800355    -0.04423900
     20      H    -1.00467334    -2.11114989     2.96817471
     21      H    -3.01448652    -3.31964854     3.69103320
     22      H    -5.19777399    -2.92637766     2.56291025
     23      H     0.98186201     0.33894940    -1.15597308
     24     Sn     4.18758217    -1.18604787    -2.49136509
     25     Cl     3.87099369     1.06832243    -3.30193747
     26     Cl     6.07312830    -0.82592515    -1.04605855
 
Total System Charge             0.00000
 
 *** GOStep17 ***

 Energy gradients wrt nuclear displacements
 ==========================================

     Atom      Cartesian (a.u./angstrom)
                 X         Y         Z
 ----------------------------------------
     1 H     0.000399  0.001164  0.000403
     2 C     0.000463 -0.000288 -0.000677
     3 C    -0.002074 -0.002443 -0.001003
     4 C    -0.000777 -0.007493  0.000372
     5 O     0.002666  0.010010 -0.004141
     6 H    -0.000305  0.000076  0.000291
     7 H     0.000414 -0.000379  0.000062
     8 H    -0.000014 -0.000015  0.000001
     9 C    -0.000277  0.000097  0.000428
    10 H     0.000289  0.000113  0.000139
    11 H     0.000068  0.000202 -0.000029
    12 C     0.000226  0.000159 -0.000242
    13 C     0.000433 -0.000054  0.000176
    14 C     0.000075 -0.000382  0.000435
    15 C    -0.000507 -0.000087  0.000017
    16 C    -0.000631 -0.000092 -0.000182
    17 C     0.000218  0.000396 -0.000372
    18 H    -0.000323  0.000046 -0.000190
    19 H    -0.000069  0.000251 -0.000349
    20 H     0.000282 -0.000112  0.000192
    21 H    -0.000013 -0.000278  0.000288
    22 H    -0.000278 -0.000214  0.000126
    23 H     0.002194  0.001939  0.002086
    24 Sn   -0.000280  0.003191  0.003080
    25 Cl    0.002054 -0.005377  0.002673
    26 Cl   -0.004233 -0.000430 -0.003581
 ----------------------------------------
 Mulliken charges used for AMS results%charges...

 dE(predicted):    -0.23565E-03, dE(actual):    -0.27669E-03, Trust radius:    0.086321, all in a.u.
 
----------------------------------------------------------------------
Geometry Convergence after Step  17       (Hartree/Angstrom,Angstrom)
----------------------------------------------------------------------
current energy                               -5.32366051 Hartree
energy change                      -0.00027669     0.00026000    F
constrained gradient max            0.00998590     0.00100000    F
constrained gradient rms            0.00196885     0.00066667    F
gradient max                        0.00998590
gradient rms                        0.00196885
cart. step max                      0.05821158     0.01000000    F
cart. step rms                      0.01330394     0.00666667    F
 
 
--------
Geometry
--------
Formula: C10H12Cl2OSn
Atoms
  Index Symbol   x (angstrom)   y (angstrom)   z (angstrom)
      1      H     0.78125914    -1.82416591     1.05928064
      2      C    -0.76700940    -0.24709957     0.91383774
      3      C     0.28017935    -1.21112587     0.30421640
      4      C     1.31763004    -0.54636038    -0.54786192
      5      O     2.48415902    -0.91279241    -0.60992497
      6      H    -1.10340678     0.41121112     0.10248114
      7      H    -0.23181409    -1.90716679    -0.38094506
      8      H     0.23310327     0.06249153     2.84360674
      9      C    -0.14657286     0.64867436     2.00134697
     10      H     0.68974650     1.23396221     1.60368410
     11      H    -0.89045075     1.34994161     2.38971711
     12      C    -4.30976724    -2.38084858     2.24573589
     13      C    -4.38306729    -1.47049752     1.19242375
     14      C    -3.23843249    -0.78955533     0.77457988
     15      C    -2.00046702    -0.99967948     1.39613787
     16      C    -1.94353555    -1.91686335     2.45605052
     17      C    -3.08411766    -2.60057067     2.87599805
     18      H    -5.33160917    -1.28682422     0.69308723
     19      H    -3.31240054    -0.08114563    -0.04838258
     20      H    -1.00333112    -2.10622555     2.96781167
     21      H    -3.01415469    -3.30718682     3.69981758
     22      H    -5.19868819    -2.91367605     2.57431077
     23      H     0.98095176     0.31212488    -1.16917520
     24     Sn     4.19906408    -1.15242935    -2.50286520
     25     Cl     3.84402198     1.12653401    -3.25458241
     26     Cl     6.07277607    -0.82487459    -1.02118993
 
Total System Charge             0.00000
 
 *** GOStep18 ***

 Energy gradients wrt nuclear displacements
 ==========================================

     Atom      Cartesian (a.u./angstrom)
                 X         Y         Z
 ----------------------------------------
     1 H     0.000449  0.000694  0.000509
     2 C     0.000274 -0.000406 -0.000122
     3 C    -0.000458 -0.001280 -0.002081
     4 C    -0.004483 -0.005780  0.000807
     5 O     0.004865  0.007602 -0.001987
     6 H    -0.000111  0.000183  0.000155
     7 H     0.000508 -0.000467  0.000218
     8 H    -0.000052 -0.000040  0.000099
     9 C    -0.000218 -0.000054  0.000030
    10 H     0.000033 -0.000146  0.000036
    11 H     0.000019  0.000040 -0.000087
    12 C    -0.000081 -0.000118  0.000007
    13 C    -0.000120 -0.000009 -0.000056
    14 C    -0.000004  0.000084 -0.000113
    15 C     0.000178  0.000207 -0.000282
    16 C     0.000155  0.000109 -0.000101
    17 C    -0.000064 -0.000128  0.000100
    18 H     0.000088 -0.000023  0.000017
    19 H    -0.000018 -0.000085  0.000053
    20 H    -0.000018 -0.000034 -0.000013
    21 H     0.000001  0.000040 -0.000081
    22 H     0.000090  0.000019 -0.000028
    23 H     0.000664  0.002418  0.001857
    24 Sn   -0.001184  0.000068  0.001236
    25 Cl    0.001241 -0.002431  0.001188
    26 Cl   -0.001755 -0.000463 -0.001361
 ----------------------------------------
 Mulliken charges used for AMS results%charges...

 dE(predicted):    -0.41703E-03, dE(actual):    -0.44777E-03, Trust radius:    0.172642, all in a.u.
 
----------------------------------------------------------------------
Geometry Convergence after Step  18       (Hartree/Angstrom,Angstrom)
----------------------------------------------------------------------
current energy                               -5.32410828 Hartree
energy change                      -0.00044777     0.00026000    F
constrained gradient max            0.00757861     0.00100000    F
constrained gradient rms            0.00149626     0.00066667    F
gradient max                        0.00757861
gradient rms                        0.00149626
cart. step max                      0.11083906     0.01000000    F
cart. step rms                      0.03136774     0.00666667    F
 
 
--------
Geometry
--------
Formula: C10H12Cl2OSn
Atoms
  Index Symbol   x (angstrom)   y (angstrom)   z (angstrom)
      1      H     0.76672740    -1.86213397     1.04469579
      2      C    -0.76295733    -0.26648565     0.89593816
      3      C     0.27071396    -1.24682566     0.28819196
      4      C     1.31053464    -0.60055832    -0.57269984
      5      O     2.47568004    -0.97467891    -0.62583631
      6      H    -1.09690587     0.38825148     0.08060301
      7      H    -0.25401745    -1.94030760    -0.39001301
      8      H     0.25437969     0.04987092     2.81565495
      9      C    -0.12615935     0.63213917     1.97109339
     10      H     0.71229289     1.20613965     1.56200031
     11      H    -0.86076611     1.34338785     2.35893768
     12      C    -4.31631779    -2.35546182     2.26828965
     13      C    -4.38768484    -1.45499502     1.20634767
     14      C    -3.23958775    -0.78820710     0.77536077
     15      C    -2.00001120    -1.00294681     1.39216752
     16      C    -1.94505364    -1.90996304     2.46092488
     17      C    -3.08915482    -2.57959375     2.89398071
     18      H    -5.33730046    -1.26804784     0.71055590
     19      H    -3.31193289    -0.08730109    -0.05395132
     20      H    -1.00378799    -2.10213625     2.96938341
     21      H    -3.02056298    -3.27846260     3.72431894
     22      H    -5.20792024    -2.87719330     2.60686008
     23      H     0.97578622     0.24643280    -1.21057176
     24     Sn     4.24009290    -1.07145851    -2.51000181
     25     Cl     3.80832067     1.23737308    -3.14400445
     26     Cl     6.06965866    -0.77098604    -0.95902943
 
Total System Charge             0.00000
 
 *** GOStep19 ***

 Energy gradients wrt nuclear displacements
 ==========================================

     Atom      Cartesian (a.u./angstrom)
                 X         Y         Z
 ----------------------------------------
     1 H     0.000341  0.000385  0.000420
     2 C    -0.000227 -0.000450  0.000203
     3 C     0.000686 -0.000457 -0.002450
     4 C    -0.006261 -0.004233  0.001643
     5 O     0.005334  0.006031 -0.000685
     6 H     0.000059  0.000262  0.000043
     7 H     0.000446 -0.000568  0.000259
     8 H    -0.000071  0.000001  0.000122
     9 C    -0.000132 -0.000190 -0.000213
    10 H    -0.000055 -0.000236 -0.000007
    11 H     0.000001 -0.000031 -0.000099
    12 C    -0.000140 -0.000194  0.000094
    13 C    -0.000285  0.000015 -0.000123
    14 C    -0.000032  0.000207 -0.000295
    15 C     0.000496  0.000295 -0.000429
    16 C     0.000406  0.000099 -0.000053
    17 C    -0.000179 -0.000301  0.000266
    18 H     0.000234 -0.000053  0.000079
    19 H     0.000012 -0.000193  0.000194
    20 H    -0.000143  0.000006 -0.000089
    21 H     0.000018  0.000146 -0.000215
    22 H     0.000210  0.000092 -0.000103
    23 H    -0.000106  0.002192  0.001403
    24 Sn   -0.001260 -0.001928 -0.000449
    25 Cl    0.000637 -0.000380  0.000306
    26 Cl    0.000012 -0.000516  0.000178
 ----------------------------------------
 Mulliken charges used for AMS results%charges...

 dE(predicted):    -0.64799E-03, dE(actual):    -0.68849E-03, Trust radius:    0.345283, all in a.u.
 
----------------------------------------------------------------------
Geometry Convergence after Step  19       (Hartree/Angstrom,Angstrom)
----------------------------------------------------------------------
current energy                               -5.32479677 Hartree
[...]
    22     H       0.000109  -0.000020  -0.000040
    23     H      -0.012903   0.072130  -0.053143
    24    Sn       0.000006   0.000002   0.000005
    25    Cl      -0.000018  -0.000002  -0.000004
    26    Cl      -0.000006  -0.000004  -0.000002
 
 Mode:    69      Frequency (cm-1):     2999.8217     Intensity (km/mol):        6.7187
 Index  Atom      ---- Displacements (x/y/z) ----
     1     H      -0.029350   0.075247  -0.059942
     2     C      -0.016026   0.058591  -0.049622
     3     C       0.001490  -0.006099   0.004526
     4     C       0.000440   0.003339  -0.002342
     5     O      -0.000334  -0.000054   0.000034
     6     H       0.201560  -0.705869   0.590230
     7     H       0.003927   0.001661   0.007943
     8     H      -0.071035   0.188121  -0.164458
     9     C       0.008883  -0.004526   0.014615
    10     H      -0.092781  -0.057932   0.041215
    11     H       0.059584  -0.074476  -0.050323
    12     C       0.000023  -0.000088   0.000082
    13     C       0.000171   0.000051  -0.000081
    14     C      -0.000551  -0.002236   0.001956
    15     C      -0.000840   0.000764  -0.000696
    16     C      -0.000972   0.000125  -0.000204
    17     C      -0.000134   0.000075  -0.000077
    18     H       0.002504  -0.000880   0.000958
    19     H       0.003700   0.022225  -0.019318
    20     H       0.010429  -0.005268   0.005412
    21     H       0.000351   0.000056  -0.000041
    22     H       0.000226  -0.000086   0.000201
    23     H       0.004855  -0.037475   0.027252
    24    Sn       0.000001   0.000005  -0.000004
    25    Cl       0.000009  -0.000002   0.000004
    26    Cl       0.000010  -0.000008  -0.000004
 
 Mode:    70      Frequency (cm-1):     3001.9927     Intensity (km/mol):       13.4593
 Index  Atom      ---- Displacements (x/y/z) ----
     1     H      -0.006924   0.019996  -0.017239
     2     C      -0.004170   0.017133  -0.013248
     3     C       0.002113  -0.000379   0.003528
     4     C      -0.000007   0.000296  -0.000335
     5     O       0.000039   0.000040   0.000088
     6     H       0.056362  -0.199931   0.165667
     7     H      -0.020928  -0.014145  -0.024631
     8     H       0.146551  -0.389584   0.341369
     9     C      -0.029274  -0.020089  -0.032268
    10     H       0.492152   0.278907  -0.216060
    11     H      -0.296537   0.342145   0.250709
    12     C      -0.000017  -0.000030   0.000006
    13     C      -0.000026   0.000070  -0.000050
    14     C      -0.000330  -0.000767   0.000629
    15     C       0.000313   0.000544  -0.000504
    16     C       0.000931  -0.000512   0.000654
    17     C      -0.000085   0.000002  -0.000003
    18     H       0.001361  -0.000655   0.000738
    19     H       0.001323   0.006814  -0.006027
    20     H      -0.010569   0.005269  -0.005087
    21     H      -0.000006  -0.000558   0.000591
    22     H       0.000086  -0.000101   0.000109
    23     H       0.000385  -0.004332   0.003484
    24    Sn      -0.000001   0.000001  -0.000002
    25    Cl       0.000005  -0.000001   0.000004
    26    Cl      -0.000005  -0.000004   0.000008
 
 Mode:    71      Frequency (cm-1):     3074.1899     Intensity (km/mol):        5.3757
 Index  Atom      ---- Displacements (x/y/z) ----
     1     H      -0.203623   0.501290  -0.386348
     2     C       0.000224   0.001062  -0.000513
     3     C       0.025927  -0.035970   0.043020
     4     C       0.002206  -0.002223   0.001960
     5     O      -0.000540   0.000309  -0.000188
     6     H       0.000606  -0.004725   0.008659
     7     H      -0.116414  -0.080829  -0.129607
     8     H       0.147047  -0.350029   0.309932
     9     C       0.025133   0.045351  -0.041739
    10     H      -0.428866  -0.234436   0.174040
    11     H      -0.020615   0.042993   0.012275
    12     C       0.000036  -0.000016  -0.000009
    13     C       0.000025   0.000044  -0.000017
    14     C      -0.000098  -0.000236   0.000214
    15     C      -0.000158  -0.000163  -0.000201
    16     C      -0.000165   0.000109   0.000081
    17     C       0.000006   0.000074   0.000000
    18     H       0.000174  -0.000103   0.000039
    19     H       0.000191   0.002848  -0.002532
    20     H       0.001821  -0.000977   0.000915
    21     H      -0.000006  -0.000399   0.000439
    22     H      -0.000166  -0.000127   0.000027
    23     H      -0.004051   0.023897  -0.018071
    24    Sn      -0.000002  -0.000000   0.000004
    25    Cl      -0.000008   0.000001  -0.000007
    26    Cl       0.000009   0.000002  -0.000010
 
 Mode:    72      Frequency (cm-1):     3077.1430     Intensity (km/mol):       22.1809
 Index  Atom      ---- Displacements (x/y/z) ----
     1     H       0.205590  -0.504726   0.386280
     2     C      -0.002037   0.008143  -0.008071
     3     C      -0.026499   0.036081  -0.043015
     4     C      -0.002117   0.003267  -0.002223
     5     O       0.000500  -0.000421   0.000087
     6     H       0.029661  -0.098821   0.081397
     7     H       0.118565   0.081214   0.133022
     8     H       0.120306  -0.273915   0.243338
     9     C       0.036565   0.030747  -0.043302
    10     H      -0.443032  -0.247234   0.180543
    11     H      -0.113837   0.152925   0.097668
    12     C       0.000074   0.000008   0.000001
    13     C      -0.000109   0.000144  -0.000161
    14     C      -0.000318  -0.001185   0.001141
    15     C      -0.000016   0.000254  -0.000088
    16     C       0.004120  -0.001959   0.002059
    17     C      -0.000162   0.000492  -0.000460
    18     H       0.003006  -0.001419   0.001383
    19     H       0.001313   0.013731  -0.012223
    20     H      -0.047108   0.021233  -0.022896
    21     H      -0.000244  -0.007531   0.006708
    22     H      -0.000533  -0.000418   0.000363
    23     H       0.004640  -0.033289   0.024079
    24    Sn      -0.000003   0.000002   0.000000
    25    Cl       0.000009  -0.000002  -0.000001
    26    Cl       0.000019  -0.000004  -0.000012
 
 Mode:    73      Frequency (cm-1):     3084.0540     Intensity (km/mol):       16.4859
 Index  Atom      ---- Displacements (x/y/z) ----
     1     H       0.038929  -0.095956   0.071322
     2     C      -0.002350   0.006137  -0.004312
     3     C      -0.004679   0.006482  -0.008136
     4     C      -0.000362   0.000640  -0.000664
     5     O       0.000072  -0.000068   0.000094
     6     H       0.020125  -0.063191   0.053492
     7     H       0.020964   0.014408   0.023891
     8     H       0.126945  -0.348205   0.328346
     9     C      -0.063190   0.064347   0.013445
    10     H       0.171916   0.120998  -0.077428
    11     H       0.455379  -0.542081  -0.409972
    12     C      -0.000010   0.000004  -0.000010
    13     C      -0.000065   0.000052  -0.000044
    14     C      -0.000005  -0.000788   0.000623
    15     C       0.000148  -0.000024  -0.000148
    16     C       0.003484  -0.001482   0.001593
    17     C      -0.000106   0.000450  -0.000396
    18     H       0.001559  -0.000661   0.000736
    19     H       0.000695   0.008501  -0.007346
    20     H      -0.039557   0.018009  -0.018752
    21     H      -0.000229  -0.006436   0.005888
    22     H       0.000293  -0.000019   0.000023
    23     H       0.000762  -0.007041   0.005231
    24    Sn       0.000003   0.000003  -0.000004
    25    Cl       0.000004  -0.000002   0.000007
    26    Cl      -0.000002  -0.000010   0.000003
 
 Mode:    74      Frequency (cm-1):     3117.9322     Intensity (km/mol):        6.8638
 Index  Atom      ---- Displacements (x/y/z) ----
     1     H       0.000016  -0.000702   0.000910
     2     C       0.000292  -0.001638   0.001361
     3     C       0.000003   0.000086  -0.000179
     4     C       0.000031  -0.000121   0.000043
     5     O      -0.000007   0.000014   0.000001
     6     H      -0.003047   0.021315  -0.017773
     7     H       0.000456   0.000023   0.000551
     8     H      -0.000471  -0.000159  -0.000310
     9     C      -0.000245   0.000002   0.000129
    10     H       0.003323   0.002020  -0.000925
    11     H       0.000758  -0.000987  -0.000466
    12     C       0.020077   0.008445  -0.006336
    13     C      -0.032482   0.015834  -0.016199
    14     C      -0.000963  -0.049383   0.044199
    15     C      -0.002529  -0.000383   0.000170
    16     C      -0.009807   0.005467  -0.005620
    17     C      -0.000649  -0.015565   0.013998
    18     H       0.400377  -0.182241   0.188172
    19     H       0.024015   0.578024  -0.516354
    20     H       0.123982  -0.057954   0.061007
    21     H       0.008297   0.186386  -0.167535
    22     H      -0.244683  -0.103341   0.077490
    23     H      -0.000101   0.000994  -0.000642
    24    Sn       0.000001  -0.000000  -0.000000
    25    Cl      -0.000002   0.000000   0.000000
    26    Cl      -0.000002   0.000001   0.000000
 
 Mode:    75      Frequency (cm-1):     3125.1023     Intensity (km/mol):        0.6686
 Index  Atom      ---- Displacements (x/y/z) ----
     1     H       0.010344  -0.024449   0.018389
     2     C      -0.000333   0.001191  -0.001030
     3     C      -0.001200   0.001746  -0.001840
     4     C      -0.000018   0.000169  -0.000138
     5     O      -0.000013  -0.000018   0.000017
     6     H       0.003017  -0.013591   0.011307
     7     H       0.003946   0.002941   0.004560
     8     H       0.011162  -0.027305   0.024997
     9     C      -0.000920   0.003188  -0.001632
    10     H      -0.008223  -0.004002   0.003241
    11     H       0.007729  -0.008596  -0.007360
    12     C       0.025471   0.011456  -0.008705
    13     C      -0.000190  -0.001117   0.000992
    14     C       0.001292   0.027546  -0.024618
    15     C       0.000582  -0.000696   0.000668
    16     C      -0.034745   0.016782  -0.017541
    17     C      -0.001680  -0.041193   0.037041
    18     H      -0.006754   0.004112  -0.004111
    19     H      -0.014080  -0.317988   0.284050
    20     H       0.420207  -0.192381   0.203102
    21     H       0.022364   0.487374  -0.438025
    22     H      -0.309903  -0.131040   0.098315
    23     H       0.000007  -0.001889   0.001427
    24    Sn       0.000001   0.000001  -0.000002
    25    Cl       0.000002  -0.000001   0.000003
    26    Cl       0.000000  -0.000002   0.000000
 
 Mode:    76      Frequency (cm-1):     3135.0919     Intensity (km/mol):        9.0665
 Index  Atom      ---- Displacements (x/y/z) ----
     1     H       0.007320  -0.017722   0.013616
     2     C      -0.000073  -0.000512   0.000408
     3     C      -0.000784   0.001355  -0.001464
     4     C      -0.000038  -0.000030  -0.000038
     5     O       0.000035  -0.000001   0.000006
     6     H       0.000222   0.007447  -0.006228
     7     H       0.003048   0.002148   0.003706
     8     H       0.007406  -0.019121   0.017093
     9     C      -0.000731   0.002120  -0.001159
    10     H      -0.002615  -0.001030   0.001738
    11     H       0.004876  -0.005579  -0.004565
    12     C      -0.042369  -0.016595   0.012247
    13     C       0.038780  -0.015433   0.016236
    14     C      -0.001419  -0.024722   0.022069
    15     C      -0.002046  -0.000720   0.000503
    16     C      -0.036542   0.017707  -0.018495
    17     C       0.001773  -0.008260   0.007563
    18     H      -0.435089   0.193913  -0.200713
    19     H       0.012075   0.276398  -0.246889
    20     H       0.430479  -0.197977   0.208828
    21     H       0.002239   0.094880  -0.085378
    22     H       0.486929   0.203853  -0.152668
    23     H      -0.000111  -0.000318   0.000399
    24    Sn       0.000000  -0.000000   0.000000
    25    Cl      -0.000001   0.000000  -0.000000
    26    Cl      -0.000000   0.000000   0.000000
 
 Mode:    77      Frequency (cm-1):     3142.7780     Intensity (km/mol):       27.3575
 Index  Atom      ---- Displacements (x/y/z) ----
     1     H       0.008176  -0.019384   0.014733
     2     C      -0.000331   0.000583  -0.000533
     3     C      -0.000931   0.001418  -0.001485
     4     C      -0.000022   0.000091  -0.000100
     5     O       0.000010  -0.000013   0.000014
     6     H       0.002189  -0.004530   0.003751
     7     H       0.003056   0.002269   0.003616
     8     H       0.008617  -0.021603   0.019516
     9     C      -0.000807   0.002348  -0.001283
    10     H      -0.004347  -0.001988   0.001972
    11     H       0.005323  -0.005958  -0.005083
    12     C      -0.013883  -0.008607   0.006864
    13     C      -0.040324   0.017871  -0.018518
    14     C       0.002668   0.014739  -0.013056
    15     C       0.000392  -0.001789   0.001636
    16     C      -0.045049   0.019466  -0.020658
    17     C       0.003805   0.032839  -0.029365
    18     H       0.452844  -0.203777   0.210697
    19     H      -0.009628  -0.161616   0.144233
    20     H       0.504675  -0.229109   0.242085
    21     H      -0.019812  -0.369588   0.332058
    22     H       0.173678   0.076560  -0.057937
    23     H      -0.000060  -0.001238   0.001015
    24    Sn       0.000000   0.000001  -0.000001
    25    Cl       0.000002  -0.000001   0.000003
    26    Cl       0.000000  -0.000002   0.000000
 
 Mode:    78      Frequency (cm-1):     3151.9751     Intensity (km/mol):       12.5577
 Index  Atom      ---- Displacements (x/y/z) ----
     1     H       0.002820  -0.006828   0.005279
     2     C      -0.000113  -0.000161   0.000137
     3     C      -0.000255   0.000539  -0.000555
     4     C      -0.000089  -0.000013  -0.000008
     5     O       0.000070  -0.000007  -0.000004
     6     H       0.000452   0.003033  -0.002580
     7     H       0.000929   0.000805   0.001274
     8     H       0.002783  -0.007400   0.006572
     9     C      -0.000314   0.000721  -0.000440
    10     H       0.000119   0.000262   0.000338
    11     H       0.001477  -0.001781  -0.001477
    12     C       0.053851   0.022567  -0.016900
    13     C       0.033669  -0.016800   0.017153
    14     C      -0.001838  -0.010021   0.008868
    15     C      -0.000898  -0.000643   0.000510
    16     C      -0.021719   0.008508  -0.009164
    17     C       0.000049   0.032948  -0.029706
    18     H      -0.379356   0.173082  -0.178621
    19     H       0.006487   0.106515  -0.095024
    20     H       0.231631  -0.103950   0.109998
    21     H      -0.014818  -0.360878   0.324500
    22     H      -0.595723  -0.250759   0.187967
    23     H      -0.000036  -0.000162   0.000228
    24    Sn      -0.000002  -0.000000   0.000002
    25    Cl       0.000000  -0.000000  -0.000002
    26    Cl       0.000002   0.000001  -0.000001

PES point character: Geometry corresponds to a local minimum on the PES.
                     (Hint: Very small negative frequencies do not count towards being a
                     transition state, as they usually indicate noise on a very flat PES. See
                     the PESPointCharacter%NegativeFrequenciesTolerance keyword documentation.)




 ============================
 Statistical Thermal Analysis  ***  ideal gas assumed  ***
 ============================
  
 Pressure:                  1.000000 atm.
 Temperature:             298.150000 K



 Moments of Inertia [amu*bohr^2] and principal axis
 ==================================================

        1967.4424      16087.0661      16497.9012
 ------------------------------------------------
           0.8650          0.3465         -0.3630
           0.1716          0.4755          0.8628
          -0.4716          0.8086         -0.3519


 The rotational contribution to the molecular entropy includes
 a term, dependent on the symmetry number sigma. The results 
 reported below were computed using sigma = 1, determined from
 the point group symmetry of the input geometry (NOSYM). 
 If this is not the correct symmetry, try symmetrizing the molecule before
 running the calculation (note: linear molecules should be aligned along one
 of the Cartesian axes).
 Contributions from frequencies below 20 1/cm are not included in vibrational sums.
 Their contributions, if any, are reported separately.


     Temp                                                        Transl      Rotat     Vibrat     Total
     ----                                                        ------      -----     ------     -----

     298.15   Entropy (cal/mol-K):                               43.348     34.612     61.129    139.088
              Nuclear Internal Energy (kcal/mol):                 0.889      0.889    129.563    131.341
              Constant Volume Heat Capacity (cal/mol-K):          2.981      2.981     49.365     55.327
          (c) Constant Volume Heat Capacity (cal/mol-K):          2.981      2.981     42.744     48.706

       Summary of energy terms
                                                   hartree              eV         kcal/mol           kJ/mol
                                      --------------------     -----------       ----------      -----------
      Energy from Engine:               -5.329281014022667       -145.0171         -3344.17        -13992.03
      Nuclear Internal Energy:           0.209304773383261          5.6955           131.34           549.53
  (c) Nuclear Internal Energy:           0.206000644908785          5.6056           129.27           540.85
      Internal Energy U:                -5.119976240639406       -139.3216         -3212.83        -13442.50
      pV/n = RT:                         0.000944186013486          0.0257             0.59             2.48
      Enthalpy H:                       -5.119032054625920       -139.2959         -3212.24        -13440.02
      -T*S:                             -0.066085249507371         -1.7983           -41.47          -173.51
  (c) -T*S:                             -0.061926172788076         -1.6851           -38.86          -162.59
      Gibbs free energy:                -5.185117304133292       -141.0942         -3253.71        -13613.52
 
 
 
  (c) The properties marked with this symbol have been corrected using 'low vibrational frequency free rotor
      interpolation corrections'. For those terms all positive frequencies are used (also ones below 20 1/cm),
      but the contribution to the partition function of small vibrational frequencies is modified as described
      in the following paper:
      S. Grimme, 'Supramolecular Binding Thermodynamics by Dispersion-Corrected Density Functional Theory'
      (Chem. Eur. J. 2012, 18, 9955-9964)
      Configuration: Dampener Frequency          :   100.000 1/cm
                     Dampener Alpha              :     4.000
                     Averaging Moment of Inertia : 1.000E-44 kg m2

--------------
Atomic charges
--------------
  Index   Atom    Charge
      1      H   -0.1773
      2      C    0.1514
      3      C    0.3961
      4      C    0.7793
      5      O   -0.5479
      6      H   -0.1880
      7      H   -0.1733
      8      H   -0.2179
      9      C    0.6866
     10      H   -0.2196
     11      H   -0.2303
     12      C    0.2382
     13      C    0.2431
     14      C    0.2761
     15      C    0.0369
     16      C    0.3025
     17      C    0.2485
     18      H   -0.2461
     19      H   -0.2617
     20      H   -0.2616
     21      H   -0.2485
     22      H   -0.2438
     23      H   -0.2357
     24     Sn    0.7141
     25     Cl   -0.4098
     26     Cl   -0.4113


Dipole moment vector    (Debye):    -3.06637026   -2.95420356    3.40391813
              magnitude (Debye):     5.45129378


Final PES point is a local minimum. Geometry optimization successful!


AMS application finished. Exiting.
NORMAL TERMINATION
     Total cpu time:   68555.80
  Total system time:     256.06
 Total elapsed time:  138018.45
 WARNING: total elapsed time is much higher than the (CPU+system) time. 
 Make sure the machine is not oversubscribed and has enough memory, SCM_TMPDIR p
 oints to a fast file system, and the network is fast enough.
