

 Parallel Execution: Process Information
 ==============================================================================
 Rank   Node Name                              NodeID   MyNodeRank  NodeMaster
    0   node120                                   0          0          0
    1   node120                                   0          1         -1
    2   node120                                   0          2         -1
    3   node120                                   0          3         -1
 ==============================================================================


May use up to 122928MB of RAM as shared memory on node 0

 *******************************************************************************
 *                                                                             *
 *  --------------------------------                                           *
 *   Amsterdam Modeling Suite (AMS)              2021.102                      *
 *  --------------------------------                                           *
 *                                               r95042 2021-06-07             *
 *                                                                             *
 *                                                                             *
 *                              =================                              *
 *                              |               |                              *
 *                              |     A M S     |                              *
 *                              |               |                              *
 *                              =================                              *
 *                                                                             *
 *                                                                             *
 *   Online information and documentation:  https://www.scm.com/support/       *
 *   E-mail:  support@scm.com   info@scm.com                                   *
 *                                                                             *
 *   Scientific publications using AMS results must be properly referenced     *
 *   See the User Manuals (or the web site) for recommended citations          *
 *   The terms and conditions of the End User License Agreement apply to       *
 *   the use of AMS, https://www.scm.com/license-terms/                        *
 *                                                                             *
 **********************  x86_64_linux_intel / intelmpi  ************************
 
 Licensed to: VU/FEW (+ SARA) / ALGEMEEN / Amsterdam / THE NETHERLANDS
 SCM User ID: u7668
  
 AMS 2021.102  RunTime: Jan28-2022 07:39:21  ShM Nodes: 1  Procs: 4

 AMS jobname: 25.achiral_catalyst.H_Ph_BF3.P1
 AMS jobid  : 574338052

 Start   directory: /scistor/tc/yhk800/MasterProject/calculations/achiral_catalyst_H_Ph_BF3/25.achiral_catalyst.H_Ph_BF3.P1/
 Results directory: /scistor/tc/yhk800/MasterProject/calculations/achiral_catalyst_H_Ph_BF3/25.achiral_catalyst.H_Ph_BF3.P1/
 Scratch directory: /scratch/5298/amstmp_25.achiral_catalyst.H_Ph_BF3.P1_kid0.574338052/


 Communication costs MPI_COMM_WORLD:      1.756 usec per message,   0.0063 usec per 8-byte item
 Communication costs for intra-node:      1.681 usec per message,   0.0064 usec per 8-byte item

 RNG seed: -259018047 978446675 1028143372 107298531 -336340599 1847429240 297951666 -1475775880



                      ************************************************************************
                      *  ADF 2021.102  RunTime: Jan28-2022 07:39:22  ShM Nodes: 1  Procs: 4  *
                      ************************************************************************
  
       ***************************
       *  GEOMETRY OPTIMIZATION  *
       ***************************

Optimization Method                    Quasi Newton
Optimization Coordinates               Delocalized Coordinates
Optimize lattice                       F
 
 ------------------------------------------------------
 Convergence criteria (Hartree,Angstrom)
 ------------------------------------------------------
 Maximum gradient               0.001000000000
 Maximum rms gradient           0.000666666667
 Maximum step allowed           0.010000000000
 Maximum rms step allowed       0.006666666667
 Maximum energy change allowe   0.000260000000
 Maximum stress energy allowe   0.000500000000
 
Initial model Hessian                  Automatic Hessian
 
------------------------------------
Quasi-Newton Optimizer Parameters
------------------------------------
Hessian Update Method                  BFGS
Maximum number of steps                  250
First GDIIS cycle                          0
Maximum GDIIS vectors                      0
Trust radius (bohr)                        0.200000
Trust radius varies                        T
Constraints converged at all steps         T
Use projector                              T
 
 Rigid motions settings for: old optimizer
 Atomic rotations (x,y,z):     T T T
 Atomic translations (x,y,z):  T T T
 Tolerance:                   1.000000000000000E-006
 
--------
Geometry
--------
Formula: C10H11BF3O
Atoms
  Index Symbol   x (angstrom)   y (angstrom)   z (angstrom)
      1      H     0.30883566    -1.71322737     0.34845077
      2      C    -0.85933175     0.07325638     0.95361639
      3      C     0.30566658    -0.62207952     0.35697327
      4      C     1.44363467     0.02246096    -0.23005168
      5      O     2.41991567    -0.55928782    -0.73004528
      6      H    -0.69195270     1.15283717     0.94428296
      7      H    -2.09949902     0.10683830     2.73788510
      8      H    -0.38777363    -0.20492454     3.06899219
      9      C    -1.20706757    -0.41125312     2.37345100
     10      H    -1.40849480    -1.48746718     2.39475159
     11      C    -4.29292549    -0.66839322    -1.59666079
     12      C    -3.82114632     0.63831354    -1.41996901
     13      C    -2.71340734     0.87758301    -0.59720381
     14      C    -2.07744753    -0.18985427     0.04886961
     15      C    -2.54922669    -1.49656102    -0.12782217
     16      C    -3.65696567    -1.73583049    -0.95058737
     17      H    -4.30779978     1.45514508    -1.91436167
     18      H    -2.35238932     1.87750995    -0.46199454
     19      H    -2.06257324    -2.31339256     0.36657049
     20      H    -4.01798370    -2.73575744    -1.08579664
     21      H    -5.14059697    -0.85148861    -2.22626272
     22      H     2.13175883    -0.63340533    -0.72119785
     23      B     1.54062743     0.82456511    -0.28082009
     24      F     1.77326393     0.56217725     0.98282398
     25      F     0.47342919     0.33649303    -0.86617215
     26      F     2.37518917     1.57502504    -0.95911210
 
Total System Charge             0.00000
 
 
----------------
ADF Engine Input
----------------
 
 NumericalQuality VeryGood
 SCF
 Converge 1.0e-6
 Iterations 99
 End
 SYMMETRY NOSYM
 SpinPolarization 1.0
 Unrestricted Yes
 XC
 GGA OLYP
 End
 basis
 core None
 type TZ2P
 End
 

 Title: *** (NO TITLE) ***

 Using automatic Hessian for delocalized coordinates.
 *** GOStep1 ***

 Energy gradients wrt nuclear displacements
 ==========================================

     Atom      Cartesian (a.u./angstrom)
                 X         Y         Z
 ----------------------------------------
     1 H     0.012426  0.005962 -0.006265
     2 C     0.040994  0.033967 -0.003916
     3 C     0.100802  0.409692 -0.300561
     4 C     0.439731  5.916037 -0.461456
     5 O   -29.141269 -7.547199  0.854198
     6 H     0.001274 -0.008922 -0.011219
     7 H     0.001711  0.000018 -0.001110
     8 H    -0.001170  0.001178 -0.000933
     9 C    -0.009891 -0.010315 -0.010626
    10 H    -0.002306 -0.004829  0.001171
    11 C    -0.018412 -0.008382 -0.013137
    12 C    -0.010858  0.022667 -0.010373
    13 C     0.016894  0.031191  0.010205
    14 C    -0.004739 -0.014134 -0.007636
    15 C     0.025809 -0.016291  0.021220
    16 C    -0.014462 -0.025821 -0.007376
    17 H     0.009859 -0.016035  0.009808
    18 H    -0.005722 -0.020481 -0.003284
    19 H    -0.006086  0.015184 -0.006375
    20 H     0.007120  0.019534  0.002303
    21 H     0.016399  0.003297  0.012016
    22 H    28.852376  8.230218 -0.534100
    23 B    -0.647840 -6.087361  0.183247
    24 F    -0.242322 -0.363072 -0.655521
    25 F     0.627846 -0.430356  0.876474
    26 F    -0.048165 -0.135746  0.063246
 ----------------------------------------
 Mulliken charges used for AMS results%charges...
 
----------------------------------------------------------------------
Geometry Convergence after Step   1       (Hartree/Angstrom,Angstrom)
----------------------------------------------------------------------
current energy                                0.23085805 Hartree
energy change                       0.23085805     0.00026000    F
constrained gradient max           29.14125443     0.00100000    F
constrained gradient rms            4.91279299     0.00066667    F
gradient max                       29.14125443
gradient rms                        4.91279299
cart. step max                      0.03700142     0.01000000    F
cart. step rms                      0.00566149     0.00666667    T
 
 
--------
Geometry
--------
Formula: C10H11BF3O
Atoms
  Index Symbol   x (angstrom)   y (angstrom)   z (angstrom)
      1      H     0.30974096    -1.71342232     0.34847856
      2      C    -0.85906284     0.07317188     0.95351739
      3      C     0.30622910    -0.62224442     0.35697366
      4      C     1.44342822     0.01966026    -0.22925176
      5      O     2.45031414    -0.55345339    -0.73188117
      6      H    -0.69177571     1.15281154     0.94411450
      7      H    -2.09918166     0.10679475     2.73786396
      8      H    -0.38740474    -0.20479384     3.06892754
      9      C    -1.20671033    -0.41124418     2.37342571
     10      H    -1.40803005    -1.48744910     2.39480371
     11      C    -4.29282617    -0.66840666    -1.59680925
     12      C    -3.82098070     0.63820791    -1.42011292
     13      C    -2.71323978     0.87740278    -0.59736434
     14      C    -2.07725156    -0.19000714     0.04875364
     15      C    -2.54919289    -1.49667288    -0.12801158
     16      C    -3.65691623    -1.73584171    -0.95074661
     17      H    -4.30763987     1.45515825    -1.91454492
     18      H    -2.35216944     1.87743276    -0.46216481
     19      H    -2.06259608    -2.31365794     0.36637946
     20      H    -4.01802781    -2.73585058    -1.08596872
     21      H    -5.14059889    -0.85147168    -2.22646737
     22      H     2.09475741    -0.64362744    -0.71944711
     23      B     1.54291918     0.82927684    -0.28132946
     24      F     1.77479842     0.56346430     0.98527768
     25      F     0.47169099     0.33599538    -0.86689970
     26      F     2.37546593     1.57804897    -0.95890660
 
Total System Charge             0.00000
 
 *** GOStep2 ***

 Energy gradients wrt nuclear displacements
 ==========================================

     Atom      Cartesian (a.u./angstrom)
                 X         Y         Z
 ----------------------------------------
     1 H     0.012897  0.006032 -0.006778
     2 C     0.041226  0.033359 -0.004132
     3 C     0.098762  0.409836 -0.298552
     4 C     0.443710  5.672224 -0.470339
     5 O   -16.380523 -4.103932  0.570262
     6 H     0.001150 -0.008637 -0.011206
     7 H     0.001530  0.000042 -0.001006
     8 H    -0.001254  0.001178 -0.000913
     9 C    -0.010148 -0.010237 -0.010587
    10 H    -0.002388 -0.004772  0.001157
    11 C    -0.018406 -0.008238 -0.013071
    12 C    -0.010920  0.022458 -0.010370
    13 C     0.016663  0.031011  0.010093
    14 C    -0.004829 -0.013983 -0.007477
    15 C     0.025478 -0.016251  0.021042
    16 C    -0.014416 -0.025646 -0.007288
    17 H     0.009670 -0.015916  0.009717
    18 H    -0.005782 -0.020325 -0.003237
    19 H    -0.006126  0.015123 -0.006333
    20 H     0.006956  0.019393  0.002281
    21 H     0.016170  0.003282  0.011923
    22 H    16.081156  4.796628 -0.241252
    23 B    -0.647471 -5.851078  0.179822
    24 F    -0.238227 -0.362099 -0.651176
    25 F     0.632004 -0.426906  0.873331
    26 F    -0.046883 -0.142546  0.064089
 ----------------------------------------
 Mulliken charges used for AMS results%charges...

 dE(predicted):    -0.21272E+01, dE(actual):    -0.16254E+01, Trust radius:    0.400000, all in a.u.
 
----------------------------------------------------------------------
Geometry Convergence after Step   2       (Hartree/Angstrom,Angstrom)
----------------------------------------------------------------------
current energy                               -1.39452763 Hartree
energy change                      -1.62538568     0.00026000    F
constrained gradient max           16.38052066     0.00100000    F
constrained gradient rms            2.85706048     0.00066667    F
gradient max                       16.38052066
gradient rms                        2.85706048
cart. step max                      0.06434383     0.01000000    F
cart. step rms                      0.01147546     0.00666667    F
 
 
--------
Geometry
--------
Formula: C10H11BF3O
Atoms
  Index Symbol   x (angstrom)   y (angstrom)   z (angstrom)
      1      H     0.31247756    -1.71438259     0.34884024
      2      C    -0.85984242     0.07281029     0.95374142
      3      C     0.30731785    -0.62299010     0.35751744
      4      C     1.44359332     0.00546402    -0.22622074
      5      O     2.51465797    -0.55773847    -0.73902200
      6      H    -0.69328427     1.15286468     0.94410151
      7      H    -2.09930001     0.10633392     2.73883706
      8      H    -0.38708263    -0.20395206     3.06925157
      9      C    -1.20658023    -0.41120641     2.37413779
     10      H    -1.40705216    -1.48736743     2.39591464
     11      C    -4.29433538    -0.66828421    -1.59738245
     12      C    -3.82226796     0.63773965    -1.42033777
     13      C    -2.71467193     0.87643430    -0.59752229
     14      C    -2.07840935    -0.19079633     0.04876056
     15      C    -2.55123378    -1.49720844    -0.12881517
     16      C    -3.65868427    -1.73571572    -0.95151540
     17      H    -4.30902269     1.45553644    -1.91495731
     18      H    -2.35339496     1.87721388    -0.46216357
     19      H    -2.06493751    -2.31528301     0.36545598
     20      H    -4.02024213    -2.73633947    -1.08706531
     21      H    -5.14269059    -0.85116311    -2.22758794
     22      H     2.03964921    -0.67463203    -0.71698482
     23      B     1.55361714     0.85719595    -0.28397491
     24      F     1.78266297     0.57128911     0.99977044
     25      F     0.45941483     0.33707335    -0.87483971
     26      F     2.37538102     1.59638611    -0.95932980
 
Total System Charge             0.00000
 
 *** GOStep3 ***

 Energy gradients wrt nuclear displacements
 ==========================================

     Atom      Cartesian (a.u./angstrom)
                 X         Y         Z
 ----------------------------------------
     1 H     0.014389  0.005917 -0.007619
     2 C     0.040973  0.031412 -0.005450
     3 C     0.089879  0.397912 -0.288236
     4 C     0.373301  4.552195 -0.427752
     5 O    -6.446728 -1.462877  0.321250
     6 H     0.001260 -0.007124 -0.011287
     7 H     0.001293  0.000170 -0.000755
     8 H    -0.001204  0.001154 -0.000768
     9 C    -0.010315 -0.010229 -0.010343
    10 H    -0.002306 -0.004458  0.001109
    11 C    -0.017484 -0.007496 -0.012399
    12 C    -0.010601  0.021067 -0.010121
    13 C     0.015984  0.029835  0.009446
    14 C    -0.004981 -0.013326 -0.007009
    15 C     0.024121 -0.015936  0.019969
    16 C    -0.013592 -0.024406 -0.006834
    17 H     0.009111 -0.015145  0.009184
    18 H    -0.005509 -0.019299 -0.002975
    19 H    -0.005782  0.014526 -0.005959
    20 H     0.006547  0.018420  0.002174
    21 H     0.015315  0.003131  0.011339
    22 H     6.163335  2.121389 -0.005487
    23 B    -0.588439 -4.706490  0.137211
    24 F    -0.225059 -0.352233 -0.620675
    25 F     0.622766 -0.404224  0.845557
    26 F    -0.046276 -0.153884  0.066432
 ----------------------------------------
 Mulliken charges used for AMS results%charges...

 dE(predicted):    -0.17434E+01, dE(actual):    -0.16006E+01, Trust radius:    0.800000, all in a.u.
 Residual max backtransformation error   0.1397E-03
 
----------------------------------------------------------------------
Geometry Convergence after Step   3       (Hartree/Angstrom,Angstrom)
----------------------------------------------------------------------
current energy                               -2.99510058 Hartree
energy change                      -1.60057295     0.00026000    F
constrained gradient max            6.44672588     0.00100000    F
constrained gradient rms            1.30072691     0.00066667    F
gradient max                        6.44672588
gradient rms                        1.30072691
cart. step max                      0.10721970     0.01000000    F
cart. step rms                      0.02502445     0.00666667    F
 
 
--------
Geometry
--------
Formula: C10H11BF3O
Atoms
  Index Symbol   x (angstrom)   y (angstrom)   z (angstrom)
      1      H     0.32145201    -1.71807271     0.35470932
      2      C    -0.86522888     0.07111563     0.95467858
      3      C     0.31190130    -0.62564978     0.36097801
      4      C     1.44877894    -0.04624235    -0.21574400
      5      O     2.58475907    -0.62015836    -0.74706437
      6      H    -0.70335322     1.15296420     0.94417107
      7      H    -2.10024003     0.10297945     2.74413446
      8      H    -0.38540274    -0.19925084     3.07021372
      9      C    -1.20609064    -0.41118543     2.37760198
     10      H    -1.40131977    -1.48740350     2.40138748
     11      C    -4.30441021    -0.66742319    -1.59934249
     12      C    -3.83121815     0.63582710    -1.41994885
     13      C    -2.72397241     0.87161467    -0.59714439
     14      C    -2.08572298    -0.19474593     0.04915372
     15      C    -2.56283607    -1.49974534    -0.13299680
     16      C    -3.66940149    -1.73496395    -0.95522560
     17      H    -4.31858861     1.45785984    -1.91457394
     18      H    -2.36200894     1.87582430    -0.46066607
     19      H    -2.07787753    -2.32329717     0.35982532
     20      H    -4.03282599    -2.73838242    -1.09263559
     21      H    -5.15566952    -0.84915473    -2.23177013
     22      H     2.04634072    -0.76398390    -0.71999393
     23      B     1.59282335     0.96441566    -0.29455150
     24      F     1.80769016     0.60443086     1.05564989
     25      F     0.41884555     0.35262079    -0.91929324
     26      F     2.37931570     1.66928942    -0.96294314
 
Total System Charge             0.00000
 
 *** GOStep4 ***

 Energy gradients wrt nuclear displacements
 ==========================================

     Atom      Cartesian (a.u./angstrom)
                 X         Y         Z
 ----------------------------------------
     1 H     0.018023  0.005896 -0.010350
     2 C     0.037686  0.026985 -0.005016
     3 C     0.067319  0.346931 -0.237039
     4 C     0.121579  1.848503 -0.260224
     5 O    -3.850805 -0.971778  0.187398
     6 H     0.000726 -0.002765 -0.010809
     7 H     0.000782  0.000450 -0.000088
     8 H    -0.000928  0.001037 -0.000271
     9 C    -0.010565 -0.010099 -0.008975
    10 H    -0.001767 -0.003077  0.000749
    11 C    -0.012933 -0.004845 -0.009170
    12 C    -0.008711  0.015220 -0.008485
    13 C     0.012896  0.024263  0.006878
    14 C    -0.005159 -0.011342 -0.006227
    15 C     0.018543 -0.014161  0.015353
    16 C    -0.010205 -0.018598 -0.005195
    17 H     0.006822 -0.011732  0.006867
    18 H    -0.004195 -0.014738 -0.002067
    19 H    -0.004265  0.011674 -0.004368
    20 H     0.004917  0.014127  0.001631
    21 H     0.011665  0.002437  0.008698
    22 H     3.662506  1.489236  0.054822
    23 B    -0.308648 -1.928016 -0.012157
    24 F    -0.180320 -0.302503 -0.483918
    25 F     0.509226 -0.317612  0.697169
    26 F    -0.074191 -0.175494  0.084795
 ----------------------------------------
 Mulliken charges used for AMS results%charges...

 dE(predicted):    -0.10470E+01, dE(actual):    -0.10476E+01, Trust radius:    1.000000, all in a.u.
 
----------------------------------------------------------------------
Geometry Convergence after Step   4       (Hartree/Angstrom,Angstrom)
----------------------------------------------------------------------
current energy                               -4.04272084 Hartree
energy change                      -1.04762026     0.00026000    F
constrained gradient max            3.85080483     0.00100000    F
constrained gradient rms            0.71782386     0.00066667    F
gradient max                        3.85080483
gradient rms                        0.71782386
cart. step max                      0.18702062     0.01000000    F
cart. step rms                      0.04414430     0.00666667    F
 
 
--------
Geometry
--------
Formula: C10H11BF3O
Atoms
  Index Symbol   x (angstrom)   y (angstrom)   z (angstrom)
      1      H     0.32838997    -1.72170754     0.38068935
      2      C    -0.88887586     0.06882758     0.95502607
      3      C     0.31530834    -0.62641015     0.37321897
      4      C     1.48203852    -0.05438811    -0.20050019
      5      O     2.77177968    -0.66486436    -0.75893566
      6      H    -0.74140808     1.15320420     0.94391917
      7      H    -2.10961690     0.09099023     2.75562705
      8      H    -0.38717915    -0.18597683     3.06820611
      9      C    -1.21114581    -0.41161484     2.38345685
     10      H    -1.39009219    -1.48904219     2.41200648
     11      C    -4.34064623    -0.66787365    -1.59988422
     12      C    -3.86667407     0.63045609    -1.41339623
     13      C    -2.75908074     0.86004778    -0.59265673
     14      C    -2.11303476    -0.20349827     0.05038228
     15      C    -2.59727851    -1.50540003    -0.14296638
     16      C    -3.70323323    -1.73515254    -0.96252156
     17      H    -4.35719692     1.46173288    -1.90476764
     18      H    -2.39772464     1.87164622    -0.45286262
     19      H    -2.11319957    -2.34084354     0.34385005
     20      H    -4.06816803    -2.74484079    -1.10459226
     21      H    -5.19859313    -0.84769451    -2.23544707
     22      H     2.11352769    -0.90633173    -0.74238445
     23      B     1.66525088     1.02854552    -0.30138337
     24      F     1.85544278     0.68394563     1.17123754
     25      F     0.35791754     0.39209256    -1.04919227
     26      F     2.47923201     1.74343272    -0.96751978
 
Total System Charge             0.00000
 
 *** GOStep5 ***

 Energy gradients wrt nuclear displacements
 ==========================================

     Atom      Cartesian (a.u./angstrom)
                 X         Y         Z
 ----------------------------------------
     1 H     0.014595 -0.000231 -0.010229
     2 C     0.026370  0.020161  0.005744
     3 C     0.007759  0.226535 -0.129136
     4 C     0.147774  1.195131 -0.177776
     5 O    -1.204602 -0.459940 -0.010799
     6 H    -0.002055  0.001324 -0.008488
     7 H     0.000221  0.000408  0.000950
     8 H    -0.000328  0.000766  0.000269
     9 C    -0.011232 -0.008877 -0.006959
    10 H    -0.000690 -0.000685  0.000044
    11 C    -0.004247 -0.000840 -0.002980
    12 C    -0.003979  0.004775 -0.004342
    13 C     0.005664  0.011152  0.002109
    14 C    -0.004937 -0.006614 -0.004005
    15 C     0.007402 -0.009001  0.006459
    16 C    -0.003779 -0.006816 -0.002137
    17 H     0.002381 -0.004960  0.002430
    18 H    -0.001641 -0.005850 -0.000440
    19 H    -0.001409  0.005937 -0.001409
    20 H     0.001751  0.005792  0.000504
    21 H     0.004573  0.001088  0.003531
    22 H     1.170446  0.758676  0.116051
    23 B    -0.282037 -1.215609  0.016863
    24 F    -0.105436 -0.205177 -0.237199
    25 F     0.254644 -0.190947  0.409712
    26 F    -0.017205 -0.116198  0.031232
 ----------------------------------------
 Mulliken charges used for AMS results%charges...

 dE(predicted):    -0.66659E+00, dE(actual):    -0.73493E+00, Trust radius:    1.000000, all in a.u.
 
----------------------------------------------------------------------
Geometry Convergence after Step   5       (Hartree/Angstrom,Angstrom)
----------------------------------------------------------------------
current energy                               -4.77765000 Hartree
energy change                      -0.73492915     0.00026000    F
constrained gradient max            1.21562250     0.00100000    F
constrained gradient rms            0.30223657     0.00066667    F
gradient max                        1.21562250
gradient rms                        0.30223657
cart. step max                      0.20706076     0.01000000    F
cart. step rms                      0.04336195     0.00666667    F
 
 
--------
Geometry
--------
Formula: C10H11BF3O
Atoms
  Index Symbol   x (angstrom)   y (angstrom)   z (angstrom)
      1      H     0.33797678    -1.72199077     0.40871355
      2      C    -0.90349030     0.06199369     0.93485868
      3      C     0.32583782    -0.62733901     0.37901452
      4      C     1.48985269    -0.08915289    -0.16570992
      5      O     2.84831478    -0.70013192    -0.69047660
      6      H    -0.76619943     1.14591211     0.92457832
      7      H    -2.08918318     0.07669220     2.75538107
      8      H    -0.35610404    -0.17151914     3.03893404
      9      C    -1.18958680    -0.41448054     2.37211980
     10      H    -1.35051137    -1.49403530     2.41152401
     11      C    -4.38056719    -0.66705819    -1.59608263
     12      C    -3.90253664     0.62791389    -1.40335420
     13      C    -2.78745494     0.84922001    -0.59348390
     14      C    -2.13212055    -0.21397165     0.03850701
     15      C    -2.62377370    -1.51189510    -0.16233682
     16      C    -3.73632991    -1.73633978    -0.97181746
     17      H    -4.39690448     1.46820570    -1.88429618
     18      H    -2.42483651     1.86449606    -0.45207845
     19      H    -2.13869267    -2.35858261     0.31311280
     20      H    -4.10253248    -2.74964347    -1.11620304
     21      H    -5.24773461    -0.84315055    -2.22691884
     22      H     2.14550162    -1.11339249    -0.73190735
     23      B     1.73013665     1.12235083    -0.30125433
     24      F     1.87967234     0.79425368     1.24871624
     25      F     0.34979071     0.44903346    -1.18013701
     26      F     2.54721499     1.83189410    -0.94079385
 
Total System Charge             0.00000
 
 *** GOStep6 ***

 Energy gradients wrt nuclear displacements
 ==========================================

     Atom      Cartesian (a.u./angstrom)
                 X         Y         Z
 ----------------------------------------
     1 H     0.015412  0.001411 -0.008954
     2 C     0.014689  0.015932  0.007343
     3 C     0.014124  0.170906 -0.077885
     4 C     0.015539  0.444225 -0.050785
     5 O    -0.301634 -0.238337 -0.073828
     6 H    -0.004423  0.001191 -0.006070
     7 H     0.000434  0.000356  0.000335
     8 H     0.000081  0.000185  0.000738
     9 C    -0.007545 -0.007491 -0.006201
    10 H     0.000132  0.000367 -0.000086
    11 C    -0.000148  0.000297 -0.000018
    12 C    -0.000355  0.000224 -0.001448
    13 C     0.001275  0.001633 -0.000450
    14 C    -0.006353 -0.001309 -0.001969
    15 C     0.000657 -0.003526  0.000966
    16 C    -0.000044 -0.000548 -0.000354
    17 H     0.000072 -0.000941  0.000130
    18 H    -0.000378 -0.000732  0.000510
    19 H     0.000007  0.001840  0.000190
    20 H     0.000020  0.000964 -0.000090
    21 H     0.000568  0.000201  0.000622
    22 H     0.346776  0.426571  0.112321
    23 B    -0.125114 -0.422753 -0.049585
    24 F    -0.066138 -0.164971 -0.130416
    25 F     0.130751 -0.121335  0.249719
    26 F    -0.028405 -0.104362  0.035267
 ----------------------------------------
 Mulliken charges used for AMS results%charges...

 dE(predicted):    -0.29419E+00, dE(actual):    -0.36265E+00, Trust radius:    1.000000, all in a.u.
 
----------------------------------------------------------------------
Geometry Convergence after Step   6       (Hartree/Angstrom,Angstrom)
----------------------------------------------------------------------
current energy                               -5.14029563 Hartree
energy change                      -0.36264563     0.00026000    F
constrained gradient max            0.44422419     0.00100000    F
constrained gradient rms            0.11643085     0.00066667    F
gradient max                        0.44422419
gradient rms                        0.11643085
cart. step max                      0.20918126     0.01000000    F
cart. step rms                      0.03662979     0.00666667    F
 
 
--------
Geometry
--------
Formula: C10H11BF3O
Atoms
  Index Symbol   x (angstrom)   y (angstrom)   z (angstrom)
      1      H     0.32788967    -1.72390926     0.41746956
      2      C    -0.91049578     0.05323983     0.92165694
      3      C     0.32715524    -0.62847724     0.37662370
      4      C     1.48526065    -0.10505844    -0.14567950
      5      O     2.83896129    -0.73068634    -0.62944760
      6      H    -0.77115790     1.13576402     0.91590943
      7      H    -2.07039984     0.07121075     2.75870659
      8      H    -0.33082963    -0.16332060     3.01808441
      9      C    -1.17281593    -0.41658217     2.36675060
     10      H    -1.32659192    -1.49705734     2.41629000
     11      C    -4.39754497    -0.66841579    -1.59258323
     12      C    -3.91692673     0.62513211    -1.39532738
     13      C    -2.79603456     0.84120590    -0.59352943
     14      C    -2.13649810    -0.22396014     0.02954425
     15      C    -2.63081323    -1.51967098    -0.17569708
     16      C    -3.74868086    -1.74038069    -0.97843064
     17      H    -4.41313965     1.47054885    -1.86816889
     18      H    -2.43167770     1.85703641    -0.45125841
     19      H    -2.14505492    -2.37275972     0.29153440
     20      H    -4.11507133    -2.75477769    -1.12477673
     21      H    -5.26988235    -0.84128821    -2.21937330
     22      H     2.13354955    -1.32257374    -0.73738805
     23      B     1.76812693     1.18835243    -0.29193565
     24      F     1.89300626     0.90539824     1.30086760
     25      F     0.33934110     0.52273628    -1.28722547
     26      F     2.59606429     1.91757585    -0.91400664
 
Total System Charge             0.00000
 
 *** GOStep7 ***

 Energy gradients wrt nuclear displacements
 ==========================================

     Atom      Cartesian (a.u./angstrom)
                 X         Y         Z
 ----------------------------------------
     1 H     0.013142  0.001278 -0.006658
     2 C     0.006530  0.010170  0.005061
     3 C     0.024422  0.138551 -0.050865
     4 C    -0.062651  0.192551  0.023773
     5 O     0.076484 -0.039798 -0.056152
     6 H    -0.004214  0.000684 -0.003946
     7 H     0.000283  0.000194  0.000353
     8 H     0.000087 -0.000180  0.000600
     9 C    -0.004954 -0.005221 -0.005049
    10 H     0.000397  0.000537 -0.000195
    11 C     0.000794  0.000491  0.000621
    12 C     0.000833 -0.000748 -0.000405
    13 C     0.000325 -0.001855 -0.000938
    14 C    -0.005264  0.000805 -0.001042
    15 C    -0.001252 -0.000660 -0.000697
    16 C     0.001135  0.001118  0.000358
    17 H    -0.000526  0.000489 -0.000497
    18 H    -0.000066  0.001178  0.000764
    19 H     0.000483  0.000029  0.000579
    20 H    -0.000447 -0.000686 -0.000202
    21 H    -0.000715 -0.000098 -0.000330
    22 H     0.009885  0.166089  0.062716
    23 B    -0.064527 -0.165983 -0.079001
    24 F    -0.042888 -0.140999 -0.062951
    25 F     0.066588 -0.085239  0.152134
    26 F    -0.013885 -0.072697  0.021969
 ----------------------------------------
 Mulliken charges used for AMS results%charges...
 Rebuilding optimization coordinates

 dE(predicted):    -0.14670E+00, dE(actual):    -0.15180E+00, Trust radius:    1.000000, all in a.u.
 
----------------------------------------------------------------------
Geometry Convergence after Step   7       (Hartree/Angstrom,Angstrom)
----------------------------------------------------------------------
current energy                               -5.29209196 Hartree
energy change                      -0.15179633     0.00026000    F
constrained gradient max            0.19255246     0.00100000    F
constrained gradient rms            0.05202818     0.00066667    F
gradient max                        0.19255246
gradient rms                        0.05202818
cart. step max                      0.21224604     0.01000000    F
cart. step rms                      0.05309051     0.00666667    F
 
 
--------
Geometry
--------
Formula: C10H11BF3O
Atoms
  Index Symbol   x (angstrom)   y (angstrom)   z (angstrom)
      1      H     0.30319148    -1.72823385     0.37336204
      2      C    -0.91140299     0.04244334     0.87881191
      3      C     0.32823609    -0.63123527     0.33995120
      4      C     1.49301052    -0.11954216    -0.12808272
      5      O     2.78460982    -0.81491876    -0.49384087
      6      H    -0.75824442     1.12233339     0.87942051
      7      H    -2.03217098     0.08348440     2.73925836
      8      H    -0.28578948    -0.14089470     2.96440822
      9      C    -1.14119846    -0.40821409     2.33744696
     10      H    -1.29207026    -1.48846004     2.40837297
     11      C    -4.44072820    -0.68025714    -1.56589885
     12      C    -3.95725194     0.61344367    -1.37442193
     13      C    -2.81362083     0.82807413    -0.60588364
     14      C    -2.13760765    -0.23813514    -0.00269187
     15      C    -2.63530081    -1.53333191    -0.20030549
     16      C    -3.77329221    -1.75347584    -0.97481749
     17      H    -4.46516966     1.46092609    -1.83131232
     18      H    -2.44129952     1.84286212    -0.47832191
     19      H    -2.14052312    -2.38942705     0.25333336
     20      H    -4.14033328    -2.76870576    -1.11544941
     21      H    -5.32819467    -0.85216054    -2.17178020
     22      H     2.10699309    -1.53481978    -0.75413890
     23      B     1.83596511     1.24737965    -0.23410630
     24      F     1.87276766     1.04901394     1.36106823
     25      F     0.40110111     0.65884128    -1.40180221
     26      F     2.69406322     2.01229237    -0.79397019
 
Total System Charge             0.00000
 
 *** GOStep8 ***

 Energy gradients wrt nuclear displacements
 ==========================================

     Atom      Cartesian (a.u./angstrom)
                 X         Y         Z
 ----------------------------------------
     1 H     0.007783  0.000418 -0.003645
     2 C    -0.003228  0.002378  0.002986
     3 C     0.048651  0.112829 -0.035615
     4 C    -0.125313  0.069228  0.066079
     5 O     0.205325  0.066856 -0.003697
     6 H    -0.001282 -0.000062 -0.000462
     7 H     0.000277 -0.000070  0.000363
     8 H     0.000195 -0.000397  0.000666
     9 C    -0.001647 -0.001516 -0.003601
    10 H     0.000403  0.000485 -0.000292
    11 C     0.000967  0.000294  0.000455
    12 C     0.000480 -0.000624  0.001040
    13 C    -0.000706 -0.002962 -0.000113
    14 C    -0.002518  0.001288 -0.002394
    15 C    -0.001413  0.001081 -0.000974
    16 C     0.000954  0.001421  0.000597
    17 H    -0.000487  0.000846 -0.000595
    18 H     0.000300  0.001505  0.000041
    19 H     0.000473 -0.000717  0.000478
    20 H    -0.000464 -0.001082 -0.000140
    21 H    -0.000820 -0.000212 -0.000703
    22 H    -0.100254  0.011402  0.007033
    23 B    -0.023641 -0.035906 -0.113801
    24 F    -0.023669 -0.121832 -0.007548
    25 F     0.022697 -0.060788  0.077528
    26 F    -0.003063 -0.043863  0.016313
 ----------------------------------------
 Mulliken charges used for AMS results%charges...

 dE(predicted):    -0.85884E-01, dE(actual):    -0.91124E-01, Trust radius:    1.000000, all in a.u.
 
----------------------------------------------------------------------
Geometry Convergence after Step   8       (Hartree/Angstrom,Angstrom)
----------------------------------------------------------------------
current energy                               -5.38321577 Hartree
energy change                      -0.09112381     0.00026000    F
constrained gradient max            0.20532334     0.00100000    F
constrained gradient rms            0.04250790     0.00066667    F
gradient max                        0.20532334
gradient rms                        0.04250790
cart. step max                      0.14551792     0.01000000    F
cart. step rms                      0.04285814     0.00666667    F
 
 
--------
Geometry
--------
Formula: C10H11BF3O
Atoms
  Index Symbol   x (angstrom)   y (angstrom)   z (angstrom)
      1      H     0.26579285    -1.73479355     0.31793588
      2      C    -0.91172500     0.03556299     0.85551640
      3      C     0.31794692    -0.63719006     0.30587481
      4      C     1.49463511    -0.13601978    -0.13078046
      5      O     2.69550792    -0.90446498    -0.41393300
      6      H    -0.74858552     1.11363719     0.85585900
      7      H    -1.99963410     0.09641554     2.73419080
      8      H    -0.24878488    -0.12391243     2.93052834
      9      C    -1.11543859    -0.40091815     2.32439106
     10      H    -1.26626136    -1.48041672     2.41255768
     11      C    -4.45776858    -0.69571561    -1.55345027
     12      C    -3.96957841     0.59826107    -1.37416338
     13      C    -2.82072598     0.81621801    -0.61469705
     14      C    -2.14267231    -0.24831394    -0.01041559
     15      C    -2.64123878    -1.54425076    -0.20015745
     16      C    -3.78563128    -1.76721265    -0.96481275
     17      H    -4.48074158     1.44453973    -1.82927783
     18      H    -2.44459977     1.83026285    -0.49679399
     19      H    -2.14391180    -2.39992962     0.25182776
     20      H    -4.15342446    -2.78294007    -1.09851969
     21      H    -5.35173505    -0.86905379    -2.14905827
     22      H     2.05995345    -1.67344324    -0.81900567
     23      B     1.88795863     1.28556399    -0.16992938
     24      F     1.85899524     1.17033331     1.38747050
     25      F     0.45955292     0.80435920    -1.46630684
     26      F     2.76785402     2.08270380    -0.67624114
 
Total System Charge             0.00000
 
 *** GOStep9 ***

 Energy gradients wrt nuclear displacements
 ==========================================

     Atom      Cartesian (a.u./angstrom)
                 X         Y         Z
 ----------------------------------------
     1 H     0.002900 -0.001000 -0.001968
     2 C    -0.007488 -0.002233  0.000911
     3 C     0.060974  0.089992 -0.026192
     4 C    -0.137626  0.023199  0.068983
     5 O     0.208500  0.092604  0.052036
     6 H     0.000682 -0.000499  0.001221
     7 H     0.000192 -0.000231  0.000334
     8 H     0.000188 -0.000292  0.000275
     9 C    -0.000366  0.000429 -0.002415
    10 H     0.000120  0.000171 -0.000152
    11 C     0.000557  0.000134  0.000691
    12 C     0.001086 -0.000666  0.000102
    13 C    -0.000699 -0.002557  0.000828
    14 C    -0.001023  0.001077 -0.000772
    15 C    -0.000814  0.001795 -0.000607
    16 C     0.000755  0.001196  0.000124
    17 H    -0.000421  0.000826 -0.000297
    18 H     0.000160  0.001309 -0.000047
    19 H     0.000430 -0.000938  0.000224
    20 H    -0.000254 -0.000989 -0.000152
    21 H    -0.000820 -0.000185 -0.000439
    22 H    -0.114929 -0.046656 -0.038456
    23 B    -0.004187  0.017818 -0.131188
    24 F    -0.012572 -0.104582  0.025088
    25 F     0.000278 -0.045795  0.033971
    26 F     0.004377 -0.023927  0.017900
 ----------------------------------------
 Mulliken charges used for AMS results%charges...

 dE(predicted):    -0.30272E-01, dE(actual):    -0.50047E-01, Trust radius:    1.000000, all in a.u.
 
----------------------------------------------------------------------
Geometry Convergence after Step   9       (Hartree/Angstrom,Angstrom)
----------------------------------------------------------------------
current energy                               -5.43326252 Hartree
energy change                      -0.05004675     0.00026000    F
constrained gradient max            0.20849734     0.00100000    F
constrained gradient rms            0.04265286     0.00066667    F
gradient max                        0.20849734
gradient rms                        0.04265286
cart. step max                      0.21242443     0.01000000    F
cart. step rms                      0.05590902     0.00666667    F
 
 
--------
Geometry
--------
Formula: C10H11BF3O
Atoms
  Index Symbol   x (angstrom)   y (angstrom)   z (angstrom)
      1      H     0.22082012    -1.75429228     0.25801452
      2      C    -0.90748262     0.02080196     0.84134309
      3      C     0.30110099    -0.65839803     0.27419075
      4      C     1.50318691    -0.16538344    -0.15105054
      5      O     2.53985063    -1.01731646    -0.37299181
      6      H    -0.73571164     1.09744919     0.83586565
      7      H    -1.97303481     0.10639866     2.73072885
      8      H    -0.22047819    -0.11946251     2.91002971
      9      C    -1.09552683    -0.40187927     2.31969077
     10      H    -1.25195780    -1.47962740     2.42428939
     11      C    -4.46272092    -0.71522712    -1.54433733
     12      C    -3.96428698     0.57765821    -1.38400643
     13      C    -2.81068972     0.79806479    -0.63231908
     14      C    -2.14105416    -0.26434974    -0.01314891
     15      C    -2.65020642    -1.55944629    -0.18314059
     16      C    -3.79919022    -1.78397975    -0.94108134
     17      H    -4.46875629     1.42061790    -1.85112074
     18      H    -2.42407544     1.80874079    -0.53073210
     19      H    -2.16084249    -2.41244872     0.28142228
     20      H    -4.17601552    -2.79774844    -1.05818775
     21      H    -5.35854461    -0.88948264    -2.13583219
     22      H     1.97554566    -1.81145062    -0.93777635
     23      B     1.94292619     1.33022240    -0.07201164
     24      F     1.85446430     1.36295896     1.37045197
     25      F     0.54846920     1.01678363    -1.50004859
     26      F     2.83995028     2.17007853    -0.52963209
 
Total System Charge             0.00000
 
 *** GOStep10 ***

 Energy gradients wrt nuclear displacements
 ==========================================

     Atom      Cartesian (a.u./angstrom)
                 X         Y         Z
 ----------------------------------------
     1 H    -0.001886 -0.002366 -0.000124
     2 C    -0.008759 -0.005176 -0.001793
     3 C     0.053881  0.047430 -0.012501
     4 C    -0.071285 -0.018158  0.032439
     5 O     0.120057  0.114364  0.120566
     6 H     0.001730 -0.000562  0.001882
     7 H    -0.000097 -0.000134 -0.000147
     8 H    -0.000218 -0.000199 -0.000462
     9 C     0.001062  0.000798  0.000145
    10 H    -0.000393 -0.000355  0.000159
    11 C     0.000240 -0.000099 -0.000002
    12 C    -0.000013 -0.000175  0.000226
    13 C    -0.000027 -0.000654  0.001139
    14 C     0.002573  0.000583  0.000768
    15 C     0.000558  0.001320 -0.000096
    16 C    -0.000201  0.000301 -0.000088
    17 H     0.000046  0.000261 -0.000100
    18 H    -0.000198  0.000356  0.000010
    19 H     0.000094 -0.000577 -0.000094
    20 H     0.000050 -0.000278 -0.000003
    21 H    -0.000191 -0.000065 -0.000096
    22 H    -0.100304 -0.080657 -0.083686
    23 B     0.005888  0.043744 -0.106851
    24 F     0.007733 -0.070431  0.023291
    25 F    -0.018153 -0.028155 -0.005803
    26 F     0.007814 -0.001115  0.031220
 ----------------------------------------
 Mulliken charges used for AMS results%charges...

 dE(predicted):    -0.50735E-01, dE(actual):    -0.47620E-01, Trust radius:    1.000000, all in a.u.
 
----------------------------------------------------------------------
Geometry Convergence after Step  10       (Hartree/Angstrom,Angstrom)
----------------------------------------------------------------------
current energy                               -5.48088227 Hartree
energy change                      -0.04761975     0.00026000    F
constrained gradient max            0.12055255     0.00100000    F
constrained gradient rms            0.03555959     0.00066667    F
gradient max                        0.12055255
gradient rms                        0.03555959
cart. step max                      0.21201862     0.01000000    F
cart. step rms                      0.05328605     0.00666667    F
 
 
--------
Geometry
--------
Formula: C10H11BF3O
Atoms
  Index Symbol   x (angstrom)   y (angstrom)   z (angstrom)
      1      H     0.19106892    -1.77082732     0.18326579
      2      C    -0.90358212     0.00121327     0.83777798
      3      C     0.28597894    -0.67969564     0.24718425
      4      C     1.51820455    -0.18276034    -0.17190070
      5      O     2.42944131    -1.07603593    -0.41924191
      6      H    -0.73092020     1.07780130     0.82490153
      7      H    -1.95209077     0.09738949     2.73688574
      8      H    -0.19787666    -0.12624029     2.90197214
      9      C    -1.07813819    -0.41401825     2.32193985
     10      H    -1.23263937    -1.49115149     2.43515830
     11      C    -4.46446811    -0.73330292    -1.54061827
     12      C    -3.93223955     0.55137401    -1.42857747
     13      C    -2.78082391     0.77222109    -0.67358813
     14      C    -2.14510691    -0.28280340    -0.00605610
     15      C    -2.68314069    -1.57169787    -0.13539170
     16      C    -3.83209522    -1.79562517    -0.89381692
     17      H    -4.41210859     1.38767449    -1.93099991
     18      H    -2.36500218     1.77353668    -0.61090631
     19      H    -2.21981600    -2.41763575     0.36599342
     20      H    -4.23432313    -2.80247595    -0.97552993
     21      H    -5.36026909    -0.90667951    -2.13147962
     22      H     1.89652400    -1.83732943    -1.08113180
     23      B     1.97351493     1.36031036     0.04672427
     24      F     1.84273565     1.49955861     1.36424275
     25      F     0.62899088     1.22880225    -1.43725349
     26      F     2.88392110     2.21768006    -0.42094428
 
Total System Charge             0.00000
 
 *** GOStep11 ***

 Energy gradients wrt nuclear displacements
 ==========================================

     Atom      Cartesian (a.u./angstrom)
                 X         Y         Z
 ----------------------------------------
     1 H    -0.002070 -0.001564  0.000617
     2 C    -0.005462 -0.006445 -0.004304
     3 C     0.034506  0.012615 -0.000612
     4 C     0.020244 -0.059446 -0.021501
     5 O     0.024666  0.139150  0.161461
     6 H     0.001632 -0.000226  0.001651
     7 H    -0.000222  0.000018 -0.000309
     8 H    -0.000166  0.000123 -0.000634
     9 C     0.001258  0.000544  0.001652
    10 H    -0.000651 -0.000474 -0.000007
    11 C    -0.000758 -0.000167  0.000371
    12 C     0.000352  0.000229 -0.001249
    13 C    -0.000412  0.000660  0.001481
    14 C     0.002733  0.000798  0.002627
    15 C     0.001413  0.000124 -0.000460
    16 C    -0.000414 -0.000602 -0.000618
    17 H     0.000139 -0.000256  0.000368
    18 H    -0.000267 -0.000425 -0.000120
    19 H    -0.000401  0.000037 -0.000246
    20 H     0.000261  0.000385  0.000041
    21 H     0.000337  0.000078  0.000261
    22 H    -0.085950 -0.082914 -0.101933
    23 B    -0.004800  0.041288  0.011238
    24 F     0.032540 -0.045621 -0.059907
    25 F    -0.024160 -0.014310 -0.025871
    26 F     0.005652  0.016402  0.036001
 ----------------------------------------
 Mulliken charges used for AMS results%charges...
 Rebuilding optimization coordinates

 dE(predicted):    -0.16485E-01, dE(actual):    -0.16501E-01, Trust radius:    1.000000, all in a.u.
 
----------------------------------------------------------------------
Geometry Convergence after Step  11       (Hartree/Angstrom,Angstrom)
----------------------------------------------------------------------
current energy                               -5.49738335 Hartree
energy change                      -0.01650108     0.00026000    F
constrained gradient max            0.16144239     0.00100000    F
constrained gradient rms            0.03363071     0.00066667    F
gradient max                        0.16144239
gradient rms                        0.03363071
cart. step max                      0.10125396     0.01000000    F
cart. step rms                      0.03471402     0.00666667    F
 
 
--------
Geometry
--------
Formula: C10H11BF3O
Atoms
  Index Symbol   x (angstrom)   y (angstrom)   z (angstrom)
      1      H     0.18548510    -1.77072344     0.13597122
      2      C    -0.90134562    -0.00640605     0.84326060
      3      C     0.28103150    -0.68390999     0.23619950
      4      C     1.53353098    -0.17387763    -0.17517794
      5      O     2.42581679    -1.07387747    -0.49814660
      6      H    -0.73377154     1.07108520     0.82826380
      7      H    -1.95058264     0.07861990     2.74366774
      8      H    -0.19576598    -0.13633595     2.90835845
      9      C    -1.07419576    -0.42659514     2.32627186
     10      H    -1.22131256    -1.50479953     2.43622633
     11      C    -4.45813807    -0.74263626    -1.54468333
     12      C    -3.90203999     0.53446193    -1.46667920
     13      C    -2.75112737     0.75535987    -0.71081733
     14      C    -2.14590195    -0.29013739    -0.00076492
     15      C    -2.71161285    -1.57080078    -0.09052664
     16      C    -3.85746522    -1.79543220    -0.85327018
     17      H    -4.35762243     1.36240610    -2.00400184
     18      H    -2.31273503     1.74825277    -0.67825754
     19      H    -2.27062269    -2.40807811     0.44391849
     20      H    -4.28092422    -2.79533330    -0.90586188
     21      H    -5.35039288    -0.91698729    -2.14034517
     22      H     1.85467833    -1.76854077    -1.16716787
     23      B     1.97688214     1.36023103     0.10355926
     24      F     1.81829055     1.51050556     1.41108962
     25      F     0.63823528     1.32507312    -1.33599954
     26      F     2.88734572     2.19775814    -0.43647744
 
Total System Charge             0.00000
 
 *** GOStep12 ***

 Energy gradients wrt nuclear displacements
 ==========================================

     Atom      Cartesian (a.u./angstrom)
                 X         Y         Z
 ----------------------------------------
     1 H    -0.000447 -0.000163  0.000320
     2 C    -0.002459 -0.006055 -0.003672
     3 C     0.007634  0.002590  0.005886
     4 C     0.033494 -0.038859 -0.035557
     5 O     0.043840  0.111343  0.155384
     6 H     0.000732  0.000688  0.000810
     7 H    -0.000147 -0.000008  0.000091
     8 H    -0.000057  0.000108 -0.000127
     9 C    -0.000083  0.000561  0.001572
    10 H    -0.000537 -0.000327 -0.000268
    11 C    -0.000245 -0.000410 -0.000738
    12 C    -0.000726  0.000859  0.000054
    13 C    -0.000061  0.000431  0.000541
    14 C     0.001777  0.001332  0.002201
    15 C     0.001153 -0.000398 -0.000009
    16 C    -0.000751 -0.000642 -0.000040
    17 H     0.000311 -0.000508  0.000204
    18 H    -0.000269 -0.000454 -0.000058
    19 H    -0.000302  0.000307 -0.000327
    20 H     0.000326  0.000575 -0.000008
    21 H     0.000544  0.000118  0.000303
    22 H    -0.090058 -0.068449 -0.097340
    23 B    -0.007906  0.029267  0.045723
    24 F     0.024730 -0.047232 -0.052740
    25 F    -0.023540 -0.010648 -0.029295
    26 F     0.013049  0.025974  0.007090
 ----------------------------------------
 Mulliken charges used for AMS results%charges...

 dE(predicted):    -0.72990E-02, dE(actual):    -0.12729E-01, Trust radius:    1.000000, all in a.u.
 
----------------------------------------------------------------------
Geometry Convergence after Step  12       (Hartree/Angstrom,Angstrom)
----------------------------------------------------------------------
current energy                               -5.51011200 Hartree
energy change                      -0.01272865     0.00026000    F
constrained gradient max            0.15536790     0.00100000    F
constrained gradient rms            0.03118649     0.00066667    F
gradient max                        0.15536790
gradient rms                        0.03118649
cart. step max                      0.07986103     0.01000000    F
cart. step rms                      0.02405077     0.00666667    F
 
 
--------
Geometry
--------
Formula: C10H11BF3O
Atoms
  Index Symbol   x (angstrom)   y (angstrom)   z (angstrom)
      1      H     0.18132471    -1.76602323     0.10444525
      2      C    -0.90063193    -0.00876125     0.84632097
      3      C     0.27756082    -0.68214214     0.22806772
      4      C     1.53605940    -0.16844150    -0.17400500
      5      O     2.41542331    -1.07297433    -0.55435923
      6      H    -0.73637629     1.06892739     0.83193251
      7      H    -1.94463640     0.06356768     2.74948912
      8      H    -0.18802806    -0.13954486     2.90829981
      9      C    -1.06618308    -0.43453339     2.32804147
     10      H    -1.20401851    -1.51393092     2.43641484
     11      C    -4.45576527    -0.74940743    -1.54538261
     12      C    -3.87815039     0.51964656    -1.49865000
     13      C    -2.73060584     0.74265150    -0.73821456
     14      C    -2.14594668    -0.29460877     0.00077398
     15      C    -2.72755019    -1.56972129    -0.06527798
     16      C    -3.87233724    -1.79539876    -0.82913506
     17      H    -4.32018450     1.34171961    -2.05596484
     18      H    -2.27785057     1.72945943    -0.72536607
     19      H    -2.30092049    -2.40019826     0.49087054
     20      H    -4.31092205    -2.78969634    -0.86025999
     21      H    -5.34872548    -0.92408819    -2.13994989
     22      H     1.80938079    -1.71499937    -1.21320016
     23      B     1.97934545     1.35492721     0.13496084
     24      F     1.80192929     1.51925760     1.43925220
     25      F     0.64607784     1.38918327    -1.25613851
     26      F     2.88747098     2.17441213    -0.43435588
 
Total System Charge             0.00000
 
 *** GOStep13 ***

 Energy gradients wrt nuclear displacements
 ==========================================

     Atom      Cartesian (a.u./angstrom)
                 X         Y         Z
 ----------------------------------------
     1 H     0.001025  0.000375 -0.000174
     2 C    -0.000891 -0.004883 -0.003198
     3 C     0.000351  0.001120  0.006692
     4 C     0.026858 -0.024310 -0.037849
     5 O     0.060034  0.087344  0.143832
     6 H     0.000399  0.000840  0.000467
     7 H    -0.000051  0.000013  0.000075
     8 H     0.000025  0.000020  0.000122
     9 C    -0.000250  0.000518  0.001284
    10 H    -0.000390 -0.000196 -0.000313
    11 C    -0.001035 -0.000072  0.000408
    12 C     0.000382  0.000380 -0.001433
    13 C    -0.000419  0.000445  0.001037
    14 C     0.000700  0.001429  0.001556
    15 C     0.001027 -0.000525 -0.000113
    16 C    -0.000267 -0.000758 -0.000572
    17 H     0.000104 -0.000442  0.000429
    18 H    -0.000333 -0.000432 -0.000030
    19 H    -0.000281  0.000387 -0.000195
    20 H     0.000270  0.000552 -0.000012
    21 H     0.000491  0.000119  0.000316
    22 H    -0.092913 -0.054820 -0.088950
    23 B     0.000598  0.023390  0.055148
    24 F     0.020900 -0.044933 -0.046889
    25 F    -0.022304 -0.008975 -0.030267
    26 F     0.005971  0.023413 -0.001370
 ----------------------------------------
 Mulliken charges used for AMS results%charges...

 dE(predicted):    -0.45546E-02, dE(actual):    -0.85075E-02, Trust radius:    1.000000, all in a.u.
 
----------------------------------------------------------------------
Geometry Convergence after Step  13       (Hartree/Angstrom,Angstrom)
----------------------------------------------------------------------
current energy                               -5.51861954 Hartree
energy change                      -0.00850754     0.00026000    F
constrained gradient max            0.14381354     0.00100000    F
constrained gradient rms            0.02878705     0.00066667    F
gradient max                        0.14381354
gradient rms                        0.02878705
cart. step max                      0.20872451     0.01000000    F
cart. step rms                      0.05218237     0.00666667    F
 
 
--------
Geometry
--------
Formula: C10H11BF3O
Atoms
  Index Symbol   x (angstrom)   y (angstrom)   z (angstrom)
      1      H     0.16699492    -1.75931888     0.05532500
      2      C    -0.89917361    -0.01403957     0.86224442
      3      C     0.26628562    -0.68115314     0.21727287
      4      C     1.53275146    -0.16732918    -0.17219179
      5      O     2.36682528    -1.07798371    -0.69990400
      6      H    -0.73954227     1.06301119     0.84576170
      7      H    -1.92707298     0.04061646     2.77274540
      8      H    -0.16688469    -0.14078369     2.91377252
      9      C    -1.04698338    -0.44652632     2.34217399
     10      H    -1.16714330    -1.52738262     2.45295924
     11      C    -4.43176565    -0.76530843    -1.56432025
     12      C    -3.83001423     0.49326606    -1.54774175
     13      C    -2.68784652     0.71697370    -0.77937063
     14      C    -2.14375937    -0.30552512     0.01017678
     15      C    -2.75556729    -1.56816849    -0.01640621
     16      C    -3.89083894    -1.79555982    -0.79332962
     17      H    -4.23992843     1.30232605    -2.14735888
     18      H    -2.20797393     1.69075184    -0.79692809
     19      H    -2.35639394    -2.38635747     0.57693830
     20      H    -4.35260125    -2.77999504    -0.79684139
     21      H    -5.31608711    -0.94244859    -2.17129284
     22      H     1.67769149    -1.59453752    -1.28823939
     23      B     1.97476241     1.33446770     0.17822452
     24      F     1.75121218     1.57824654     1.46977879
     25      F     0.66857994     1.52579241    -1.04741399
     26      F     2.88021321     2.08624796    -0.46742520
 
Total System Charge             0.00000
 
 *** GOStep14 ***

 Energy gradients wrt nuclear displacements
 ==========================================

     Atom      Cartesian (a.u./angstrom)
                 X         Y         Z
 ----------------------------------------
     1 H     0.004305  0.001034 -0.001186
     2 C     0.002012 -0.001538 -0.001433
     3 C    -0.009589  0.001854  0.005243
     4 C     0.008275  0.010378 -0.037718
     5 O     0.080323  0.022790  0.091968
     6 H    -0.000214  0.000679 -0.000511
     7 H     0.000105  0.000078  0.000051
     8 H     0.000151 -0.000274  0.000369
     9 C    -0.000222  0.000620  0.000817
    10 H     0.000035  0.000269 -0.000075
    11 C     0.000610 -0.000512 -0.001549
    12 C    -0.001336  0.000745  0.001171
    13 C     0.000425  0.000270  0.000431
    14 C    -0.001107  0.000777 -0.000854
    15 C     0.000412 -0.000595  0.000067
    16 C    -0.000705 -0.000253  0.000505
    17 H     0.000283 -0.000417 -0.000037
    18 H     0.000062 -0.000488 -0.000208
    19 H     0.000140  0.000304 -0.000437
    20 H     0.000167  0.000318 -0.000085
    21 H     0.000292  0.000072  0.000197
    22 H    -0.084467 -0.012894 -0.049379
    23 B     0.031498  0.002814  0.068116
    24 F     0.009956 -0.033019 -0.031567
    25 F    -0.015207 -0.004152 -0.030231
    26 F    -0.026203  0.011142 -0.013664
 ----------------------------------------
 Mulliken charges used for AMS results%charges...

 dE(predicted):    -0.30420E-01, dE(actual):    -0.19318E-01, Trust radius:    1.000000, all in a.u.
 
----------------------------------------------------------------------
Geometry Convergence after Step  14       (Hartree/Angstrom,Angstrom)
----------------------------------------------------------------------
current energy                               -5.53793716 Hartree
energy change                      -0.01931762     0.00026000    F
constrained gradient max            0.09195321     0.00100000    F
constrained gradient rms            0.02175612     0.00066667    F
gradient max                        0.09195321
gradient rms                        0.02175612
cart. step max                      0.21143726     0.01000000    F
cart. step rms                      0.05250397     0.00666667    F
 
 
--------
Geometry
--------
Formula: C10H11BF3O
Atoms
  Index Symbol   x (angstrom)   y (angstrom)   z (angstrom)
      1      H     0.16061553    -1.74808505     0.00929329
      2      C    -0.89648525    -0.02126651     0.86986040
      3      C     0.26230660    -0.67476667     0.20100108
      4      C     1.53452555    -0.16154072    -0.16975107
      5      O     2.32059335    -1.05337830    -0.84112191
      6      H    -0.74449260     1.05553698     0.86055661
      7      H    -1.91955452    -0.00537466     2.78120489
      8      H    -0.15599229    -0.15539695     2.91305845
      9      C    -1.03271169    -0.47302126     2.34302813
     10      H    -1.13037012    -1.55675564     2.44618008
     11      C    -4.42653530    -0.77488228    -1.56289992
     12      C    -3.77300882     0.45670988    -1.61322047
     13      C    -2.63935590     0.68395725    -0.83339178
     14      C    -2.13763630    -0.31860777     0.00923735
     15      C    -2.78294309    -1.56486909     0.02594626
     16      C    -3.91820587    -1.79048891    -0.75092185
     17      H    -4.15820529     1.25371122    -2.24490216
     18      H    -2.13512724     1.64446902    -0.87868130
     19      H    -2.41908016    -2.36439809     0.66566216
     20      H    -4.41500812    -2.75712965    -0.71101292
     21      H    -5.31537778    -0.94903008    -2.16450566
     22      H     1.58040860    -1.48067714    -1.33444654
     23      B     1.96417199     1.32625795     0.21024100
     24      F     1.69380268     1.65745784     1.48875030
     25      F     0.71484358     1.65110566    -0.83597673
     26      F     2.89456207     1.99974533    -0.47457821
 
Total System Charge             0.00000
 
 *** GOStep15 ***

 Energy gradients wrt nuclear displacements
 ==========================================

     Atom      Cartesian (a.u./angstrom)
                 X         Y         Z
 ----------------------------------------
     1 H     0.006601  0.001253 -0.001553
     2 C     0.004401  0.001897  0.000256
     3 C    -0.012896  0.006173  0.002000
     4 C    -0.003553  0.038291 -0.028360
     5 O     0.060899 -0.036472  0.021253
     6 H    -0.000504  0.000032 -0.001528
     7 H     0.000175  0.000103  0.000045
     8 H     0.000210 -0.000382  0.000299
     9 C    -0.000823  0.000384 -0.000213
    10 H     0.000142  0.000333  0.000125
    11 C    -0.002373  0.001402  0.003048
    12 C     0.002568 -0.001970 -0.003783
    13 C    -0.000772  0.001086  0.001891
    14 C    -0.002524  0.000232 -0.001919
    15 C     0.000675 -0.000698 -0.000769
    16 C     0.001116 -0.000812 -0.001581
    17 H    -0.000430  0.000118  0.000609
    18 H    -0.000269 -0.000354  0.000394
    19 H    -0.000226  0.000433  0.000649
    20 H    -0.000042  0.000087 -0.000009
    21 H     0.000058 -0.000013  0.000046
    22 H    -0.044727  0.029784  0.003392
    23 B     0.058845 -0.027047  0.063163
    24 F    -0.005106 -0.014543 -0.019571
    25 F    -0.000108 -0.000311 -0.021764
    26 F    -0.061336  0.000995 -0.016121
 ----------------------------------------
 Mulliken charges used for AMS results%charges...

 dE(predicted):    -0.13780E-01, dE(actual):    -0.11364E-01, Trust radius:    1.000000, all in a.u.
 
----------------------------------------------------------------------
Geometry Convergence after Step  15       (Hartree/Angstrom,Angstrom)
----------------------------------------------------------------------
current energy                               -5.54930076 Hartree
energy change                      -0.01136360     0.00026000    F
constrained gradient max            0.06315647     0.00100000    F
constrained gradient rms            0.01765829     0.00066667    F
gradient max                        0.06315647
gradient rms                        0.01765829
cart. step max                      0.11735578     0.01000000    F
cart. step rms                      0.03830620     0.00666667    F
 
 
--------
Geometry
--------
Formula: C10H11BF3O
Atoms
  Index Symbol   x (angstrom)   y (angstrom)   z (angstrom)
      1      H     0.14762277    -1.74167983    -0.00410437
      2      C    -0.89881583    -0.02912431     0.88715790
      3      C     0.25303105    -0.66886737     0.19321802
      4      C     1.52139304    -0.15440149    -0.17811929
      5      O     2.27776161    -1.00965021    -0.94639034
      6      H    -0.75264312     1.04769463     0.89084318
      7      H    -1.90636681    -0.05808225     2.80471687
      8      H    -0.13941373    -0.17625728     2.91912554
      9      C    -1.01498958    -0.50399553     2.35333915
     10      H    -1.09048803    -1.59061734     2.44401351
     11      C    -4.40301074    -0.78286740    -1.58422790
     12      C    -3.73709691     0.44188778    -1.63992934
     13      C    -2.60340813     0.66180128    -0.85845432
     14      C    -2.14029109    -0.32510141     0.02488091
     15      C    -2.81961259    -1.55239376     0.07467653
     16      C    -3.94442979    -1.77674451    -0.71723926
     17      H    -4.08544353     1.22288328    -2.31200665
     18      H    -2.07063751     1.60539403    -0.93107994
     19      H    -2.47809928    -2.34427511     0.73584375
     20      H    -4.46073819    -2.73249933    -0.66137478
     21      H    -5.27884059    -0.95965745    -2.20417829
     22      H     1.52160318    -1.43773232    -1.36285583
     23      B     1.93292797     1.33923979     0.19711955
     24      F     1.64360761     1.73549430     1.47670555
     25      F     0.72503265     1.72951828    -0.71862095
     26      F     2.92708518     1.93931589    -0.47444971
 
Total System Charge             0.00000
 
 *** GOStep16 ***

 Energy gradients wrt nuclear displacements
 ==========================================

     Atom      Cartesian (a.u./angstrom)
                 X         Y         Z
 ----------------------------------------
     1 H     0.006694  0.001007 -0.000970
     2 C     0.003438  0.003327  0.001139
     3 C    -0.011536  0.012285 -0.000888
     4 C    -0.009075  0.046735 -0.014413
     5 O     0.042224 -0.059598 -0.020705
     6 H    -0.000679 -0.000647 -0.002018
     7 H     0.000250  0.000128 -0.000078
     8 H     0.000176 -0.000408  0.000352
     9 C    -0.000594  0.000152 -0.000557
    10 H     0.000175  0.000315  0.000196
    11 C     0.002362 -0.001250 -0.002693
    12 C    -0.002545  0.000834  0.003074
    13 C     0.000790 -0.000430 -0.000068
    14 C    -0.002748 -0.000036 -0.002102
    15 C    -0.000554  0.000266  0.000268
    16 C    -0.001027  0.000785  0.001348
    17 H     0.000202 -0.000121 -0.000493
    18 H     0.000479 -0.000413 -0.000343
    19 H     0.000855 -0.000408 -0.000522
    20 H    -0.000093 -0.000180 -0.000104
    21 H    -0.000183 -0.000033 -0.000017
    22 H    -0.015867  0.046377  0.027836
    23 B     0.061971 -0.049449  0.040395
    24 F    -0.017964  0.002602 -0.009254
    25 F     0.005447 -0.003153 -0.005566
    26 F    -0.062198  0.001316 -0.013818
 ----------------------------------------
 Mulliken charges used for AMS results%charges...

 dE(predicted):    -0.51868E-02, dE(actual):    -0.76501E-02, Trust radius:    1.000000, all in a.u.
 
----------------------------------------------------------------------
Geometry Convergence after Step  16       (Hartree/Angstrom,Angstrom)
----------------------------------------------------------------------
current energy                               -5.55695085 Hartree
energy change                      -0.00765010     0.00026000    F
constrained gradient max            0.06218260     0.00100000    F
constrained gradient rms            0.01764727     0.00066667    F
gradient max                        0.06218260
gradient rms                        0.01764727
cart. step max                      0.14210387     0.01000000    F
cart. step rms                      0.05959049     0.00666667    F
 
 
--------
Geometry
--------
Formula: C10H11BF3O
Atoms
  Index Symbol   x (angstrom)   y (angstrom)   z (angstrom)
      1      H     0.14334966    -1.73948459    -0.00466025
      2      C    -0.90000263    -0.05346974     0.91078417
      3      C     0.24807279    -0.66287215     0.18341204
      4      C     1.49844036    -0.13200904    -0.19345084
      5      O     2.23080307    -0.90648995    -1.05838810
      6      H    -0.76623500     1.02398691     0.94725491
      7      H    -1.89544666    -0.17271161     2.82959512
      8      H    -0.12473259    -0.22882321     2.92937041
      9      C    -0.99167051    -0.57439070     2.36144942
     10      H    -1.02694269    -1.66533300     2.42247601
     11      C    -4.39386500    -0.76985804    -1.58270813
     12      C    -3.64891089     0.40294295    -1.71154317
     13      C    -2.53123403     0.61611221    -0.90657098
     14      C    -2.13426226    -0.34411074     0.03847115
     15      C    -2.86681879    -1.53806458     0.12950536
     16      C    -3.98813338    -1.74700174    -0.67100993
     17      H    -3.95331316     1.16890597    -2.42140578
     18      H    -1.96389144     1.53767538    -1.00256752
     19      H    -2.58846665    -2.30219033     0.85008806
     20      H    -4.55822191    -2.66786949    -0.56886529
     21      H    -5.27187562    -0.93274944    -2.20363264
     22      H     1.49843353    -1.43654309    -1.40320002
     23      B     1.85757502     1.40248253     0.15384030
     24      F     1.54753903     1.87759817     1.43730162
     25      F     0.71331279     1.83865385    -0.63394078
     26      F     2.99223658     1.88489578    -0.42299566
 
Total System Charge             0.00000
 
 *** GOStep17 ***

 Energy gradients wrt nuclear displacements
 ==========================================

     Atom      Cartesian (a.u./angstrom)
                 X         Y         Z
 ----------------------------------------
     1 H     0.004635  0.000127  0.001093
     2 C     0.001087  0.002897  0.000826
     3 C    -0.003027  0.022829 -0.007652
     4 C    -0.008491  0.032201  0.005353
     5 O     0.043877 -0.046314 -0.036013
     6 H    -0.000601 -0.001577 -0.001937
     7 H     0.000185  0.000119 -0.000334
     8 H     0.000015 -0.000130  0.000085
     9 C    -0.000005 -0.000383 -0.000283
    10 H    -0.000068  0.000145  0.000097
    11 C    -0.002760  0.002663  0.004270
    12 C     0.003249 -0.003131 -0.003820
    13 C    -0.000766 -0.000234  0.001869
    14 C    -0.002204 -0.000347 -0.000816
    15 C     0.000339 -0.000109 -0.001623
    16 C     0.002025 -0.000984 -0.001921
    17 H    -0.000493  0.000565  0.000204
    18 H    -0.000037  0.000861  0.000462
    19 H    -0.000498  0.000051  0.001143
    20 H    -0.000283 -0.000280  0.000128
    21 H    -0.000158 -0.000167 -0.000354
    22 H    -0.018335  0.033809  0.023102
    23 B     0.028377 -0.058234 -0.001946
    24 F    -0.030881  0.023149 -0.006384
    25 F     0.012345 -0.012147  0.034161
    26 F    -0.027527  0.004624 -0.009713
 ----------------------------------------
 Mulliken charges used for AMS results%charges...
 Rebuilding optimization coordinates

 dE(predicted):    -0.90517E-02, dE(actual):    -0.11063E-01, Trust radius:    1.000000, all in a.u.
 
----------------------------------------------------------------------
Geometry Convergence after Step  17       (Hartree/Angstrom,Angstrom)
----------------------------------------------------------------------
current energy                               -5.56801408 Hartree
energy change                      -0.01106323     0.00026000    F
constrained gradient max            0.05825735     0.00100000    F
constrained gradient rms            0.01489706     0.00066667    F
gradient max                        0.05825735
gradient rms                        0.01489706
cart. step max                      0.10135897     0.01000000    F
cart. step rms                      0.03041532     0.00666667    F
 
 
--------
Geometry
--------
Formula: C10H11BF3O
Atoms
  Index Symbol   x (angstrom)   y (angstrom)   z (angstrom)
      1      H     0.13645318    -1.74834792     0.02274191
      2      C    -0.90133548    -0.06487933     0.92696764
      3      C     0.24353692    -0.66634454     0.18596362
      4      C     1.47239874    -0.12095722    -0.20783607
      5      O     2.23114479    -0.85529023    -1.05150266
      6      H    -0.76570858     1.01252627     0.98623058
      7      H    -1.88640581    -0.22731258     2.84945559
      8      H    -0.11455961    -0.26408406     2.93781897
      9      C    -0.98066359    -0.61045637     2.36933310
     10      H    -1.00375524    -1.70293503     2.41101385
     11      C    -4.36844382    -0.76698010    -1.60443301
     12      C    -3.64194238     0.42093148    -1.69622478
     13      C    -2.51518679     0.61574012    -0.90001553
     14      C    -2.13768754    -0.34088305     0.05793309
     15      C    -2.89795860    -1.51586328     0.16563561
     16      C    -4.00905481    -1.72134239    -0.65015314
     17      H    -3.91731270     1.17499831    -2.43010066
     18      H    -1.92492931     1.52065887    -1.01365790
     19      H    -2.62538036    -2.28634340     0.88130713
     20      H    -4.58347930    -2.64010741    -0.55462209
     21      H    -5.23042527    -0.93366708    -2.24631189
     22      H     1.55501324    -1.50950322    -1.41460629
     23      B     1.80528910     1.45455113     0.09255346
     24      F     1.50862547     1.91408374     1.40380882
     25      F     0.65216836     1.85447235    -0.73529975
     26      F     3.02533899     1.88661727    -0.37739011
 
Total System Charge             0.00000
 
 *** GOStep18 ***

 Energy gradients wrt nuclear displacements
 ==========================================

     Atom      Cartesian (a.u./angstrom)
                 X         Y         Z
 ----------------------------------------
     1 H     0.001079 -0.000956  0.003130
     2 C    -0.002613  0.000200 -0.000473
     3 C     0.008901  0.028459 -0.012506
     4 C    -0.008948  0.004223  0.006658
     5 O     0.069518  0.011315 -0.000248
     6 H    -0.000393 -0.000781 -0.000649
     7 H     0.000033  0.000111 -0.000293
     8 H    -0.000149  0.000097 -0.000026
     9 C     0.000753 -0.000365  0.000315
    10 H    -0.000197 -0.000119 -0.000254
    11 C     0.006631 -0.004231 -0.006900
    12 C    -0.006322  0.004651  0.007540
    13 C     0.001463 -0.002855 -0.001660
    14 C     0.000617 -0.000645  0.000093
    15 C    -0.001383  0.001612  0.001081
    16 C    -0.002727  0.002643  0.003675
    17 H     0.000739 -0.000455 -0.001145
    18 H     0.000941  0.000370 -0.001123
    19 H     0.001278 -0.001355 -0.001250
    20 H     0.000043 -0.000327 -0.000134
    21 H    -0.000344  0.000143  0.000092
    22 H    -0.054524 -0.014796 -0.008195
    23 B     0.016363 -0.039746 -0.018866
    24 F    -0.017922  0.020952  0.019597
    25 F    -0.021881 -0.013106  0.012545
    26 F     0.009044  0.004961 -0.001005
 ----------------------------------------
 Mulliken charges used for AMS results%charges...

 dE(predicted):    -0.71709E-02, dE(actual):    -0.80252E-02, Trust radius:    1.000000, all in a.u.
 
----------------------------------------------------------------------
Geometry Convergence after Step  18       (Hartree/Angstrom,Angstrom)
----------------------------------------------------------------------
current energy                               -5.57603926 Hartree
energy change                      -0.00802518     0.00026000    F
constrained gradient max            0.06951043     0.00100000    F
constrained gradient rms            0.01338617     0.00066667    F
gradient max                        0.06951043
gradient rms                        0.01338617
cart. step max                      0.04316156     0.01000000    F
cart. step rms                      0.01692124     0.00666667    F
 
 
--------
Geometry
--------
Formula: C10H11BF3O
Atoms
  Index Symbol   x (angstrom)   y (angstrom)   z (angstrom)
      1      H     0.14216679    -1.75038543     0.00577228
      2      C    -0.89974207    -0.07484060     0.92232863
      3      C     0.24628859    -0.66988102     0.17916711
      4      C     1.47341511    -0.11282047    -0.20602438
      5      O     2.22868718    -0.83759638    -1.03865591
      6      H    -0.76664861     1.00299903     0.98769393
      7      H    -1.88985201    -0.24921838     2.84262974
      8      H    -0.11805183    -0.27528139     2.93456167
      9      C    -0.98075579    -0.62519112     2.36300183
     10      H    -0.99639478    -1.71783865     2.40238456
     11      C    -4.39408402    -0.75317536    -1.57914565
     12      C    -3.61639032     0.39593090    -1.72999531
     13      C    -2.49971040     0.59858451    -0.92145161
     14      C    -2.13303700    -0.35090883     0.04823628
     15      C    -2.89694006    -1.52357021     0.15908746
     16      C    -4.01783632    -1.72122202    -0.64538204
     17      H    -3.89674238     1.15415808    -2.45738753
     18      H    -1.90971246     1.50327730    -1.03282311
     19      H    -2.64603991    -2.27711845     0.89980612
     20      H    -4.61245785    -2.62405779    -0.52635222
     21      H    -5.27114243    -0.90773263    -2.20315034
     22      H     1.57274904    -1.50662208    -1.41767409
     23      B     1.79619228     1.47925736     0.10834533
     24      F     1.50431909     1.94726609     1.39625567
     25      F     0.67596035     1.89373237    -0.72450549
     26      F     3.03149939     1.88153751    -0.35811349
 
Total System Charge             0.00000
 
 *** GOStep19 ***

 Energy gradients wrt nuclear displacements
 ==========================================

     Atom      Cartesian (a.u./angstrom)
                 X         Y         Z
 ----------------------------------------
     1 H     0.000801 -0.000664  0.002865
     2 C    -0.000885  0.000125 -0.000550
     3 C     0.010720  0.024579 -0.013495
     4 C     0.002963 -0.003669 -0.004694
     5 O     0.054681  0.019904  0.013758
     6 H    -0.000226 -0.000787 -0.000111
     7 H    -0.000073  0.000034 -0.000196
     8 H    -0.000153  0.000096 -0.000156
     9 C     0.000539 -0.000461  0.000306
    10 H    -0.000191 -0.000027 -0.000066
    11 C    -0.003936  0.003203  0.004842
    12 C     0.003735 -0.003033 -0.004619
    13 C    -0.000964  0.000651  0.001305
    14 C     0.000251 -0.000123  0.000342
    15 C     0.000721 -0.000562 -0.001125
    16 C     0.002057 -0.001721 -0.002384
    17 H    -0.000425  0.000367  0.000501
    18 H    -0.000465  0.000484  0.000399
    19 H    -0.000814  0.000460  0.000980
    20 H    -0.000100  0.000033  0.000122
    21 H     0.000208 -0.000261 -0.000347
    22 H    -0.053204 -0.018997 -0.012270
    23 B     0.005230 -0.029464 -0.004097
    24 F    -0.014662  0.018647  0.001041
    25 F    -0.012295 -0.012273  0.018626
    26 F     0.006488  0.003460 -0.000977
 ----------------------------------------
 Mulliken charges used for AMS results%charges...

 dE(predicted):    -0.16946E-02, dE(actual):    -0.21341E-02, Trust radius:    1.000000, all in a.u.
 
----------------------------------------------------------------------
Geometry Convergence after Step  19       (Hartree/Angstrom,Angstrom)
----------------------------------------------------------------------
[...]
    17     H      -0.000130   0.000617  -0.000487
    18     H      -0.000241  -0.000217  -0.000059
    19     H       0.004288  -0.015680   0.015630
    20     H       0.001070   0.001431  -0.000128
    21     H       0.000119   0.000146   0.000001
    22     H       0.000907  -0.001502  -0.001031
    23     B       0.000080  -0.000118  -0.000029
    24     F      -0.000011   0.000010  -0.000007
    25     F      -0.000026   0.000004  -0.000003
    26     F      -0.000002   0.000010  -0.000001
 
 Mode:    69      Frequency (cm-1):     3020.1964     Intensity (km/mol):       24.3708
 Index  Atom      ---- Displacements (x/y/z) ----
     1     H      -0.046872  -0.973466  -0.134984
     2     C       0.000082  -0.009020  -0.001378
     3     C       0.003945   0.081920   0.010938
     4     C      -0.002641   0.001907   0.002291
     5     O       0.000513  -0.000120  -0.000267
     6     H       0.016509   0.114678   0.008416
     7     H      -0.054798   0.022922   0.029982
     8     H       0.041619   0.016070   0.026866
     9     C       0.001120   0.001752  -0.004870
    10     H      -0.003074  -0.062378   0.001294
    11     C      -0.000024  -0.000022   0.000015
    12     C       0.000014   0.000069  -0.000032
    13     C      -0.000011   0.000189  -0.000163
    14     C       0.000463  -0.000201   0.000371
    15     C       0.000108  -0.000610   0.000414
    16     C      -0.000050  -0.000062  -0.000057
    17     H       0.000058  -0.000540   0.000466
    18     H      -0.000645  -0.001244   0.000409
    19     H      -0.001777   0.006210  -0.005719
    20     H      -0.000184  -0.000133  -0.000138
    21     H      -0.000126  -0.000046  -0.000017
    22     H       0.005976  -0.015200  -0.009457
    23     B      -0.000230  -0.001218  -0.000149
    24     F      -0.000011  -0.000000   0.000071
    25     F      -0.000083   0.000088  -0.000056
    26     F       0.000195   0.000143  -0.000063
 
 Mode:    70      Frequency (cm-1):     3077.5800     Intensity (km/mol):       12.1510
 Index  Atom      ---- Displacements (x/y/z) ----
     1     H       0.002631   0.053292   0.007754
     2     C      -0.005970  -0.040571  -0.003293
     3     C      -0.000490  -0.004929  -0.000565
     4     C       0.000167  -0.000142  -0.000130
     5     O       0.000006   0.000019  -0.000012
     6     H       0.070156   0.490716   0.039066
     7     H       0.432583  -0.170699  -0.221133
     8     H      -0.178155  -0.044291  -0.106656
     9     C      -0.018692   0.072911   0.027270
    10     H      -0.031355  -0.654216   0.000571
    11     C       0.000028   0.000066  -0.000009
    12     C      -0.000075  -0.000138   0.000094
    13     C       0.000672   0.000865   0.000086
    14     C       0.000140  -0.000023  -0.000081
    15     C       0.001128  -0.002814   0.002934
    16     C       0.000346   0.000562  -0.000095
    17     H      -0.000577   0.001844  -0.001840
    18     H      -0.006719  -0.008892   0.000310
    19     H      -0.009638   0.033167  -0.032428
    20     H      -0.005458  -0.008027   0.000797
    21     H       0.000542  -0.000092   0.000306
    22     H      -0.000303   0.000722   0.000466
    23     B       0.000002   0.000233   0.000217
    24     F      -0.000114  -0.000103  -0.000078
    25     F      -0.000044  -0.000059   0.000018
    26     F       0.000000  -0.000018  -0.000018
 
 Mode:    71      Frequency (cm-1):     3091.8693     Intensity (km/mol):        5.8606
 Index  Atom      ---- Displacements (x/y/z) ----
     1     H       0.000997   0.038869   0.006783
     2     C      -0.002550  -0.027699  -0.002056
     3     C      -0.000461  -0.003311  -0.000284
     4     C       0.000012  -0.000026  -0.000194
     5     O      -0.000012  -0.000020   0.000037
     6     H       0.045645   0.326208   0.024990
     7     H      -0.482037   0.217139   0.264912
     8     H      -0.575240  -0.219056  -0.389120
     9     C       0.086663  -0.001267   0.010528
    10     H       0.020275   0.019193   0.000039
    11     C       0.000015   0.000007   0.000007
    12     C      -0.000088  -0.000086  -0.000002
    13     C       0.000558   0.000779   0.000124
    14     C      -0.000365   0.000027  -0.000438
    15     C       0.000217  -0.000213   0.000378
    16     C       0.000054   0.000173  -0.000077
    17     H      -0.000143   0.000678  -0.000877
    18     H      -0.006180  -0.008292   0.000433
    19     H      -0.001114   0.003161  -0.003874
    20     H      -0.001107  -0.001779   0.000143
    21     H       0.000256   0.000044   0.000173
    22     H      -0.000130   0.000923   0.000428
    23     B       0.000054   0.000111   0.000170
    24     F      -0.000081  -0.000046  -0.000077
    25     F      -0.000046  -0.000030   0.000008
    26     F      -0.000003  -0.000006  -0.000015
 
 Mode:    72      Frequency (cm-1):     3098.7838     Intensity (km/mol):        2.0697
 Index  Atom      ---- Displacements (x/y/z) ----
     1     H       0.001330   0.090110   0.015947
     2     C      -0.009124  -0.066320  -0.005553
     3     C      -0.000580  -0.007660  -0.000931
     4     C       0.000087  -0.000139  -0.000281
     5     O       0.000020  -0.000002   0.000010
     6     H       0.112966   0.783378   0.058590
     7     H      -0.049777   0.008307   0.020177
     8     H       0.331443   0.113388   0.219378
     9     C      -0.024474  -0.045155  -0.019589
    10     H       0.011789   0.421187  -0.005733
    11     C      -0.000028   0.000074  -0.000071
    12     C      -0.000125  -0.000430   0.000277
    13     C       0.001632   0.001950   0.000178
    14     C      -0.000257  -0.000219   0.000029
    15     C      -0.000476   0.002828  -0.002490
    16     C      -0.000236  -0.000548   0.000111
    17     H      -0.001502   0.005103  -0.005016
    18     H      -0.015973  -0.021149   0.000840
    19     H       0.008694  -0.030513   0.030363
    20     H       0.005264   0.007275  -0.000782
    21     H       0.000920   0.000278   0.000433
    22     H      -0.000574   0.001534   0.000773
    23     B       0.000097   0.000183   0.000083
    24     F      -0.000234  -0.000147   0.000008
    25     F      -0.000075  -0.000071   0.000058
    26     F      -0.000016  -0.000006  -0.000004
 
 Mode:    73      Frequency (cm-1):     3128.3150     Intensity (km/mol):        0.1557
 Index  Atom      ---- Displacements (x/y/z) ----
     1     H       0.000106  -0.000988  -0.000101
     2     C      -0.000014  -0.000234  -0.000026
     3     C      -0.000022   0.000059  -0.000004
     4     C       0.000026   0.000003  -0.000025
     5     O      -0.000020  -0.000002   0.000016
     6     H       0.000785   0.003703   0.000403
     7     H       0.003838  -0.001072  -0.001725
     8     H      -0.006801  -0.002108  -0.004188
     9     C       0.000247   0.001961   0.000488
    10     H      -0.001140  -0.021291  -0.000271
    11     C       0.039889   0.006269   0.030106
    12     C      -0.007386   0.022345  -0.022065
    13     C      -0.004684  -0.007350   0.001276
    14     C      -0.000450  -0.000071  -0.000413
    15     C      -0.002844   0.014347  -0.012741
    16     C      -0.031848  -0.044303   0.004052
    17     H       0.081596  -0.270716   0.260558
    18     H       0.062545   0.088143  -0.009907
    19     H       0.046344  -0.168165   0.161611
    20     H       0.371474   0.525312  -0.053556
    21     H      -0.473719  -0.069614  -0.360810
    22     H       0.000086   0.000095  -0.000092
    23     B      -0.000020   0.000066  -0.000030
    24     F      -0.000001  -0.000008   0.000006
    25     F      -0.000010  -0.000034   0.000014
    26     F       0.000000  -0.000008   0.000003
 
 Mode:    74      Frequency (cm-1):     3139.1223     Intensity (km/mol):        6.5626
 Index  Atom      ---- Displacements (x/y/z) ----
     1     H      -0.000098   0.003598   0.000752
     2     C      -0.000152  -0.001189  -0.000130
     3     C      -0.000006  -0.000341  -0.000026
     4     C       0.000060   0.000025  -0.000027
     5     O      -0.000027  -0.000012   0.000011
     6     H       0.002245   0.014250   0.001158
     7     H      -0.003648   0.000831   0.001522
     8     H       0.008685   0.002854   0.005293
     9     C      -0.000427  -0.002507  -0.000531
    10     H       0.001384   0.027622   0.000124
    11     C       0.017200   0.000073   0.014839
    12     C      -0.012875   0.041445  -0.040247
    13     C      -0.008230  -0.012980   0.002279
    14     C       0.000156   0.000041   0.000158
    15     C       0.003571  -0.017923   0.015941
    16     C       0.028204   0.040920  -0.004755
    17     H       0.145857  -0.483831   0.465776
    18     H       0.110276   0.155548  -0.017505
    19     H      -0.056823   0.207605  -0.199012
    20     H      -0.329202  -0.467174   0.048352
    21     H      -0.204863  -0.027257  -0.157947
    22     H       0.000059   0.000316   0.000030
    23     B      -0.000017   0.000063  -0.000035
    24     F      -0.000005  -0.000008   0.000007
    25     F      -0.000035  -0.000048   0.000015
    26     F       0.000003  -0.000006   0.000004
 
 Mode:    75      Frequency (cm-1):     3149.6952     Intensity (km/mol):       13.1762
 Index  Atom      ---- Displacements (x/y/z) ----
     1     H       0.000161  -0.002224  -0.000165
     2     C      -0.000056  -0.000436  -0.000121
     3     C      -0.000011   0.000191   0.000024
     4     C       0.000013  -0.000012  -0.000030
     5     O      -0.000008   0.000005   0.000013
     6     H       0.002226   0.007283   0.001368
     7     H       0.003781  -0.000874  -0.001577
     8     H      -0.007470  -0.002408  -0.004285
     9     C       0.000292   0.002549   0.000490
    10     H      -0.001699  -0.028675  -0.000622
    11     C      -0.047925  -0.007986  -0.035841
    12     C      -0.006906   0.031571  -0.028115
    13     C      -0.012819  -0.020271   0.003593
    14     C      -0.001066  -0.000603  -0.000662
    15     C      -0.006878   0.027792  -0.025823
    16     C      -0.005055  -0.010732   0.003274
    17     H       0.098897  -0.339107   0.323625
    18     H       0.164695   0.233261  -0.027153
    19     H       0.088137  -0.317136   0.304903
    20     H       0.073365   0.108241  -0.013545
    21     H       0.536724   0.079532   0.408078
    22     H       0.000073  -0.000065  -0.000178
    23     B      -0.000027   0.000097  -0.000042
    24     F      -0.000002  -0.000010   0.000009
    25     F      -0.000052  -0.000066   0.000018
    26     F       0.000001  -0.000012   0.000005
 
 Mode:    76      Frequency (cm-1):     3157.5741     Intensity (km/mol):       12.3009
 Index  Atom      ---- Displacements (x/y/z) ----
     1     H      -0.000245   0.006087   0.001032
     2     C      -0.000069  -0.001150   0.000007
     3     C      -0.000042  -0.000624  -0.000008
     4     C       0.000217   0.000062  -0.000083
     5     O      -0.000109  -0.000031   0.000044
     6     H       0.000272   0.010222   0.000157
     7     H      -0.005254   0.001068   0.002080
     8     H       0.011237   0.003562   0.006405
     9     C      -0.000464  -0.004142  -0.000654
    10     H       0.003006   0.048023   0.000822
    11     C      -0.021059  -0.001776  -0.016943
    12     C      -0.001372   0.009093  -0.007586
    13     C      -0.006022  -0.008360   0.000912
    14     C       0.001435   0.001967   0.000073
    15     C       0.015326  -0.049042   0.048362
    16     C      -0.025629  -0.034979   0.002789
    17     H       0.026145  -0.092417   0.087374
    18     H       0.071496   0.099668  -0.010585
    19     H      -0.161236   0.566418  -0.547816
    20     H       0.272107   0.384121  -0.039120
    21     H       0.233091   0.032340   0.178905
    22     H       0.000396   0.001039   0.000119
    23     B       0.000054   0.000082  -0.000024
    24     F      -0.000014  -0.000019  -0.000003
    25     F      -0.000033  -0.000042   0.000009
    26     F      -0.000020  -0.000014   0.000008
 
 Mode:    77      Frequency (cm-1):     3163.5930     Intensity (km/mol):        8.2448
 Index  Atom      ---- Displacements (x/y/z) ----
     1     H      -0.000125   0.001304   0.000512
     2     C      -0.000329  -0.002148  -0.000084
     3     C       0.000039  -0.000082  -0.000081
     4     C      -0.000067   0.000008   0.000040
     5     O       0.000035  -0.000020  -0.000022
     6     H       0.005349   0.025148   0.002977
     7     H      -0.001673   0.000524   0.000925
     8     H       0.000726   0.000093   0.000816
     9     C       0.000127  -0.000305  -0.000044
    10     H       0.000157   0.004019  -0.000375
    11     C       0.009773   0.002592   0.006653
    12     C       0.008727  -0.021747   0.022778
    13     C      -0.047796  -0.065557   0.006193
    14     C      -0.000914   0.001585  -0.002094
    15     C       0.000134   0.000540  -0.000254
    16     C       0.002946   0.004817  -0.000881
    17     H      -0.075971   0.247562  -0.239577
    18     H       0.534330   0.745441  -0.079830
    19     H       0.000027  -0.000568   0.000494
    20     H      -0.034484  -0.049705   0.005566
    21     H      -0.099327  -0.015652  -0.074866
    22     H      -0.000105  -0.000115  -0.000069
    23     B      -0.000187   0.000188  -0.000155
    24     F       0.000001  -0.000010   0.000038
    25     F      -0.000134  -0.000174   0.000050
    26     F       0.000047  -0.000012   0.000004
 
 Mode:    78      Frequency (cm-1):     3578.9219     Intensity (km/mol):       25.5188
 Index  Atom      ---- Displacements (x/y/z) ----
     1     H       0.005206  -0.010769  -0.006635
     2     C      -0.000149  -0.000269  -0.000093
     3     C      -0.000169   0.002651   0.000815
     4     C      -0.000090  -0.004526  -0.000920
     5     O      -0.018373  -0.058385  -0.005597
     6     H       0.000240  -0.000424  -0.000194
     7     H       0.000102  -0.000278   0.000116
     8     H       0.000198  -0.000047   0.000190
     9     C      -0.000040   0.000060   0.000008
    10     H      -0.000098  -0.000221   0.000091
    11     C       0.000020  -0.000051   0.000052
    12     C      -0.000026  -0.000086  -0.000016
    13     C       0.000026  -0.000088   0.000162
    14     C      -0.000175   0.000100  -0.000008
    15     C       0.000089   0.000170   0.000005
    16     C      -0.000052   0.000079  -0.000147
    17     H      -0.000096   0.000227  -0.000302
    18     H      -0.000264   0.000042   0.000055
    19     H      -0.000017  -0.000529   0.000666
    20     H      -0.000199  -0.000348  -0.000045
    21     H      -0.000203   0.000060   0.000048
    22     H       0.288256   0.950493   0.097326
    23     B       0.000327   0.001783  -0.000018
    24     F       0.000003  -0.000181  -0.000194
    25     F       0.000146  -0.000209   0.000120
    26     F      -0.000062  -0.000020   0.000042

PES point character: Geometry corresponds to a local minimum on the PES.




 ============================
 Statistical Thermal Analysis  ***  ideal gas assumed  ***
 ============================
  
 Pressure:                  1.000000 atm.
 Temperature:             298.150000 K



 Moments of Inertia [amu*bohr^2] and principal axis
 ==================================================

        1722.6240       5458.3522       5897.9760
 ------------------------------------------------
           0.9274          0.1459          0.3444
           0.3647         -0.5574         -0.7459
           0.0831          0.8173         -0.5701


 The rotational contribution to the molecular entropy includes
 a term, dependent on the symmetry number sigma. The results 
 reported below were computed using sigma = 1, determined from
 the point group symmetry of the input geometry (NOSYM). 
 If this is not the correct symmetry, try symmetrizing the molecule before
 running the calculation (note: linear molecules should be aligned along one
 of the Cartesian axes).
 Contributions from frequencies below 20 1/cm are not included in vibrational sums.
 Their contributions, if any, are reported separately.


     Temp                                                        Transl      Rotat     Vibrat     Total
     ----                                                        ------      -----     ------     -----

     298.15   Entropy (cal/mol-K):                               42.001     32.384     52.523    126.907
              Nuclear Internal Energy (kcal/mol):                 0.889      0.889    128.006    129.783
              Constant Volume Heat Capacity (cal/mol-K):          2.981      2.981     49.671     55.633
          (c) Constant Volume Heat Capacity (cal/mol-K):          2.981      2.981     44.807     50.769

       Summary of energy terms
                                                   hartree              eV         kcal/mol           kJ/mol
                                      --------------------     -----------       ----------      -----------
      Energy from Engine:               -5.591065728349546       -152.1406         -3508.45        -14679.34
      Nuclear Internal Energy:           0.206822733749333          5.6279           129.78           543.01
  (c) Nuclear Internal Energy:           0.204388213687700          5.5617           128.26           536.62
      Internal Energy U:                -5.384242994600212       -146.5127         -3378.66        -14136.33
      pV/n = RT:                         0.000944186013486          0.0257             0.59             2.48
      Enthalpy H:                       -5.383298808586726       -146.4870         -3378.07        -14133.85
      -T*S:                             -0.060297638303148         -1.6408           -37.84          -158.31
  (c) -T*S:                             -0.057056292739256         -1.5526           -35.80          -149.80
      Gibbs free energy:                -5.443596446889874       -148.1278         -3415.91        -14292.16
 
 
 
  (c) The properties marked with this symbol have been corrected using 'low vibrational frequency free rotor
      interpolation corrections'. For those terms all positive frequencies are used (also ones below 20 1/cm),
      but the contribution to the partition function of small vibrational frequencies is modified as described
      in the following paper:
      S. Grimme, 'Supramolecular Binding Thermodynamics by Dispersion-Corrected Density Functional Theory'
      (Chem. Eur. J. 2012, 18, 9955-9964)
      Configuration: Dampener Frequency          :   100.000 1/cm
                     Dampener Alpha              :     4.000
                     Averaging Moment of Inertia : 1.000E-44 kg m2

--------------
Atomic charges
--------------
  Index   Atom    Charge
      1      H   -0.2071
      2      C    0.2004
      3      C    0.2207
      4      C    0.3481
      5      O   -0.2925
      6      H   -0.1374
      7      H   -0.2234
      8      H   -0.2117
      9      C    0.6718
     10      H   -0.2370
     11      C    0.2515
     12      C    0.2566
     13      C    0.2939
     14      C   -0.0026
     15      C    0.2771
     16      C    0.2535
     17      H   -0.2435
     18      H   -0.1869
     19      H   -0.2471
     20      H   -0.2460
     21      H   -0.2367
     22      H    0.1484
     23      B    1.1997
     24      F   -0.5464
     25      F   -0.5566
     26      F   -0.5469


Dipole moment vector    (Debye):    -5.72238817   -7.82014592   -0.08267081
              magnitude (Debye):     9.69057496


Final PES point is a local minimum. Geometry optimization successful!


AMS application finished. Exiting.
NORMAL TERMINATION
     Total cpu time:  159870.97
  Total system time:     311.51
 Total elapsed time:  322090.54
 WARNING: total elapsed time is much higher than the (CPU+system) time. 
 Make sure the machine is not oversubscribed and has enough memory, SCM_TMPDIR p
 oints to a fast file system, and the network is fast enough.
