

 Parallel Execution: Process Information
 ==============================================================================
 Rank   Node Name                              NodeID   MyNodeRank  NodeMaster
    0   DESKTOP-1M8FOJT                           0          0          0
    1   DESKTOP-1M8FOJT                           0          1         -1
    2   DESKTOP-1M8FOJT                           0          2         -1
    3   DESKTOP-1M8FOJT                           0          3         -1
 ==============================================================================


May use up to 4096MB of RAM as shared memory on node 0

 *******************************************************************************
 *                                                                             *
 *  --------------------------------                                           *
 *   Amsterdam Modeling Suite (AMS)              2021.106                      *
 *  --------------------------------                                           *
 *                                               r99350 2021-12-03             *
 *                                                                             *
 *                                                                             *
 *                              =================                              *
 *                              |               |                              *
 *                              |     A M S     |                              *
 *                              |               |                              *
 *                              =================                              *
 *                                                                             *
 *                                                                             *
 *   Online information and documentation:  https://www.scm.com/support/       *
 *   E-mail:  support@scm.com   info@scm.com                                   *
 *                                                                             *
 *   Scientific publications using AMS results must be properly referenced     *
 *   See the User Manuals (or the web site) for recommended citations          *
 *   The terms and conditions of the End User License Agreement apply to       *
 *   the use of AMS, https://www.scm.com/license-terms/                        *
 *                                                                             *
 *********************  x86_64_windows_amdZen / intelmpi  **********************
 
 Licensed to: Mr. Yuman Hordijk / SCM / Amsterdam / Netherlands 2021-10-04 09:39:26
 SCM User ID: u24430
  
 AMS 2021.106  RunTime: Jan23-2022 18:52:03  ShM Nodes: 1  Procs: 4

 AMS jobname: ams
 AMS jobid  : 473264581

 Start   directory: D:/Users/Yuman/Desktop/MasterProject/manual_calculations/chiral_cat_urea/tmp..6888.0.noindex/
 Results directory: D:/Users/Yuman/Desktop/MasterProject/manual_calculations/chiral_cat_urea/urea_cl2.results/
 Scratch directory: Z:/SCMTMP/amstmp_ams_kid0.473264581/


 Communication costs MPI_COMM_WORLD:      1.266 usec per message,   0.0058 usec per 8-byte item
 Communication costs for intra-node:      2.987 usec per message,   0.0033 usec per 8-byte item

 RNG seed: -2038536163 -1893591280 1853926171 694927822 1900787818 -1064211627 2003103839 -20648243



                      ************************************************************************
                      *  ADF 2021.106  RunTime: Jan23-2022 18:52:03  ShM Nodes: 1  Procs: 4  *
                      ************************************************************************
  
       ***************************
       *  GEOMETRY OPTIMIZATION  *
       ***************************

Optimization Method                    Quasi Newton
Optimization Coordinates               Delocalized Coordinates
Optimize lattice                       F
 
 ------------------------------------------------------
 Convergence criteria (Hartree,Angstrom)
 ------------------------------------------------------
 Maximum gradient               0.001000000000
 Maximum rms gradient           0.000666666667
 Maximum step allowed           0.010000000000
 Maximum rms step allowed       0.006666666667
 Maximum energy change allowe   0.000080000000
 Maximum stress energy allowe   0.000500000000
 
Initial model Hessian                  Automatic Hessian
 
------------------------------------
Quasi-Newton Optimizer Parameters
------------------------------------
Hessian Update Method                  BFGS
Maximum number of steps                  250
First GDIIS cycle                          0
Maximum GDIIS vectors                      0
Trust radius (bohr)                        0.200000
Trust radius varies                        T
Constraints converged at all steps         T
Use projector                              T
 
 Rigid motions settings for: old optimizer
 Atomic rotations (x,y,z):     T T T
 Atomic translations (x,y,z):  T T T
 Tolerance:                   1.000000000000000E-006
 
--------
Geometry
--------
Formula: CH2Cl2N2O
Atoms
  Index Symbol   x (angstrom)   y (angstrom)   z (angstrom)
      1      C    -0.01249129     0.00891773    -0.55861077
      2      O     0.02561860    -0.03145507    -1.75825118
      3      N    -1.15023292     0.08697368     0.20454008
      4      N     1.14413231    -0.07414852     0.23516758
      5      H    -1.10218161    -0.26535420     1.14990347
      6     Cl    -2.61039181    -0.36385281    -0.58347553
      7      H     1.10881393     0.34345439     1.15411286
      8     Cl     2.58683164     0.33009608    -0.61726469
 
Total System Charge             0.00000
Bonding info available!
 
 
----------------
ADF Engine Input
----------------
 
 Basis
 Type TZ2P
 Core None
 End
 XC
 GGA OLYP
 End
 

 Title: *** (NO TITLE) ***

 Using automatic Hessian for delocalized coordinates.
 *** GOStep1 ***

 Energy gradients wrt nuclear displacements
 ==========================================

     Atom      Cartesian (a.u./angstrom)
                 X         Y         Z
 ----------------------------------------
     1 C    -0.028845  0.011085  0.013253
     2 O     0.008913 -0.003053  0.035878
     3 N     0.027077 -0.015844 -0.013109
     4 N    -0.005002  0.013460  0.002916
     5 H     0.007709  0.006496 -0.006621
     6 Cl    0.001539  0.001073 -0.009805
     7 H    -0.008832 -0.010522 -0.006795
     8 Cl   -0.002560 -0.002694 -0.015719
 ----------------------------------------
 Mulliken charges used for AMS results%charges...
 
----------------------------------------------------------------------
Geometry Convergence after Step   1       (Hartree/Angstrom,Angstrom)
----------------------------------------------------------------------
current energy                               -1.48304164 Hartree
energy change                      -1.48304164     0.00008000    F
constrained gradient max            0.03587845     0.00100000    F
constrained gradient rms            0.01386513     0.00066667    F
gradient max                        0.03587845
gradient rms                        0.01386513
cart. step max                      0.11358638     0.01000000    F
cart. step rms                      0.04338287     0.00666667    F
 
 
--------
Geometry
--------
Formula: CH2Cl2N2O
Atoms
  Index Symbol   x (angstrom)   y (angstrom)   z (angstrom)
      1      C    -0.00502263    -0.03125052    -0.61694135
      2      O     0.00547515    -0.04405248    -1.83368938
      3      N    -1.13591545     0.09589759     0.19055473
      4      N     1.14398353    -0.09735761     0.21059259
      5      H    -1.07146579    -0.25378758     1.14050844
      6     Cl    -2.65096040    -0.34435723    -0.48915729
      7      H     1.06802214     0.33130022     1.12793238
      8     Cl     2.63598228     0.37823890    -0.50367832
 
Total System Charge             0.00000
Bonding info available!
 
 *** GOStep2 ***

 Energy gradients wrt nuclear displacements
 ==========================================

     Atom      Cartesian (a.u./angstrom)
                 X         Y         Z
 ----------------------------------------
     1 C    -0.014785 -0.008945  0.031058
     2 O     0.001205  0.003701 -0.024570
     3 N     0.010142 -0.008927 -0.005282
     4 N     0.000725  0.012713  0.002406
     5 H     0.002122  0.003568 -0.000507
     6 Cl    0.000629  0.001645 -0.001671
     7 H    -0.000832 -0.002885  0.000626
     8 Cl    0.000794 -0.000870 -0.002061
 ----------------------------------------
 Mulliken charges used for AMS results%charges...

 dE(predicted):    -0.33854E-02, dE(actual):    -0.23234E-02, Trust radius:    0.200000, all in a.u.
 
----------------------------------------------------------------------
Geometry Convergence after Step   2       (Hartree/Angstrom,Angstrom)
----------------------------------------------------------------------
current energy                               -1.48536503 Hartree
energy change                      -0.00232338     0.00008000    F
constrained gradient max            0.03105521     0.00100000    F
constrained gradient rms            0.00977443     0.00066667    F
gradient max                        0.03105521
gradient rms                        0.00977443
cart. step max                      0.05653603     0.01000000    F
cart. step rms                      0.02304353     0.00666667    F
 
 
--------
Geometry
--------
Formula: CH2Cl2N2O
Atoms
  Index Symbol   x (angstrom)   y (angstrom)   z (angstrom)
      1      C    -0.00441634     0.01676030    -0.63719305
      2      O    -0.00712943    -0.03454409    -1.84556217
      3      N    -1.14166112     0.13271461     0.18647800
      4      N     1.13416745    -0.11878680     0.20051952
      5      H    -1.05924229    -0.23972300     1.12858022
      6     Cl    -2.64218315    -0.40089326    -0.45736717
      7      H     1.06130030     0.32520302     1.11282989
      8     Cl     2.64926341     0.35390051    -0.46216344
 
Total System Charge             0.00000
Bonding info available!
 
 *** GOStep3 ***

 Energy gradients wrt nuclear displacements
 ==========================================

     Atom      Cartesian (a.u./angstrom)
                 X         Y         Z
 ----------------------------------------
     1 C    -0.001294  0.016797  0.007980
     2 O    -0.001989 -0.006592 -0.009461
     3 N     0.002688 -0.011378 -0.005484
     4 N     0.002146  0.002380 -0.002336
     5 H    -0.001784 -0.000049  0.001536
     6 Cl    0.003207  0.000811  0.002990
     7 H     0.002197 -0.000340  0.000420
     8 Cl   -0.005171 -0.001628  0.004355
 ----------------------------------------
 Mulliken charges used for AMS results%charges...

 dE(predicted):    -0.89354E-03, dE(actual):    -0.12659E-03, Trust radius:    0.050000, all in a.u.
 
----------------------------------------------------------------------
Geometry Convergence after Step   3       (Hartree/Angstrom,Angstrom)
----------------------------------------------------------------------
current energy                               -1.48549161 Hartree
energy change                      -0.00012659     0.00008000    F
constrained gradient max            0.01676637     0.00100000    F
constrained gradient rms            0.00555212     0.00066667    F
gradient max                        0.01676637
gradient rms                        0.00555212
cart. step max                      0.01391832     0.01000000    F
cart. step rms                      0.00641712     0.00666667    T
 
 
--------
Geometry
--------
Formula: CH2Cl2N2O
Atoms
  Index Symbol   x (angstrom)   y (angstrom)   z (angstrom)
      1      C    -0.00195156     0.00384063    -0.63229149
      2      O    -0.00121982    -0.03650815    -1.83573698
      3      N    -1.14306444     0.13773044     0.18918858
      4      N     1.13858290    -0.12805426     0.20260887
      5      H    -1.06496456    -0.24045371     1.12918886
      6     Cl    -2.64249787    -0.39304174    -0.46444049
      7      H     1.06184632     0.32329924     1.11122923
      8     Cl     2.64336787     0.36781883    -0.47362477
 
Total System Charge             0.00000
Bonding info available!
 
 *** GOStep4 ***

 Energy gradients wrt nuclear displacements
 ==========================================

     Atom      Cartesian (a.u./angstrom)
                 X         Y         Z
 ----------------------------------------
     1 C    -0.000254  0.009717 -0.003687
     2 O    -0.000654 -0.003377  0.005364
     3 N     0.000086 -0.009246 -0.003880
     4 N     0.002085  0.002511 -0.003488
     5 H    -0.001274  0.000515  0.000558
     6 Cl    0.003002  0.000708  0.002221
     7 H     0.001269  0.000112  0.000103
     8 Cl   -0.004260 -0.000939  0.002808
 ----------------------------------------
 Mulliken charges used for AMS results%charges...

 dE(predicted):    -0.31268E-03, dE(actual):    -0.31082E-03, Trust radius:    0.100000, all in a.u.
 
----------------------------------------------------------------------
Geometry Convergence after Step   4       (Hartree/Angstrom,Angstrom)
----------------------------------------------------------------------
current energy                               -1.48580243 Hartree
energy change                      -0.00031082     0.00008000    F
constrained gradient max            0.00970271     0.00100000    F
constrained gradient rms            0.00360012     0.00066667    F
gradient max                        0.00970271
gradient rms                        0.00360012
cart. step max                      0.02228866     0.01000000    F
cart. step rms                      0.00956030     0.00666667    F
 
 
--------
Geometry
--------
Formula: CH2Cl2N2O
Atoms
  Index Symbol   x (angstrom)   y (angstrom)   z (angstrom)
      1      C     0.00014817    -0.01179613    -0.63130080
      2      O     0.00257537    -0.03945198    -1.83543831
      3      N    -1.14068132     0.16001909     0.19244894
      4      N     1.13960043    -0.14855590     0.20524855
      5      H    -1.06088245    -0.23399140     1.12628204
      6     Cl    -2.63559993    -0.39274791    -0.46332576
      7      H     1.05238463     0.31112733     1.10919539
      8     Cl     2.63255392     0.39002819    -0.47698825
 
Total System Charge             0.00000
Bonding info available!
 
 *** GOStep5 ***

 Energy gradients wrt nuclear displacements
 ==========================================

     Atom      Cartesian (a.u./angstrom)
                 X         Y         Z
 ----------------------------------------
     1 C    -0.000032  0.000439 -0.002522
     2 O     0.000172  0.000119  0.001796
     3 N    -0.001949 -0.003941  0.000071
     4 N     0.001346  0.001538 -0.000704
     5 H    -0.000714  0.000309 -0.000722
     6 Cl    0.004739  0.000247  0.001569
     7 H     0.000288  0.000850 -0.000404
     8 Cl   -0.003851  0.000439  0.000916
 ----------------------------------------
 Mulliken charges used for AMS results%charges...

 dE(predicted):    -0.22834E-03, dE(actual):     0.90714E-05, Trust radius:    0.025000, all in a.u.
 
----------------------------------------------------------------------
Geometry Convergence after Step   5       (Hartree/Angstrom,Angstrom)
----------------------------------------------------------------------
current energy                               -1.48579336 Hartree
energy change                       0.00000907     0.00008000    T
constrained gradient max            0.00452852     0.00100000    F
constrained gradient rms            0.00171380     0.00066667    F
gradient max                        0.00452852
gradient rms                        0.00171380
cart. step max                      0.00623779     0.01000000    T
cart. step rms                      0.00258229     0.00666667    T
 
 
--------
Geometry
--------
Formula: CH2Cl2N2O
Atoms
  Index Symbol   x (angstrom)   y (angstrom)   z (angstrom)
      1      C    -0.00020194    -0.01227403    -0.63161785
      2      O     0.00189984    -0.03971013    -1.83587367
      3      N    -1.14267884     0.16625689     0.19166645
      4      N     1.14075471    -0.15022549     0.20422424
      5      H    -1.05840828    -0.23171708     1.12417105
      6     Cl    -2.63940290    -0.39707975    -0.46095558
      7      H     1.05056260     0.30699378     1.10940108
      8     Cl     2.63757365     0.39238709    -0.47489391
 
Total System Charge             0.00000
Bonding info available!
 
 *** GOStep6 ***

 Energy gradients wrt nuclear displacements
 ==========================================

     Atom      Cartesian (a.u./angstrom)
                 X         Y         Z
 ----------------------------------------
     1 C    -0.000313 -0.000675 -0.000679
     2 O     0.000058  0.000460  0.001197
     3 N    -0.002566 -0.002233 -0.000368
     4 N     0.001649  0.001034 -0.000419
     5 H     0.000208 -0.000129 -0.000400
     6 Cl    0.002348 -0.000427  0.000821
     7 H    -0.000476  0.000839 -0.000172
     8 Cl   -0.000908  0.001131  0.000021
 ----------------------------------------
 Mulliken charges used for AMS results%charges...

 dE(predicted):    -0.32220E-04, dE(actual):     0.30095E-04, Trust radius:    0.020000, all in a.u.
 
----------------------------------------------------------------------
Geometry Convergence after Step   6       (Hartree/Angstrom,Angstrom)
----------------------------------------------------------------------
current energy                               -1.48576327 Hartree
energy change                       0.00003010     0.00008000    T
constrained gradient max            0.00248458     0.00100000    F
constrained gradient rms            0.00094971     0.00066667    F
gradient max                        0.00248458
gradient rms                        0.00094971
cart. step max                      0.00570182     0.01000000    T
cart. step rms                      0.00257408     0.00666667    T
 
 
--------
Geometry
--------
Formula: CH2Cl2N2O
Atoms
  Index Symbol   x (angstrom)   y (angstrom)   z (angstrom)
      1      C    -0.00044990    -0.01073188    -0.63360961
      2      O     0.00130373    -0.03991261    -1.83802521
      3      N    -1.14238511     0.17195871     0.19078025
      4      N     1.13936292    -0.15231627     0.20333044
      5      H    -1.05505316    -0.22804712     1.12272244
      6     Cl    -2.63984511    -0.40227082    -0.45759468
      7      H     1.04864226     0.30220760     1.10991391
      8     Cl     2.63852322     0.39374369    -0.47139574
 
Total System Charge             0.00000
Bonding info available!
 
 *** GOStep7 ***

 Energy gradients wrt nuclear displacements
 ==========================================

     Atom      Cartesian (a.u./angstrom)
                 X         Y         Z
 ----------------------------------------
     1 C    -0.000113 -0.000276 -0.000242
     2 O    -0.000098  0.000211  0.000120
     3 N    -0.001584 -0.001172 -0.000303
     4 N     0.000786  0.000508  0.000152
     5 H     0.000440 -0.000589  0.000028
     6 Cl    0.001203 -0.000973  0.000447
     7 H    -0.000419  0.000858 -0.000055
     8 Cl   -0.000214  0.001433 -0.000147
 ----------------------------------------
 Mulliken charges used for AMS results%charges...

 dE(predicted):    -0.10684E-04, dE(actual):     0.62934E-04, Trust radius:    0.020000, all in a.u.
 
----------------------------------------------------------------------
Geometry Convergence after Step   7       (Hartree/Angstrom,Angstrom)
----------------------------------------------------------------------
current energy                               -1.48570033 Hartree
energy change                       0.00006293     0.00008000    T
constrained gradient max            0.00149902     0.00100000    F
constrained gradient rms            0.00045544     0.00066667    T
gradient max                        0.00149902
gradient rms                        0.00045544
cart. step max                      0.00675558     0.01000000    T
cart. step rms                      0.00239275     0.00666667    T
 
 
--------
Geometry
--------
Formula: CH2Cl2N2O
Atoms
  Index Symbol   x (angstrom)   y (angstrom)   z (angstrom)
      1      C    -0.00065677    -0.00962985    -0.63467724
      2      O     0.00113064    -0.04050699    -1.83915387
      3      N    -1.14228321     0.17594837     0.18977208
      4      N     1.13871606    -0.15363132     0.20206698
      5      H    -1.05416068    -0.22246922     1.12248372
      6     Cl    -2.63976697    -0.40685295    -0.45594000
      7      H     1.04866059     0.29545202     1.11135662
      8     Cl     2.63845917     0.39632124    -0.46978647
 
Total System Charge             0.00000
Bonding info available!
 
 *** GOStep8 ***

 Energy gradients wrt nuclear displacements
 ==========================================

     Atom      Cartesian (a.u./angstrom)
                 X         Y         Z
 ----------------------------------------
     1 C    -0.000157  0.000146 -0.000072
     2 O    -0.000070 -0.000029 -0.000279
     3 N    -0.000598 -0.000631 -0.000015
     4 N     0.000213  0.000321  0.000420
     5 H     0.000428 -0.000738  0.000114
     6 Cl    0.000379 -0.001394  0.000121
     7 H    -0.000283  0.000735 -0.000031
     8 Cl    0.000088  0.001590 -0.000258
 ----------------------------------------
 Mulliken charges used for AMS results%charges...

 dE(predicted):    -0.31034E-05, dE(actual):     0.40730E-04, Trust radius:    0.020000, all in a.u.
 
---------------------------------------------------------
Geometry Convergence after Step   8       ** CONVERGED **
---------------------------------------------------------
current energy                               -1.48565960 Hartree
energy change                       0.00004073     0.00008000    T
constrained gradient max            0.00050986     0.00100000    T
constrained gradient rms            0.00020779     0.00066667    T
gradient max                        0.00050986
gradient rms                        0.00020779
cart. step max                      0.00509135     0.01000000    T
cart. step rms                      0.00164799     0.00666667    T
 
Geometry optimization converged

Optimized geometry:
 
--------
Geometry
--------
Formula: CH2Cl2N2O
Atoms
  Index Symbol   x (angstrom)   y (angstrom)   z (angstrom)
      1      C    -0.00065677    -0.00962985    -0.63467724
      2      O     0.00113064    -0.04050699    -1.83915387
      3      N    -1.14228321     0.17594837     0.18977208
      4      N     1.13871606    -0.15363132     0.20206698
      5      H    -1.05416068    -0.22246922     1.12248372
      6     Cl    -2.63976697    -0.40685295    -0.45594000
      7      H     1.04866059     0.29545202     1.11135662
      8     Cl     2.63845917     0.39632124    -0.46978647
 
Total System Charge             0.00000
Bonding info available!
 
Performing a single point calculation on the final geometry ...

 *** adf ***



 ===========================
 A T T A C H E D   F I L E S
 ===========================
  
 RestartZ:/SCMTMP/amstmp_ams_kid0.473264581/GOStep8.rkf*** GOStep8 ***



 ===============================
 M O D E L   P A R A M E T E R S
 ===============================
  
 DENSITY FUNCTIONAL POTENTIAL (scf)
    LDA:                               Exchange only                           == Not Default ==
    Gradient Corrections:              OPTX LYP                                == Not Default ==

 SPIN  (restricted / unrestr.)
    Molecule:                          Restricted                               
    Fragments:                         Restricted                               

 OTHER ASPECTS
    Relativistic Corrections:          scalar (ZORA,MAPA)                       

    Nuclear Charge Density Model:      Point Charge Nuclei                      
    Core Treatment:                    Frozen Orbital(s)                        

    Hyperfine or Zeeman Interaction:   ---                                      



 ===============
 G E O M E T R Y  ***  3D  Molecule  ***
 ===============
  

 ATOMS
 =====                            X Y Z                    CHARGE
                                (Angstrom)             Nucl     +Core       At.Mass
                       --------------------------    ----------------       -------
    1  C              -0.0007   -0.0096   -0.6347      6.00      6.00       12.0000
    2  O               0.0011   -0.0405   -1.8392      8.00      8.00       15.9949
    3  N              -1.1423    0.1759    0.1898      7.00      7.00       14.0031
    4  N               1.1387   -0.1536    0.2021      7.00      7.00       14.0031
    5  H              -1.0542   -0.2225    1.1225      1.00      1.00        1.0078
    6  Cl             -2.6398   -0.4069   -0.4559     17.00     17.00       34.9689
    7  H               1.0487    0.2955    1.1114      1.00      1.00        1.0078
    8  Cl              2.6385    0.3963   -0.4698     17.00     17.00       34.9689


 FRAGMENTS
 =========                                     Atoms in this Fragment     Cart. coord.s (Angstrom)
                                               -------------------------------------------------------
    1  C                                                 1  C           -0.0007   -0.0096   -0.6347
    2  O                                                 2  O            0.0011   -0.0405   -1.8392
    3  N                                                 3  N           -1.1423    0.1759    0.1898
    4  N                                                 4  N            1.1387   -0.1536    0.2021
    5  H                                                 5  H           -1.0542   -0.2225    1.1225
    6  H                                                 7  H            1.0487    0.2955    1.1114
    7  Cl                                                6  Cl          -2.6398   -0.4069   -0.4559
    8  Cl                                                8  Cl           2.6385    0.3963   -0.4698


 Interatomic Distance Matrix (Angstrom)
 --------------------------------------

   1)     0.000
   2)     1.205   0.000
   3)     1.420   2.339   0.000
   4)     1.421   2.340   2.305   0.000
   5)     2.060   3.149   1.018   2.379   0.000
   6)     2.675   3.004   1.732   3.844   2.245   0.000
   7)     2.060   3.149   2.380   1.018   2.166   4.069   0.000
   8)     2.675   3.004   3.844   1.733   4.069   5.339   2.244   0.000

 Min. Distance =    1.0181
 Max. Distance =    5.3390



 =====================================
 S Y M M E T R Y ,   E L E C T R O N S
 =====================================
  
 Symmetry: NOSYM

 Irreducible Representations, including subspecies
 -------------------------------------------------
 A


 Configuration of Valence Electrons
 ==================================
 ( determined in the SCF procedure )

 Total:   64

 Net Charge: 0 (Nuclei minus Electrons)

 Aufbau principle for MO occupations will be applied through SCF cycle no.     150
 Thereafter, the program will assign electrons to MOs that are spatially
 similar to the occupied MOs in a "reference" cycle ("KeepOrbitals").
 The reference cycle is always the PREVIOUS cycle: it will evolve with
 the SCF procedure.
1
 ***************************************************************************************************



                                      ****************************************
                                      *  B U I L D : (Fragments, Functions)  *
                                      ****************************************
  



 =======
 S F O s  ***  (Symmetrized Fragment Orbitals)  ***
 =======
  
 SFOs are linear combinations of (valence) Fragment Orbitals (FOs), such that the SFOs transform as the
 irreducible representations of the (molecular) symmetry group. Each SFO is therefore characterized by
 an irrep of the molecule and by a few (or only one) generating FOs.
 The SFOs constitute a symmetry-adapted basis for the Fock matrix. The MO eigenvector coefficients in
 this basis provide a direct interpretation of the MOs in terms of Frontier Orbital Theory.

 The SFOs are combined with auxiliary Core Functions (CFs) to ensure orthogonalization on the (frozen)
 Core Orbitals (COs). The Core-orthogonalized SFOs (CSFOs) constitute the true Fock basis.

 The FOs, and hence also the (C)SFOs are combinations of the elementary basis functions (BAS). The basis
 functions that participate in the description of the SFOs depend on the irrep. The indices of the
 involved functions are printed below for each irrep.
 (The complete list of primitive basis functions is printed in another section)

 Total nr. of (C)SFOs (summation over all irreps) :   194

 NOTE: a (C)SFO that is defined as a combination of more than one FO is usually NOT normalized.



                                       === A ===
 Nr. of SFOs :  194
 Cartesian basis functions that participate in this irrep (total number =   220) :
      1     2     3     4     5     6     9    12     7    10
     13     8    11    14    15    16    17    18    19    20
     21    22    23    24    25    26    27    28    29    30
     31    32    33    34    35    36    39    42    37    40
     43    38    41    44    45    46    47    48    49    50
     51    52    53    54    55    56    57    58    59    60
     61    62    63    64    65    66    69    72    67    70
     73    68    71    74    75    76    77    78    79    80
     81    82    83    84    85    86    87    88    89    90
     91    92    93    94    95    96    99   102    97   100
    103    98   101   104   105   106   107   108   109   110
    111   112   113   114   115   116   117   118   119   120
    121   122   123   124   125   126   127   128   129   130
    131   132   133   134   135   136   137   138   139   140
    141   142   143   144   145   146   147   148   155   156
    157   149   152   158   161   164   150   153   159   162
    165   151   154   160   163   166   167   168   169   170
    171   172   173   174   175   176   177   178   179   180
    181   182   183   184   185   186   193   194   195   187
    190   196   199   202   188   191   197   200   203   189
    192   198   201   204   205   206   207   208   209   210
    211   212   213   214   215   216   217   218   219   220

    SFO  (index         Fragment          Generating    Expansion in Fragment Orbitals
  indx  incl.CFs)   Occup   Orb.Energy   FragmentType  Coeff.   Orbital     on Fragment
 --------------------------------------------------------------------------------------
     1       1      2.000     -10.064 au  C             1.00      1 S               1
                        (    -273.865 eV)
     2       2      2.000      -0.507 au  C             1.00      2 S               1
                        (     -13.802 eV)
     3       3       --         0.384 au  C             1.00      3 S               1
                        (      10.456 eV)
     4       4       --         5.458 au  C             1.00      4 S               1
                        (     148.511 eV)
     5       5       --        49.970 au  C             1.00      5 S               1
                        (    1359.766 eV)
     6       6      0.667      -0.189 au  C             1.00      1 P:x             1
                        (      -5.135 eV)
     7       7       --         0.168 au  C             1.00      2 P:x             1
                        (       4.559 eV)
     8       8       --         2.056 au  C             1.00      3 P:x             1
                        (      55.959 eV)
     9       9      0.667      -0.189 au  C             1.00      1 P:y             1
                        (      -5.135 eV)
    10      10       --         0.168 au  C             1.00      2 P:y             1
                        (       4.559 eV)
    11      11       --         2.056 au  C             1.00      3 P:y             1
                        (      55.959 eV)
    12      12      0.667      -0.189 au  C             1.00      1 P:z             1
                        (      -5.135 eV)
    13      13       --         0.168 au  C             1.00      2 P:z             1
                        (       4.559 eV)
    14      14       --         2.056 au  C             1.00      3 P:z             1
                        (      55.959 eV)
    15      15       --         1.235 au  C             1.00      1 D:z2            1
                        (      33.605 eV)
    16      16       --         1.235 au  C             1.00      1 D:x2-y2         1
                        (      33.605 eV)
    17      17       --         1.235 au  C             1.00      1 D:xy            1
                        (      33.605 eV)
    18      18       --         1.235 au  C             1.00      1 D:xz            1
                        (      33.605 eV)
    19      19       --         1.235 au  C             1.00      1 D:yz            1
                        (      33.605 eV)
    20      20       --         4.005 au  C             1.00      1 F:z3            1
                        (     108.969 eV)
    21      21       --         4.005 au  C             1.00      1 F:z             1
                        (     108.969 eV)
    22      22       --         4.005 au  C             1.00      1 F:xyz           1
                        (     108.969 eV)
    23      23       --         4.005 au  C             1.00      1 F:z2x           1
                        (     108.969 eV)
    24      24       --         4.005 au  C             1.00      1 F:z2y           1
                        (     108.969 eV)
    25      25       --         4.005 au  C             1.00      1 F:x             1
                        (     108.969 eV)
    26      26       --         4.005 au  C             1.00      1 F:y             1
                        (     108.969 eV)
    27      27      2.000     -18.926 au  O             1.00      1 S               2
                        (    -515.001 eV)
    28      28      2.000      -0.887 au  O             1.00      2 S               2
                        (     -24.136 eV)
    29      29       --         0.804 au  O             1.00      3 S               2
                        (      21.890 eV)
    30      30       --        13.488 au  O             1.00      4 S               2
                        (     367.032 eV)
    31      31       --       121.767 au  O             1.00      5 S               2
                        (    3313.451 eV)
    32      32      1.333      -0.329 au  O             1.00      1 P:x             2
                        (      -8.949 eV)
    33      33       --         0.351 au  O             1.00      2 P:x             2
                        (       9.557 eV)
    34      34       --         3.863 au  O             1.00      3 P:x             2
                        (     105.120 eV)
    35      35      1.333      -0.329 au  O             1.00      1 P:y             2
                        (      -8.949 eV)
    36      36       --         0.351 au  O             1.00      2 P:y             2
                        (       9.557 eV)
    37      37       --         3.863 au  O             1.00      3 P:y             2
                        (     105.120 eV)
    38      38      1.333      -0.329 au  O             1.00      1 P:z             2
                        (      -8.949 eV)
    39      39       --         0.351 au  O             1.00      2 P:z             2
                        (       9.557 eV)
    40      40       --         3.863 au  O             1.00      3 P:z             2
                        (     105.120 eV)
    41      41       --         1.072 au  O             1.00      1 D:z2            2
                        (      29.175 eV)
    42      42       --         1.072 au  O             1.00      1 D:x2-y2         2
                        (      29.175 eV)
    43      43       --         1.072 au  O             1.00      1 D:xy            2
                        (      29.175 eV)
    44      44       --         1.072 au  O             1.00      1 D:xz            2
                        (      29.175 eV)
    45      45       --         1.072 au  O             1.00      1 D:yz            2
                        (      29.175 eV)
    46      46       --         3.353 au  O             1.00      1 F:z3            2
                        (      91.230 eV)
    47      47       --         3.353 au  O             1.00      1 F:z             2
                        (      91.230 eV)
    48      48       --         3.353 au  O             1.00      1 F:xyz           2
                        (      91.230 eV)
    49      49       --         3.353 au  O             1.00      1 F:z2x           2
                        (      91.230 eV)
    50      50       --         3.353 au  O             1.00      1 F:z2y           2
                        (      91.230 eV)
    51      51       --         3.353 au  O             1.00      1 F:x             2
                        (      91.230 eV)
    52      52       --         3.353 au  O             1.00      1 F:y             2
                        (      91.230 eV)
    53      53      2.000     -14.154 au  N             1.00      1 S               3
                        (    -385.144 eV)
    54      54      2.000      -0.687 au  N             1.00      2 S               3
                        (     -18.694 eV)
    55      55       --         0.529 au  N             1.00      3 S               3
                        (      14.408 eV)
    56      56       --         6.921 au  N             1.00      4 S               3
                        (     188.327 eV)
    57      57       --        63.573 au  N             1.00      5 S               3
                        (    1729.900 eV)
    58      58      1.000      -0.256 au  N             1.00      1 P:x             3
                        (      -6.963 eV)
    59      59       --         0.286 au  N             1.00      2 P:x             3
                        (       7.772 eV)
    60      60       --         3.321 au  N             1.00      3 P:x             3
                        (      90.361 eV)
    61      61      1.000      -0.256 au  N             1.00      1 P:y             3
                        (      -6.963 eV)
    62      62       --         0.286 au  N             1.00      2 P:y             3
                        (       7.772 eV)
    63      63       --         3.321 au  N             1.00      3 P:y             3
                        (      90.361 eV)
    64      64      1.000      -0.256 au  N             1.00      1 P:z             3
                        (      -6.963 eV)
    65      65       --         0.286 au  N             1.00      2 P:z             3
                        (       7.772 eV)
    66      66       --         3.321 au  N             1.00      3 P:z             3
                        (      90.361 eV)
    67      67       --         1.243 au  N             1.00      1 D:z2            3
                        (      33.812 eV)
    68      68       --         1.243 au  N             1.00      1 D:x2-y2         3
                        (      33.812 eV)
    69      69       --         1.243 au  N             1.00      1 D:xy            3
                        (      33.812 eV)
    70      70       --         1.243 au  N             1.00      1 D:xz            3
                        (      33.812 eV)
    71      71       --         1.243 au  N             1.00      1 D:yz            3
                        (      33.812 eV)
    72      72       --         3.998 au  N             1.00      1 F:z3            3
                        (     108.788 eV)
    73      73       --         3.998 au  N             1.00      1 F:z             3
                        (     108.788 eV)
    74      74       --         3.998 au  N             1.00      1 F:xyz           3
                        (     108.788 eV)
    75      75       --         3.998 au  N             1.00      1 F:z2x           3
                        (     108.788 eV)
    76      76       --         3.998 au  N             1.00      1 F:z2y           3
                        (     108.788 eV)
    77      77       --         3.998 au  N             1.00      1 F:x             3
                        (     108.788 eV)
    78      78       --         3.998 au  N             1.00      1 F:y             3
                        (     108.788 eV)
    79      79      2.000     -14.154 au  N             1.00      1 S               4
                        (    -385.144 eV)
    80      80      2.000      -0.687 au  N             1.00      2 S               4
                        (     -18.694 eV)
    81      81       --         0.529 au  N             1.00      3 S               4
                        (      14.408 eV)
    82      82       --         6.921 au  N             1.00      4 S               4
                        (     188.327 eV)
    83      83       --        63.573 au  N             1.00      5 S               4
                        (    1729.900 eV)
    84      84      1.000      -0.256 au  N             1.00      1 P:x             4
                        (      -6.963 eV)
    85      85       --         0.286 au  N             1.00      2 P:x             4
                        (       7.772 eV)
    86      86       --         3.321 au  N             1.00      3 P:x             4
                        (      90.361 eV)
    87      87      1.000      -0.256 au  N             1.00      1 P:y             4
                        (      -6.963 eV)
    88      88       --         0.286 au  N             1.00      2 P:y             4
                        (       7.772 eV)
    89      89       --         3.321 au  N             1.00      3 P:y             4
                        (      90.361 eV)
    90      90      1.000      -0.256 au  N             1.00      1 P:z             4
                        (      -6.963 eV)
    91      91       --         0.286 au  N             1.00      2 P:z             4
                        (       7.772 eV)
    92      92       --         3.321 au  N             1.00      3 P:z             4
                        (      90.361 eV)
    93      93       --         1.243 au  N             1.00      1 D:z2            4
                        (      33.812 eV)
    94      94       --         1.243 au  N             1.00      1 D:x2-y2         4
                        (      33.812 eV)
    95      95       --         1.243 au  N             1.00      1 D:xy            4
                        (      33.812 eV)
    96      96       --         1.243 au  N             1.00      1 D:xz            4
                        (      33.812 eV)
    97      97       --         1.243 au  N             1.00      1 D:yz            4
                        (      33.812 eV)
    98      98       --         3.998 au  N             1.00      1 F:z3            4
                        (     108.788 eV)
    99      99       --         3.998 au  N             1.00      1 F:z             4
                        (     108.788 eV)
   100     100       --         3.998 au  N             1.00      1 F:xyz           4
                        (     108.788 eV)
   101     101       --         3.998 au  N             1.00      1 F:z2x           4
                        (     108.788 eV)
   102     102       --         3.998 au  N             1.00      1 F:z2y           4
                        (     108.788 eV)
   103     103       --         3.998 au  N             1.00      1 F:x             4
                        (     108.788 eV)
   104     104       --         3.998 au  N             1.00      1 F:y             4
                        (     108.788 eV)
   105     105      1.000      -0.238 au  H             1.00      1 S               5
                        (      -6.484 eV)
   106     106       --         0.077 au  H             1.00      2 S               5
                        (       2.096 eV)
   107     107       --         1.521 au  H             1.00      3 S               5
                        (      41.380 eV)
   108     108       --         0.410 au  H             1.00      1 P:x             5
                        (      11.162 eV)
   109     109       --         0.410 au  H             1.00      1 P:y             5
                        (      11.162 eV)
   110     110       --         0.410 au  H             1.00      1 P:z             5
                        (      11.162 eV)
   111     111       --         2.567 au  H             1.00      1 D:z2            5
                        (      69.838 eV)
   112     112       --         2.567 au  H             1.00      1 D:x2-y2         5
                        (      69.838 eV)
   113     113       --         2.567 au  H             1.00      1 D:xy            5
                        (      69.838 eV)
   114     114       --         2.567 au  H             1.00      1 D:xz            5
                        (      69.838 eV)
   115     115       --         2.567 au  H             1.00      1 D:yz            5
                        (      69.838 eV)
   116     116      1.000      -0.238 au  H             1.00      1 S               6
                        (      -6.484 eV)
   117     117       --         0.077 au  H             1.00      2 S               6
                        (       2.096 eV)
   118     118       --         1.521 au  H             1.00      3 S               6
                        (      41.380 eV)
   119     119       --         0.410 au  H             1.00      1 P:x             6
                        (      11.162 eV)
   120     120       --         0.410 au  H             1.00      1 P:y             6
                        (      11.162 eV)
   121     121       --         0.410 au  H             1.00      1 P:z             6
                        (      11.162 eV)
   122     122       --         2.567 au  H             1.00      1 D:z2            6
                        (      69.838 eV)
   123     123       --         2.567 au  H             1.00      1 D:x2-y2         6
                        (      69.838 eV)
   124     124       --         2.567 au  H             1.00      1 D:xy            6
                        (      69.838 eV)
   125     125       --         2.567 au  H             1.00      1 D:xz            6
                        (      69.838 eV)
   126     126       --         2.567 au  H             1.00      1 D:yz            6
                        (      69.838 eV)
   127     127      2.000    -101.052 au  Cl            1.00      1 S               7
                        (   -2749.765 eV)
   128     128      2.000      -9.313 au  Cl            1.00      2 S               7
                        (    -253.406 eV)
   129     129      2.000      -0.758 au  Cl            1.00      3 S               7
                        (     -20.633 eV)
   130     130       --         0.208 au  Cl            1.00      4 S               7
                        (       5.658 eV)
   131     131       --         2.007 au  Cl            1.00      5 S               7
                        (      54.621 eV)
   132     132       --        12.626 au  Cl            1.00      6 S               7
                        (     343.574 eV)
   133     133       --       205.598 au  Cl            1.00      7 S               7
                        (    5594.614 eV)
   134     134      2.000      -7.061 au  Cl            1.00      1 P:x             7
                        (    -192.151 eV)
   135     135      1.667      -0.312 au  Cl            1.00      2 P:x             7
                        (      -8.486 eV)
   136     136       --         0.227 au  Cl            1.00      3 P:x             7
                        (       6.179 eV)
   137     137       --         2.122 au  Cl            1.00      4 P:x             7
                        (      57.749 eV)
   138     138       --        18.691 au  Cl            1.00      5 P:x             7
                        (     508.605 eV)
   139     139      2.000      -7.061 au  Cl            1.00      1 P:y             7
                        (    -192.151 eV)
   140     140      1.667      -0.312 au  Cl            1.00      2 P:y             7
                        (      -8.486 eV)
   141     141       --         0.227 au  Cl            1.00      3 P:y             7
                        (       6.179 eV)
   142     142       --         2.122 au  Cl            1.00      4 P:y             7
                        (      57.749 eV)
   143     143       --        18.691 au  Cl            1.00      5 P:y             7
                        (     508.605 eV)
   144     144      2.000      -7.061 au  Cl            1.00      1 P:z             7
                        (    -192.151 eV)
   145     145      1.667      -0.312 au  Cl            1.00      2 P:z             7
                        (      -8.486 eV)
   146     146       --         0.227 au  Cl            1.00      3 P:z             7
                        (       6.179 eV)
   147     147       --         2.122 au  Cl            1.00      4 P:z             7
                        (      57.749 eV)
   148     148       --        18.691 au  Cl            1.00      5 P:z             7
                        (     508.605 eV)
   149     149       --         0.387 au  Cl            1.00      1 D:z2            7
                        (      10.541 eV)
   150     150       --         0.387 au  Cl            1.00      1 D:x2-y2         7
                        (      10.541 eV)
   151     151       --         0.387 au  Cl            1.00      1 D:xy            7
                        (      10.541 eV)
   152     152       --         0.387 au  Cl            1.00      1 D:xz            7
                        (      10.541 eV)
   153     153       --         0.387 au  Cl            1.00      1 D:yz            7
                        (      10.541 eV)
   154     154       --         1.191 au  Cl            1.00      1 F:z3            7
                        (      32.402 eV)
   155     155       --         1.191 au  Cl            1.00      1 F:z             7
                        (      32.402 eV)
   156     156       --         1.191 au  Cl            1.00      1 F:xyz           7
                        (      32.402 eV)
   157     157       --         1.191 au  Cl            1.00      1 F:z2x           7
                        (      32.402 eV)
   158     158       --         1.191 au  Cl            1.00      1 F:z2y           7
                        (      32.402 eV)
   159     159       --         1.191 au  Cl            1.00      1 F:x             7
                        (      32.402 eV)
   160     160       --         1.191 au  Cl            1.00      1 F:y             7
                        (      32.402 eV)
   161     161      2.000    -101.052 au  Cl            1.00      1 S               8
                        (   -2749.765 eV)
   162     162      2.000      -9.313 au  Cl            1.00      2 S               8
                        (    -253.406 eV)
   163     163      2.000      -0.758 au  Cl            1.00      3 S               8
                        (     -20.633 eV)
   164     164       --         0.208 au  Cl            1.00      4 S               8
                        (       5.658 eV)
   165     165       --         2.007 au  Cl            1.00      5 S               8
                        (      54.621 eV)
   166     166       --        12.626 au  Cl            1.00      6 S               8
                        (     343.574 eV)
   167     167       --       205.598 au  Cl            1.00      7 S               8
                        (    5594.614 eV)
   168     168      2.000      -7.061 au  Cl            1.00      1 P:x             8
                        (    -192.151 eV)
   169     169      1.667      -0.312 au  Cl            1.00      2 P:x             8
                        (      -8.486 eV)
   170     170       --         0.227 au  Cl            1.00      3 P:x             8
                        (       6.179 eV)
   171     171       --         2.122 au  Cl            1.00      4 P:x             8
                        (      57.749 eV)
   172     172       --        18.691 au  Cl            1.00      5 P:x             8
                        (     508.605 eV)
   173     173      2.000      -7.061 au  Cl            1.00      1 P:y             8
                        (    -192.151 eV)
   174     174      1.667      -0.312 au  Cl            1.00      2 P:y             8
                        (      -8.486 eV)
   175     175       --         0.227 au  Cl            1.00      3 P:y             8
                        (       6.179 eV)
   176     176       --         2.122 au  Cl            1.00      4 P:y             8
                        (      57.749 eV)
   177     177       --        18.691 au  Cl            1.00      5 P:y             8
                        (     508.605 eV)
   178     178      2.000      -7.061 au  Cl            1.00      1 P:z             8
                        (    -192.151 eV)
   179     179      1.667      -0.312 au  Cl            1.00      2 P:z             8
                        (      -8.486 eV)
   180     180       --         0.227 au  Cl            1.00      3 P:z             8
                        (       6.179 eV)
   181     181       --         2.122 au  Cl            1.00      4 P:z             8
                        (      57.749 eV)
   182     182       --        18.691 au  Cl            1.00      5 P:z             8
                        (     508.605 eV)
   183     183       --         0.387 au  Cl            1.00      1 D:z2            8
                        (      10.541 eV)
   184     184       --         0.387 au  Cl            1.00      1 D:x2-y2         8
                        (      10.541 eV)
   185     185       --         0.387 au  Cl            1.00      1 D:xy            8
                        (      10.541 eV)
   186     186       --         0.387 au  Cl            1.00      1 D:xz            8
                        (      10.541 eV)
   187     187       --         0.387 au  Cl            1.00      1 D:yz            8
                        (      10.541 eV)
   188     188       --         1.191 au  Cl            1.00      1 F:z3            8
                        (      32.402 eV)
   189     189       --         1.191 au  Cl            1.00      1 F:z             8
                        (      32.402 eV)
   190     190       --         1.191 au  Cl            1.00      1 F:xyz           8
                        (      32.402 eV)
   191     191       --         1.191 au  Cl            1.00      1 F:z2x           8
                        (      32.402 eV)
   192     192       --         1.191 au  Cl            1.00      1 F:z2y           8
                        (      32.402 eV)
   193     193       --         1.191 au  Cl            1.00      1 F:x             8
                        (      32.402 eV)
   194     194       --         1.191 au  Cl            1.00      1 F:y             8
                        (      32.402 eV)



 ================================
 (Slater-type)  F U N C T I O N S  ***  (Basis and Fit)  ***
 ================================
  

 Atom Type    1  (C)
 ==============

 Valence Basis Sets:  10
 -----------------------
   1 S    7.680000
   1 S    5.000000
   2 S    1.280000
   2 S    2.100000
   2 S    4.600000
   2 P    0.820000
   2 P    1.480000
   2 P    2.940000
   3 D    2.200000
   4 F    3.300000

 Atom Type    2  (O)
 ==============

 Valence Basis Sets:  10
 -----------------------
   1 S    9.800000
   1 S    6.800000
   2 S    7.580000
   2 S    2.880000
   2 S    1.720000
   2 P    4.080000
   2 P    2.080000
   2 P    1.120000
   3 D    2.000000
   4 F    3.000000

 Atom Type    3  (N)
 ==============

 Valence Basis Sets:  10
 -----------------------
   1 S    8.740000
   1 S    5.900000
   2 S    5.150000
   2 S    2.500000
   2 S    1.500000
   2 P    3.680000
   2 P    1.880000
   2 P    1.000000
   3 D    2.200000
   4 F    3.300000

 Atom Type    4  (H)
 ==============

 Valence Basis Sets:   5
 -----------------------
   1 S    0.690000
   1 S    0.920000
   1 S    1.580000
   2 P    1.250000
   3 D    2.500000

 Atom Type    5  (Cl)
 ==============

 Valence Basis Sets:  14
 -----------------------
   1 S   20.300000
   1 S   15.250000
   2 S    6.250000
   2 S    4.450000
   2 P    8.850000
   2 P    5.050000
   3 S    3.450000
   3 S    2.300000
   3 S    1.600000
   3 P    3.350000
   3 P    2.050000
   3 P    1.200000
   3 D    2.000000
   4 F    2.000000


 BAS: List of all Elementary Cartesian Basis Functions
 =====================================================

 The numbering in the list below (to the right of the function characteristics) is referred
 to in print-outs of MO eigenvectors and Mulliken populations in the BAS representation
 (as contrasted to the SFO representation).

 Notes:
 1. The functions are characterized by a polynomial prefactor (powers of x,y,z and r) and
    an exponential decay factor alpha.
 2. Since the basis sets are specific for an atom TYPE, the individual functions occur on
    all atoms of that type.
 3. The word 'Core' in the left margin signals that it is a Core Function (CF) : not a
    degree of freedom in the valence set, but only used to ensure orthogonalization of
    the other valence basis functions on the frozen Core Orbitals.


 (power of) X  Y  Z  R     Alpha  on Atom
            ==========     =====     ==========

 C                                    1
                                  ---------------------------------------------------------------------------
            0  0  0  0     7.680      1
            0  0  0  0     5.000      2
            0  0  0  1     1.280      3
            0  0  0  1     2.100      4
            0  0  0  1     4.600      5
            1  0  0  0     0.820      6
            0  1  0  0     0.820      7
            0  0  1  0     0.820      8
            1  0  0  0     1.480      9
            0  1  0  0     1.480     10
            0  0  1  0     1.480     11
            1  0  0  0     2.940     12
            0  1  0  0     2.940     13
            0  0  1  0     2.940     14
            2  0  0  0     2.200     15
            1  1  0  0     2.200     16
            1  0  1  0     2.200     17
            0  2  0  0     2.200     18
            0  1  1  0     2.200     19
            0  0  2  0     2.200     20
            3  0  0  0     3.300     21
            2  1  0  0     3.300     22
            2  0  1  0     3.300     23
            1  2  0  0     3.300     24
            1  1  1  0     3.300     25
            1  0  2  0     3.300     26
            0  3  0  0     3.300     27
            0  2  1  0     3.300     28
            0  1  2  0     3.300     29
            0  0  3  0     3.300     30

 O                                    2
                                  ---------------------------------------------------------------------------
            0  0  0  0     9.800     31
            0  0  0  0     6.800     32
            0  0  0  1     7.580     33
            0  0  0  1     2.880     34
            0  0  0  1     1.720     35
            1  0  0  0     4.080     36
            0  1  0  0     4.080     37
            0  0  1  0     4.080     38
            1  0  0  0     2.080     39
            0  1  0  0     2.080     40
            0  0  1  0     2.080     41
            1  0  0  0     1.120     42
            0  1  0  0     1.120     43
            0  0  1  0     1.120     44
            2  0  0  0     2.000     45
            1  1  0  0     2.000     46
            1  0  1  0     2.000     47
            0  2  0  0     2.000     48
            0  1  1  0     2.000     49
            0  0  2  0     2.000     50
            3  0  0  0     3.000     51
            2  1  0  0     3.000     52
            2  0  1  0     3.000     53
            1  2  0  0     3.000     54
            1  1  1  0     3.000     55
            1  0  2  0     3.000     56
            0  3  0  0     3.000     57
            0  2  1  0     3.000     58
            0  1  2  0     3.000     59
            0  0  3  0     3.000     60

 N                                    3    4
                                  ---------------------------------------------------------------------------
            0  0  0  0     8.740     61   91
            0  0  0  0     5.900     62   92
            0  0  0  1     5.150     63   93
            0  0  0  1     2.500     64   94
            0  0  0  1     1.500     65   95
            1  0  0  0     3.680     66   96
            0  1  0  0     3.680     67   97
            0  0  1  0     3.680     68   98
            1  0  0  0     1.880     69   99
            0  1  0  0     1.880     70  100
            0  0  1  0     1.880     71  101
            1  0  0  0     1.000     72  102
            0  1  0  0     1.000     73  103
            0  0  1  0     1.000     74  104
            2  0  0  0     2.200     75  105
            1  1  0  0     2.200     76  106
            1  0  1  0     2.200     77  107
            0  2  0  0     2.200     78  108
            0  1  1  0     2.200     79  109
            0  0  2  0     2.200     80  110
            3  0  0  0     3.300     81  111
            2  1  0  0     3.300     82  112
            2  0  1  0     3.300     83  113
            1  2  0  0     3.300     84  114
            1  1  1  0     3.300     85  115
            1  0  2  0     3.300     86  116
            0  3  0  0     3.300     87  117
            0  2  1  0     3.300     88  118
            0  1  2  0     3.300     89  119
            0  0  3  0     3.300     90  120

 H                                    5    6
                                  ---------------------------------------------------------------------------
            0  0  0  0     0.690    121  133
            0  0  0  0     0.920    122  134
            0  0  0  0     1.580    123  135
            1  0  0  0     1.250    124  136
            0  1  0  0     1.250    125  137
            0  0  1  0     1.250    126  138
            2  0  0  0     2.500    127  139
            1  1  0  0     2.500    128  140
            1  0  1  0     2.500    129  141
            0  2  0  0     2.500    130  142
            0  1  1  0     2.500    131  143
            0  0  2  0     2.500    132  144

 Cl                                   7    8
                                  ---------------------------------------------------------------------------
            0  0  0  0    20.300    145  183
            0  0  0  0    15.250    146  184
            0  0  0  1     6.250    147  185
            0  0  0  1     4.450    148  186
            1  0  0  0     8.850    149  187
            0  1  0  0     8.850    150  188
            0  0  1  0     8.850    151  189
            1  0  0  0     5.050    152  190
            0  1  0  0     5.050    153  191
            0  0  1  0     5.050    154  192
            0  0  0  2     3.450    155  193
            0  0  0  2     2.300    156  194
            0  0  0  2     1.600    157  195
            1  0  0  1     3.350    158  196
            0  1  0  1     3.350    159  197
            0  0  1  1     3.350    160  198
            1  0  0  1     2.050    161  199
            0  1  0  1     2.050    162  200
            0  0  1  1     2.050    163  201
            1  0  0  1     1.200    164  202
            0  1  0  1     1.200    165  203
            0  0  1  1     1.200    166  204
            2  0  0  0     2.000    167  205
            1  1  0  0     2.000    168  206
            1  0  1  0     2.000    169  207
            0  2  0  0     2.000    170  208
            0  1  1  0     2.000    171  209
            0  0  2  0     2.000    172  210
            3  0  0  0     2.000    173  211
            2  1  0  0     2.000    174  212
            2  0  1  0     2.000    175  213
            1  2  0  0     2.000    176  214
            1  1  1  0     2.000    177  215
            1  0  2  0     2.000    178  216
            0  3  0  0     2.000    179  217
            0  2  1  0     2.000    180  218
            0  1  2  0     2.000    181  219
            0  0  3  0     2.000    182  220

 Total number of charge fitting functions (nprimf)       648
 Total number of Cartesian basis functions (naos)        220
 Total number of Cartesian core functions  (ncos)          0

1
 ***************************************************************************************************



                                              ***********************
                                              *  T E C H N I C A L  *
                                              ***********************
  



 =============================================================
 P A R A L L E L I Z A T I O N  and  V E C T O R I Z A T I O N
 =============================================================
  
 Nr of parallel processes:                                4
 Maximum vector length in NumInt loops:                 128



 =====================
 S C F   U P D A T E S
 =====================
  
 Max. nr. of cycles:                               300
 Convergence criterion:                              0.0000010000
   secondary criterion:                              0.0010000000

 Mix parameter (when DIIS does not apply):           0.2000000000
 Mixed ADIIS+SDIIS will be used                  
    Max number of expansion vectors:                10
    Pure ADIIS when Max([F,P]) is above              0.1000000000
    Pure SDIIS when Max([F,P]) is below              0.0010000000
 Automatic ElectronSmearing (in case of problematic SCF convergence) disabled



 =================
 P R E C I S I O N  ***  (General: NumInt, NeglectFunctionTails, ...)  ***
 =================
  

 NumInt:           Target precision:                 4.0000000000
 -------           Initial precision:                4.0000000000
                   Min. precision (optimization):    4.0000000000

 Neglect Functions:          Basis functions:        0.1000000000E-05
 ------------------          Fit functions:          0.1000000000E-05



 ===========================
 L I N E A R   S C A L I N G
 ===========================
  

 Cut-off radii density fit:                        0.1000000000E-07
 Overlap cut-off criterion AO matrix elements:     0.1000000000E-05
 Cut-offs for Coulomb potential and fitted density:0.1000000000E-07
 Cut-off criterion for Coulomb multipole terms:    0.1000000000E-07
 Progressive Convergence parameter:                 0.000000000    

 Number of elements of the density matrix on this node (used, total):      6582     24310



 ===========================================
 Numerical Integration : Fuzzy Cells (Becke)
 ===========================================
  
 Becke grid quality: NORMAL         
  
 Lebedev angular grid order:             min:  11 max:  23
 Nr. of radial points:                   min:  46 max:  67

 Total nr. of points:      58082
 Nr. of blocks:              454
 Block length:               128
 Nr. of dummy points:         30


 Test of Precision of the Numerical Integration Grid
 ===================================================

 Integral of the Total Core Density:                   0.00000000000000



 ========================
 Density Fitting (zlmFit)
 ========================
  
 ZlmFit Fit Quality: NORMAL         
  
 Max L-expansion:                        min:   6 max:   7
 Nr. of radial interpolation points:     min:  39 max:  60



 =====
 S C F  ***  ScaSCF  ***
 =====
  
 Initial density matrix is taken from previous geometry

 CYCLE    1
  ***********************************************************
  ** : orbital data taken from :Z:/SCMTMP/amstmp_ams_kid0.473264581/GOStep8.rkf
  ***********************************************************
 SCF Error: norm([F,P])=      0.000000189345, max([F,P])=      0.000000029422
 orbitals (Q,E):
 ---------------
 A :23...42          ( 2.00    -0.4356)  ( 2.00    -0.4252)  ( 2.00    -0.4058)  ( 2.00    -0.3547)
                     ( 2.00    -0.3223)  ( 2.00    -0.3001)  ( 2.00    -0.2922)  ( 2.00    -0.2687)
                     ( 2.00    -0.2487)  ( 2.00    -0.2423)  ( 0.00    -0.1089)  ( 0.00    -0.0811)
                     ( 0.00    -0.0437)  ( 0.00    -0.0146)  ( 0.00     0.0044)  ( 0.00     0.1125)
                     ( 0.00     0.1250)  ( 0.00     0.1462)  ( 0.00     0.1590)  ( 0.00     0.1797)

 CYCLE    2
   MIX coefficients:  0.8000  0.2000
 SCF Error: norm([F,P])=      0.000000337737, max([F,P])=      0.000000070672
 orbitals (Q,E):
 ---------------
 A :23...33          ( 2.00    -0.4356)  ( 2.00    -0.4252)  ( 2.00    -0.4058)  ( 2.00    -0.3547)
                     ( 2.00    -0.3223)  ( 2.00    -0.3001)  ( 2.00    -0.2922)  ( 2.00    -0.2687)
                     ( 2.00    -0.2487)  ( 2.00    -0.2423)  ( 0.00    -0.1089)

 SCF CONVERGED

 CYCLE    3
1
 ***************************************************************************************************



                                                *******************
                                                *  R E S U L T S  *
                                                *******************
  
 *** Using FIT density in Focky
   MIX coefficients:  0.8000  0.2000
 SCF Error: norm([F,P])=      0.000000136663, max([F,P])=      0.000000018998

 Scaled ZORA Orbital Energies, per Irrep and Spin:
 =================================================
                        Occup              E (au)              E (eV)       Diff (eV) with prev. cycle
                        -----      --------------------        ------       --------------------------
 A
              23        2.000     -0.43564624622449E+00       -11.855               8.89E-07
              24        2.000     -0.42523330682722E+00       -11.571               1.56E-06
              25        2.000     -0.40582492754701E+00       -11.043               1.35E-06
              26        2.000     -0.35466202807134E+00        -9.651               5.99E-07
              27        2.000     -0.32234181987672E+00        -8.771               7.33E-07
              28        2.000     -0.30006592144173E+00        -8.165              -8.55E-08
              29        2.000     -0.29221940702396E+00        -7.952              -2.76E-08
              30        2.000     -0.26870543274639E+00        -7.312               1.12E-06
              31        2.000     -0.24873679743415E+00        -6.768               1.01E-06
              32        2.000     -0.24233295430808E+00        -6.594               6.46E-07
              33        0.000     -0.10890893992524E+00        -2.964
              34        0.000     -0.81113505660678E-01        -2.207
              35        0.000     -0.43666205649061E-01        -1.188
              36        0.000     -0.14585431655412E-01        -0.397
              37        0.000      0.43518233345620E-02         0.118
              38        0.000      0.11252605211216E+00         3.062
              39        0.000      0.12495112297305E+00         3.400
              40        0.000      0.14615591834175E+00         3.977
              41        0.000      0.15896759283926E+00         4.326
              42        0.000      0.17972457181450E+00         4.891
  
 HOMO :       32 A                -0.24233295430808E+00
 LUMO :       33 A                -0.10890893992524E+00
  


 All Electron Calculation, thus no Orbital Energies of the Core Orbitals are calculated


 Fit test: (difference of exact and fit density, squared integrated, result summed over spins)
         Sum-of-Fragments:                             0.00000000146294
         Orthogonalized Fragments:                     0.00015175896508
         SCF:                                          0.00021067599602



 ==========================
 Electron Density at Nuclei
 ==========================
  
 The electron density is calculated at points on a small sphere around the center of a nucleus.
 The printed electron density is the average electron density on these points.
 The radius of the sphere is the printed approximate finite nuclear radius.
 Note: ZORA-4 density is used, which includes small component density

         Atom        Nuclear Radius (Angstrom)             Electron Density (a.u.)
         ----        -------------------------             -----------------------
     1)   C                 0.0000320678                              126.76660
     2)   O                 0.0000345546                              313.36815
     3)   N                 0.0000333706                              205.80117
     4)   N                 0.0000333706                              205.80648
     5)   H                 0.0000181514                                0.49707
     6)   Cl                0.0000426624                             3309.82490
     7)   H                 0.0000181514                                0.49709
     8)   Cl                0.0000426624                             3309.82481



 =======================================
 M U L L I K E N   P O P U L A T I O N S
 =======================================
  
 The survey below gives for each atom:
 a) the total charge (Z minus electrons)
 b) the net spin polarization (nr of electrons spin-A minus spin-B)
 c) for each spin the atomic electron valence density (integrated) per L-value.

 Atom              Charge    Spin density          S         P         D         F
 ----              ------    ------------       ------    ------    ------    ------
 1 C               0.6653                       2.8739    2.2680    0.1813    0.0115
 2 O              -0.5159                       3.8354    4.6166    0.0573    0.0066
 3 N              -0.0556                       3.4744    3.5117    0.0653    0.0043
 4 N              -0.0566                       3.4759    3.5112    0.0652    0.0043
 5 H               0.0077                       0.8673    0.1146    0.0104    0.0000
 6 Cl             -0.0263                       5.9502   10.9656    0.0890    0.0216
 7 H               0.0079                       0.8672    0.1146    0.0104    0.0000
 8 Cl             -0.0264                       5.9502   10.9660    0.0887    0.0215

 Populations of individual BAS functions
 ----------------------------------------
 1 C            0.4694  1.5548  0.0451  0.8909 -0.0862 -0.1729 -0.0495 -0.0593  0.7215  0.6954
                0.6275  0.1648  0.1328  0.2077  0.0193  0.0210  0.0782 -0.0192  0.0404  0.0416
                0.0016  0.0023  0.0002 -0.0046  0.0013  0.0071 -0.0073 -0.0070  0.0079  0.0099
 2 O            0.5964  1.4213 -0.0512  1.0476  0.8213  0.3069  0.2415  0.2511  0.9772  0.8351
                0.8621  0.5036  0.3741  0.2648 -0.0066  0.0005  0.0142 -0.0024  0.0209  0.0308
               -0.0102 -0.0041 -0.0106 -0.0016  0.0001  0.0141 -0.0075 -0.0088  0.0142  0.0211
 3 N            0.5217  1.4839 -0.0710  1.0249  0.5149  0.1302  0.2054  0.1547  0.7575  0.9411
                0.8658  0.0382  0.4145  0.0043  0.0237  0.0149  0.0167 -0.0165  0.0099  0.0166
                0.0053  0.0064  0.0036 -0.0043  0.0005  0.0005 -0.0091 -0.0035  0.0040  0.0008
 4 N            0.5217  1.4839 -0.0710  1.0250  0.5162  0.1301  0.2054  0.1546  0.7568  0.9418
                0.8644  0.0389  0.4091  0.0102  0.0236  0.0146  0.0170 -0.0161  0.0105  0.0155
                0.0052  0.0063  0.0038 -0.0043  0.0005  0.0007 -0.0091 -0.0032  0.0042  0.0003
 5 H           -0.0155  0.5549  0.3279  0.0312  0.0471  0.0363 -0.0043  0.0006  0.0028 -0.0028
                0.0029  0.0111
 7 H           -0.0154  0.5547  0.3279  0.0313  0.0472  0.0361 -0.0043  0.0007  0.0027 -0.0018
                0.0026  0.0104
 6 Cl           0.5853  1.3697  1.7641  0.2168  0.7289  0.7388  0.7385  1.2769  1.2640  1.2648
                0.5375  1.1998  0.2770  0.1687  0.2679  0.2591  0.9049  1.2180  1.2246  0.1670
                0.3801  0.3633  0.0356  0.0284  0.0202 -0.0021  0.0072 -0.0003  0.0220  0.0169
                0.0168 -0.0074  0.0032 -0.0062 -0.0111 -0.0036 -0.0012 -0.0079
 8 Cl           0.5853  1.3697  1.7641  0.2168  0.7289  0.7390  0.7384  1.2769  1.2638  1.2650
                0.5374  1.2001  0.2769  0.1685  0.2694  0.2577  0.9042  1.2238  1.2195  0.1668
                0.3843  0.3598  0.0356  0.0276  0.0208 -0.0029  0.0075 -0.0001  0.0221  0.0168
                0.0170 -0.0080  0.0033 -0.0057 -0.0113 -0.0040 -0.0010 -0.0075

 Gross Charges per Atom (Z minus electrons)
 ==========================================
             0.6653   -0.5159   -0.0556   -0.0566    0.0077   -0.0263    0.0079   -0.0264
 Net Total:  0.00000000


 Atom-Atom Population Matrix (off-diagonal elements not doubled)
 ===============================================================

     1 :     4.1778
     2 :     0.6015    8.0257
     3 :     0.3729   -0.0652    6.2173
     4 :     0.3723   -0.0651   -0.0882    6.2193
     5 :    -0.0657    0.0073    0.4293   -0.0038    0.6964
     6 :    -0.0293    0.0022    0.1888    0.0046   -0.0521   16.9121
     7 :    -0.0656    0.0073   -0.0038    0.4292   -0.0202    0.0011    0.6961
     8 :    -0.0292    0.0021    0.0045    0.1884    0.0011   -0.0009   -0.0520   16.9123



 =================================================
 H I R S H F E L D   C H A R G E   A N A L Y S I S
 =================================================
  
 For each fragment: the (numerical) integral of rho(scf) * rho(fragment)/rho(sum-of-fragments)
 (nuclear charges are included, electrons are counted negative)

 The fragments and their ordering are defined in the early G E O M E T R Y output section.
 If you use single-atom fragments, this usually implies that all atoms of the same
 chemical type are grouped together. This may not be the order in which you listed them
 in the input file!

    1  C                         0.1648
    2  O                        -0.2522
    3  N                        -0.1079
    4  N                        -0.1079
    5  H                         0.1239
    6  H                         0.1237
    7  Cl                        0.0280
    8  Cl                        0.0276

 Sum of these charges (accuracy NumInt/Tails) =          -0.00001181



 =============================
 V O R O N O I   C H A R G E S
 =============================
  
 For each atom: the (numerical) integral of the total electronic charge density in its Voronoi cell,
 i.e. the region of space that is closer to that atom than to any other atom.
 (cf. Wigner-Seitz cells in crystals)

 Within the Voronoi cell the subintegrals over the atomic sphere and the remaining part are evaluated
 separately to give the numbers of electrons (negative charge) in these regions.
 The net total charge in the cell (including the nuclear charge) is also given.

 Values are provided for
    a) the Initial (sum-of-fragments) density
    b) the Orthogonalized-Fragments density
    c) the SCF density
    d) the Voronoi Deformation Density (VDD): the difference SCF-Initial for the complete atomic cell


  Atom                Initial                    OrthFrag                   SCF
             Sphere RestCell NetTotal   Sphere RestCell NetTotal   Sphere RestCell NetTotal      VDD
 -----       ------------------------   ------------------------   ------------------------    -----
    1 C      -2.270   -3.477    0.254   -2.421   -3.322    0.257   -2.288   -3.273    0.439    0.186
    2 O      -3.304   -4.877   -0.181   -3.534   -4.648   -0.181   -3.334   -5.105   -0.438   -0.257
[...]
                                    1.34%     2 S             -18.694  2.00     3 N
                                    1.09%     2 P:z            -8.486  1.67     8 Cl
     -11.855  2.00    23 A         16.65%     2 P:x            -8.486  1.67     8 Cl
                                   16.47%     2 P:x            -8.486  1.67     7 Cl
                                   10.19%     1 P:x            -6.963  1.00     4 N
                                   10.00%     1 P:x            -6.963  1.00     3 N
                                    8.74%     1 P:y            -5.135  0.67     1 C
                                    4.18%     1 P:y            -8.949  1.33     2 O
                                    3.85%     1 P:y            -6.963  1.00     3 N
                                    3.47%     1 P:y            -6.963  1.00     4 N
                                    3.13%     1 P:z            -6.963  1.00     4 N
                                    2.77%     1 P:z            -6.963  1.00     3 N
                                    2.44%     3 S             -20.633  2.00     8 Cl
                                    2.42%     3 S             -20.633  2.00     7 Cl
                                    2.16%     2 P:z            -8.486  1.67     8 Cl
                                    2.01%     2 P:z            -8.486  1.67     7 Cl
                                    1.46%     1 S              -6.484  1.00     6 H
                                    1.44%     1 S              -6.484  1.00     5 H
                                    1.29%     2 P:y            -8.486  1.67     7 Cl
                                    1.17%     2 P:y            -8.486  1.67     8 Cl
     -11.571  2.00    24 A         21.18%     1 P:y            -5.135  0.67     1 C
                                   13.58%     1 P:y            -6.963  1.00     3 N
                                   13.54%     1 P:y            -6.963  1.00     4 N
                                   12.16%     1 P:y            -8.949  1.33     2 O
                                    7.29%     2 P:y            -8.486  1.67     7 Cl
                                    6.93%     2 P:y            -8.486  1.67     8 Cl
                                    4.52%     1 P:x            -6.963  1.00     4 N
                                    4.50%     1 P:x            -6.963  1.00     3 N
                                    4.14%     1 P:x            -5.135  0.67     1 C
                                    2.23%     1 P:x            -8.949  1.33     2 O
                                    1.74%     2 P:z            -8.486  1.67     8 Cl
                                    1.39%     2 P:z            -8.486  1.67     7 Cl
                                   -1.33%     2 P:y             4.559  0.00     1 C
     -11.043  2.00    25 A         55.89%     1 P:z            -8.949  1.33     2 O
                                   17.92%     2 S             -24.136  2.00     2 O
                                    6.53%     2 P:z             4.559  0.00     1 C
                                    4.44%     1 P:z            -5.135  0.67     1 C
                                    2.20%     1 P:z            -6.963  1.00     3 N
                                    2.12%     1 P:z            -6.963  1.00     4 N
                                    1.28%     1 S              -6.484  1.00     6 H
                                    1.28%     1 S              -6.484  1.00     5 H
                                    1.24%     2 S             -13.802  2.00     1 C
                                    1.11%     3 S              10.456  0.00     1 C
      -9.651  2.00    26 A         19.34%     1 P:y            -6.963  1.00     3 N
                                   19.31%     2 P:y            -8.486  1.67     7 Cl
                                   19.26%     2 P:y            -8.486  1.67     8 Cl
                                   19.05%     1 P:y            -6.963  1.00     4 N
                                    7.39%     2 P:x            -8.486  1.67     8 Cl
                                    7.37%     2 P:x            -8.486  1.67     7 Cl
                                    1.48%     2 S             -18.694  2.00     4 N
                                    1.46%     2 S             -18.694  2.00     3 N
      -8.771  2.00    27 A         32.12%     1 P:y            -8.949  1.33     2 O
                                   18.32%     2 P:y            -8.486  1.67     8 Cl
                                   17.55%     2 P:y            -8.486  1.67     7 Cl
                                    7.11%     1 P:y            -5.135  0.67     1 C
                                    4.17%     1 P:y            -6.963  1.00     3 N
                                    4.16%     1 P:y            -6.963  1.00     4 N
                                    3.48%     2 P:x            -8.486  1.67     8 Cl
                                    3.41%     2 P:x            -8.486  1.67     7 Cl
                                    2.79%     2 P:z            -8.486  1.67     7 Cl
                                    2.07%     2 P:z            -8.486  1.67     8 Cl
      -8.165  2.00    28 A         42.93%     2 P:z            -8.486  1.67     7 Cl
                                   41.56%     2 P:z            -8.486  1.67     8 Cl
                                    4.51%     2 P:x            -8.486  1.67     7 Cl
                                    4.27%     2 P:x            -8.486  1.67     8 Cl
      -7.952  2.00    29 A         38.60%     2 P:z            -8.486  1.67     8 Cl
                                   37.57%     2 P:z            -8.486  1.67     7 Cl
                                    7.71%     2 P:x            -8.486  1.67     8 Cl
                                    7.64%     2 P:x            -8.486  1.67     7 Cl
                                    2.26%     1 P:y            -8.949  1.33     2 O
                                    1.18%     1 P:x            -5.135  0.67     1 C
      -7.312  2.00    30 A         50.38%     1 P:x            -8.949  1.33     2 O
                                   11.94%     1 P:y            -8.949  1.33     2 O
                                    8.84%     2 P:y            -8.486  1.67     8 Cl
                                    8.69%     2 P:y            -8.486  1.67     7 Cl
                                    3.30%     1 P:y            -6.963  1.00     4 N
                                    3.10%     1 P:y            -6.963  1.00     3 N
                                    1.89%     2 S             -18.694  2.00     4 N
                                    1.87%     2 S             -18.694  2.00     3 N
                                    1.60%     1 D:xz           33.605  0.00     1 C
                                    1.55%     1 S              -6.484  1.00     6 H
                                    1.55%     1 S              -6.484  1.00     5 H
      -6.768  2.00    31 A         30.92%     1 P:x            -8.949  1.33     2 O
                                   10.93%     2 P:y            -8.486  1.67     8 Cl
                                   10.65%     2 P:y            -8.486  1.67     7 Cl
                                   10.64%     1 P:y            -6.963  1.00     3 N
                                   10.41%     1 P:y            -6.963  1.00     4 N
                                    9.86%     1 P:y            -8.949  1.33     2 O
                                    2.76%     2 P:x            -8.486  1.67     8 Cl
                                    2.74%     2 P:x            -8.486  1.67     7 Cl
                                    2.12%     1 P:z            -6.963  1.00     4 N
                                    1.63%     1 P:z            -6.963  1.00     3 N
                                    1.45%     1 P:x            -6.963  1.00     4 N
                                    1.45%     1 P:x            -6.963  1.00     3 N
                                    1.36%     1 D:xz           33.605  0.00     1 C
      -6.594  2.00    32 A         24.79%     2 P:y            -8.486  1.67     7 Cl
                                   24.39%     2 P:y            -8.486  1.67     8 Cl
                                   20.86%     1 P:y            -6.963  1.00     3 N
                                   20.44%     1 P:y            -6.963  1.00     4 N
                                    2.49%     2 S             -18.694  2.00     3 N
                                    2.49%     2 S             -18.694  2.00     4 N
      -2.964  0.00    33 A         21.71%     2 P:x            -8.486  1.67     8 Cl
                                   21.41%     2 P:x            -8.486  1.67     7 Cl
                                    6.67%     1 P:x            -6.963  1.00     4 N
                                    6.49%     1 P:x            -6.963  1.00     3 N
                                    4.32%     2 S             -18.694  2.00     4 N
                                    4.29%     2 S             -18.694  2.00     3 N
                                    3.47%     1 P:y            -6.963  1.00     3 N
                                    3.45%     2 P:z            -8.486  1.67     8 Cl
                                    3.19%     1 P:y            -6.963  1.00     4 N
                                    3.18%     2 P:z            -8.486  1.67     7 Cl
                                    2.76%     1 P:z            -6.963  1.00     4 N
                                    2.43%     1 P:z            -6.963  1.00     3 N
                                   -2.26%     3 S              14.408  0.00     4 N
                                   -2.24%     3 S              14.408  0.00     3 N
                                    2.13%     2 P:y            -8.486  1.67     7 Cl
                                    1.92%     2 P:y            -8.486  1.67     8 Cl
                                    1.69%     3 S             -20.633  2.00     8 Cl
                                    1.67%     3 S             -20.633  2.00     7 Cl
                                    1.61%     2 S               2.096  0.00     6 H
                                    1.61%     2 S               2.096  0.00     5 H
                                    1.35%     1 D:x2-y2        10.541  0.00     8 Cl
                                    1.30%     1 D:x2-y2        10.541  0.00     7 Cl
                                    1.30%     1 S              -6.484  1.00     6 H
                                    1.29%     1 S              -6.484  1.00     5 H
                                    1.01%     1 D:xz           10.541  0.00     8 Cl
      -2.207  0.00    34 A         14.68%     1 P:x            -6.963  1.00     3 N
                                   14.60%     1 P:x            -6.963  1.00     4 N
                                   14.50%     2 P:x            -8.486  1.67     7 Cl
                                   14.30%     2 P:x            -8.486  1.67     8 Cl
                                   10.82%     1 P:y            -5.135  0.67     1 C
                                    7.59%     1 P:y            -8.949  1.33     2 O
                                    4.20%     2 P:y            -8.486  1.67     7 Cl
                                    3.82%     2 P:y            -8.486  1.67     8 Cl
                                    3.29%     2 S             -18.694  2.00     3 N
                                    3.22%     2 S             -18.694  2.00     4 N
                                    2.83%     2 P:z            -8.486  1.67     8 Cl
                                   -2.79%     2 P:x             7.772  0.00     3 N
                                   -2.77%     2 P:x             7.772  0.00     4 N
                                    2.56%     2 P:z            -8.486  1.67     7 Cl
                                    1.99%     3 S             -20.633  2.00     7 Cl
                                   -1.97%     4 S               5.658  0.00     7 Cl
                                    1.96%     3 S             -20.633  2.00     8 Cl
                                   -1.95%     4 S               5.658  0.00     8 Cl
                                    1.73%     1 S              -6.484  1.00     5 H
                                    1.69%     1 S              -6.484  1.00     6 H
                                    1.21%     1 D:xy           10.541  0.00     7 Cl
                                    1.09%     1 D:xy           10.541  0.00     8 Cl
      -1.188  0.00    35 A         29.33%     2 S               2.096  0.00     5 H
                                   29.32%     2 S               2.096  0.00     6 H
                                   24.89%     1 S              -6.484  1.00     6 H
                                   24.84%     1 S              -6.484  1.00     5 H
                                   -4.99%     2 P:z             7.772  0.00     4 N
                                   -4.91%     2 P:z             7.772  0.00     3 N
                                    4.14%     1 P:z            -6.963  1.00     4 N
                                    4.03%     1 P:z            -6.963  1.00     3 N
                                   -3.96%     4 S               5.658  0.00     7 Cl
                                   -3.95%     4 S               5.658  0.00     8 Cl
                                   -2.35%     2 P:z             4.559  0.00     1 C
                                   -2.26%     3 S              10.456  0.00     1 C
                                    2.18%     1 P:z            11.162  0.00     5 H
                                    2.10%     1 P:z            11.162  0.00     6 H
                                   -1.96%     2 S             -13.802  2.00     1 C
                                    1.78%     2 P:x            -8.486  1.67     8 Cl
                                    1.77%     2 P:x            -8.486  1.67     7 Cl
                                   -1.19%     3 P:x             6.179  0.00     8 Cl
                                   -1.18%     3 P:x             6.179  0.00     7 Cl
      -0.397  0.00    36 A         41.35%     1 P:y            -5.135  0.67     1 C
                                   19.87%     1 P:y            -8.949  1.33     2 O
                                    6.52%     1 P:y            -6.963  1.00     3 N
                                    6.00%     1 P:y            -6.963  1.00     4 N
                                    4.01%     2 P:x            -8.486  1.67     7 Cl
                                    3.96%     2 P:x            -8.486  1.67     8 Cl
                                    3.32%     1 P:z            -6.963  1.00     4 N
                                    2.93%     1 P:x            -6.963  1.00     3 N
                                    2.92%     1 P:x            -6.963  1.00     4 N
                                    2.89%     1 P:z            -6.963  1.00     3 N
                                   -2.53%     2 P:y             4.559  0.00     1 C
                                    2.46%     1 P:x            -5.135  0.67     1 C
                                   -2.45%     2 P:y             9.557  0.00     2 O
                                    1.94%     1 S              -6.484  1.00     5 H
                                    1.90%     1 S              -6.484  1.00     6 H
                                   -1.19%     2 P:z             7.772  0.00     4 N
                                   -1.11%     2 P:z             7.772  0.00     3 N
                                    1.07%     2 P:z            -8.486  1.67     8 Cl
                                    1.05%     2 P:z            -8.486  1.67     7 Cl
       0.118  0.00    37 A         39.88%     1 S              -6.484  1.00     6 H
                                   39.86%     1 S              -6.484  1.00     5 H
                                   16.94%     2 S               2.096  0.00     6 H
                                   16.88%     2 S               2.096  0.00     5 H
                                   -6.34%     2 P:x             4.559  0.00     1 C
                                   -6.15%     2 P:z             7.772  0.00     3 N
                                   -5.77%     2 P:z             7.772  0.00     4 N
                                   -2.87%     1 P:x            -5.135  0.67     1 C
                                    2.08%     1 P:z            -6.963  1.00     3 N
                                   -2.05%     4 S               5.658  0.00     8 Cl
                                   -2.05%     4 S               5.658  0.00     7 Cl
                                    1.91%     1 P:z            -6.963  1.00     4 N
                                    1.83%     1 P:y            -5.135  0.67     1 C
                                   -1.68%     3 S              14.408  0.00     4 N
                                   -1.68%     3 S              14.408  0.00     3 N
                                    1.66%     3 S              41.380  0.00     5 H
                                    1.66%     3 S              41.380  0.00     6 H
                                   -1.10%     2 P:y             7.772  0.00     4 N
                                    1.06%     1 P:x            -8.949  1.33     2 O
                                    1.04%     1 P:y            -6.963  1.00     4 N

 Energy gradients wrt nuclear displacements
 ==========================================

     Atom      Cartesian (a.u./angstrom)
                 X         Y         Z
 ----------------------------------------
     1 C    -0.000157  0.000146 -0.000072
     2 O    -0.000070 -0.000029 -0.000279
     3 N    -0.000598 -0.000631 -0.000015
     4 N     0.000213  0.000321  0.000420
     5 H     0.000428 -0.000738  0.000114
     6 Cl    0.000379 -0.001394  0.000121
     7 H    -0.000283  0.000735 -0.000031
     8 Cl    0.000088  0.001590 -0.000258
 ----------------------------------------



 =======================================================================
 Electrostatic potential at the Nuclei due to electrons and other nuclei
 =======================================================================
  
         Atom                  Potential
         ----                  ---------
     1)   C                  14.63848083
     2)   O                  22.39688354
     3)   N                  18.31745255
     4)   N                  18.31751920
     5)   H                   0.97641223
     6)   Cl                 64.83836904
     7)   H                   0.97655355
     8)   Cl                 64.83843150
 Mulliken charges used for AMS results%charges...


    =====================
     CALCULATION RESULTS
    =====================

Energy (hartree)            -1.48565960

Gradients (hartree/bohr)
  Index   Atom            d/dx            d/dy            d/dz
      1      C   -0.0000831890    0.0000770146   -0.0000381662
      2      O   -0.0000370929   -0.0000152255   -0.0001478691
      3      N   -0.0003162728   -0.0003340700   -0.0000079163
      4      N    0.0001127864    0.0001698879    0.0002224519
      5      H    0.0002266092   -0.0003906456    0.0000605535
      6     Cl    0.0002003023   -0.0007375269    0.0000639573
      7      H   -0.0001499205    0.0003891641   -0.0000165234
      8     Cl    0.0000467773    0.0008414014   -0.0001364878


--------------
Atomic charges
--------------
  Index   Atom    Charge
      1      C    0.6653
      2      O   -0.5159
      3      N   -0.0556
      4      N   -0.0566
      5      H    0.0077
      6     Cl   -0.0263
      7      H    0.0079
      8     Cl   -0.0264


Dipole moment vector    (Debye):    -0.01179825    0.10481760    3.95205945
              magnitude (Debye):     3.95346681


AMS application finished. Exiting.
NORMAL TERMINATION
     Total cpu time:      59.09
  Total system time:       3.56
 Total elapsed time:      64.53
