

 Parallel Execution: Process Information
 ==============================================================================
 Rank   Node Name                              NodeID   MyNodeRank  NodeMaster
    0   DESKTOP-1M8FOJT                           0          0          0
    1   DESKTOP-1M8FOJT                           0          1         -1
    2   DESKTOP-1M8FOJT                           0          2         -1
    3   DESKTOP-1M8FOJT                           0          3         -1
 ==============================================================================


May use up to 4096MB of RAM as shared memory on node 0

 *******************************************************************************
 *                                                                             *
 *  --------------------------------                                           *
 *   Amsterdam Modeling Suite (AMS)              2021.106                      *
 *  --------------------------------                                           *
 *                                               r99350 2021-12-03             *
 *                                                                             *
 *                                                                             *
 *                              =================                              *
 *                              |               |                              *
 *                              |     A M S     |                              *
 *                              |               |                              *
 *                              =================                              *
 *                                                                             *
 *                                                                             *
 *   Online information and documentation:  https://www.scm.com/support/       *
 *   E-mail:  support@scm.com   info@scm.com                                   *
 *                                                                             *
 *   Scientific publications using AMS results must be properly referenced     *
 *   See the User Manuals (or the web site) for recommended citations          *
 *   The terms and conditions of the End User License Agreement apply to       *
 *   the use of AMS, https://www.scm.com/license-terms/                        *
 *                                                                             *
 *********************  x86_64_windows_amdZen / intelmpi  **********************
 
 Licensed to: Mr. Yuman Hordijk / SCM / Amsterdam / Netherlands 2021-10-04 09:39:26
 SCM User ID: u24430
  
 AMS 2021.106  RunTime: Jan23-2022 17:58:44  ShM Nodes: 1  Procs: 4

 AMS jobname: ams
 AMS jobid  : 238289840

 Start   directory: Z:/SCMTMP/user/
 Results directory: Z:/SCMTMP/user/ams.results/
 Scratch directory: Z:/SCMTMP/amstmp_ams_kid0.238289840/


 Communication costs MPI_COMM_WORLD:      1.214 usec per message,   0.0135 usec per 8-byte item
 Communication costs for intra-node:      3.917 usec per message,   0.0091 usec per 8-byte item

 RNG seed: -1961938487 -962388263 -505656500 -1610266216 -928772648 23889671 -1810757827 -1545438546
       ***************************
       *  GEOMETRY OPTIMIZATION  *
       ***************************

Optimization Method                    Quasi Newton
Optimization Coordinates               Delocalized Coordinates
Optimize lattice                       F
 
 ------------------------------------------------------
 Convergence criteria (Hartree,Angstrom)
 ------------------------------------------------------
 Maximum gradient               0.001000000000
 Maximum rms gradient           0.000666666667
 Maximum step allowed           0.010000000000
 Maximum rms step allowed       0.006666666667
 Maximum energy change allowe   0.000440000000
 Maximum stress energy allowe   0.000500000000
 
Initial model Hessian                  Automatic Hessian
 
------------------------------------
Quasi-Newton Optimizer Parameters
------------------------------------
Hessian Update Method                  BFGS
Maximum number of steps                  264
First GDIIS cycle                          0
Maximum GDIIS vectors                      0
Trust radius (bohr)                        0.200000
Trust radius varies                        T
Constraints converged at all steps         T
Use projector                              T
 
 Rigid motions settings for: old optimizer
 Atomic rotations (x,y,z):     T T T
 Atomic translations (x,y,z):  T T T
 Tolerance:                   1.000000000000000E-006
 
--------
Geometry
--------
Formula: C23H18O3
Atoms
  Index Symbol   x (angstrom)   y (angstrom)   z (angstrom)
      1      C    -2.69223023     0.73445254     1.05524557
      2      C    -3.84603677     0.53161703     1.79684491
      3      C    -4.12667189    -0.72212134     2.38046604
      4      C    -3.26973213    -1.77231130     2.20169520
      5      C    -0.10299585    -2.55766248     0.41338940
      6      C     0.16986330    -1.31630949    -0.19029603
      7      C    -0.66066538    -0.24583256     0.01379837
      8      C    -1.81042429    -0.36025965     0.83354889
      9      C    -2.09891369    -1.62456647     1.41889001
     10      C    -1.21568365    -2.70729512     1.19879571
     11      O    -4.74390764     1.51977090     2.02332158
     12      H    -5.03059736    -0.82192759     2.96924903
     13      H    -3.47901565    -2.73474476     2.65625129
     14      H     0.56823788    -3.39276622     0.24671690
     15      H     1.04497627    -1.21334636    -0.82232942
     16      H    -0.62925183     1.31399831     2.46189830
     17      H    -1.44009284    -3.66417162     1.65864742
     18      C    -2.37985725     2.09047843     0.53218426
     19      C    -3.20652573     2.69115477    -0.40445924
     20      C    -2.92525570     3.98667350    -0.89488295
     21      C    -1.82826935     4.67025958    -0.45478056
     22      C     0.96897052     4.26508584     1.96240864
     23      C     0.67387909     2.99562545     2.49060387
     24      C    -0.40713127     2.28625211     2.03720492
     25      C    -1.25023375     2.80696226     1.02476835
     26      C    -0.96619591     4.10489519     0.51554399
     27      C     0.16073991     4.80882289     0.99908626
     28      O    -4.31558124     2.09512492    -0.89384862
     29      H    -3.59932026     4.40966927    -1.62994578
     30      H    -1.60855775     5.66043187    -0.83944178
     31      H     1.83122837     4.81033652     2.32940883
     32      H     1.30799915     2.58131599     3.26674096
     33      H    -0.44684257     0.70460212    -0.46182844
     34      H     0.37154702     5.79351453     0.59481040
     35      H    -4.54157111     2.30506551     1.49237115
     36      H    -4.34243287     1.13395616    -0.71814136
     37      H    -9.01309070     0.82153344     1.49139071
     38      C    -7.75096088     1.96614876     2.74773227
     39      C    -8.01735815     1.20281297     1.68809510
     40      C    -6.95503674     0.84712582     0.73617030
     41      O    -5.80968365     1.22230052     0.84446611
     42      H    -6.74934608     2.33901554     2.92364297
     43      H    -7.27535478     0.19881089    -0.10317356
     44      H    -8.50540604     2.24823690     3.46809057
 
Total System Charge             0.00000
Bonding info available!
 
 
-------------------------
DFTB Engine configuration
-------------------------
DFTB Resources dir                     Z:/AMS2021.106/atomicdata/DFTB/GFN1-xTB
 
SCC convergence enabled.
Maximum SCC cycles                       500
SCC charge convergence                   0.000000010000
SCC charge mixing                        0.150000000000
DIIS max dimension                       20
DIIS maximum coeff.                     10.000000000000
Adaptive SCC charge mixing             T
Adaptive SCC mixing strategy              3
Spin polarization                      F
Orbital-dependent SCC                  T
Orbital fill strategy                  Fermi
Fermi temperature (kelvin)                     300.0000
  ... kT (Hartree)                               0.0010
Use of symmetry                        T
Radial function extrapolation method   Auto

 Settings for Grimme D3 dispersion correction

      damping                        BJ
      s6                          1.000
      s8                          2.400
      a1                          0.630
      a2                          5.000

 Other (technical) parameters

      alpha                      14.000
      version                         4
 

---------------------
Periodic DFTB options
---------------------
 kpoints config
 grid method with params
Assume insulator                        F
Ewald tolerance                    1.00E-10
Ewald range factor                  2.00

 BZStruct config
 ---------------
 Enabled        T
 Automatic      T
 CalcFatBands   T
 useSymmetry    T
 deltaK          0.100000000000000     
 
 Using automatic Hessian for delocalized coordinates.
 
----------------------------------------------------------------------
Geometry Convergence after Step   1       (Hartree/Angstrom,Angstrom)
----------------------------------------------------------------------
current energy                              -72.19346617 Hartree
energy change                     -72.19346617     0.00044000    F
constrained gradient max            0.39897472     0.00100000    F
constrained gradient rms            0.06351649     0.00066667    F
gradient max                        0.39897472
gradient rms                        0.06351649
cart. step max                      0.18320033     0.01000000    F
cart. step rms                      0.04134187     0.00666667    F
 
 
--------
Geometry
--------
Formula: C23H18O3
Atoms
  Index Symbol   x (angstrom)   y (angstrom)   z (angstrom)
      1      C    -2.68853965     0.74478572     1.03871910
      2      C    -3.84610574     0.53153413     1.78408785
      3      C    -4.11164867    -0.72544688     2.37286376
      4      C    -3.24495769    -1.76608585     2.19847627
      5      C    -0.06882373    -2.52810132     0.41780462
      6      C     0.19336930    -1.28700524    -0.19046191
      7      C    -0.64750645    -0.22358473     0.00749822
      8      C    -1.79818829    -0.34477871     0.82562325
      9      C    -2.07519077    -1.60969051     1.41595077
     10      C    -1.18170991    -2.68455941     1.20201876
     11      O    -4.76260012     1.50118301     2.01657139
     12      H    -5.01427873    -0.83341869     2.96223953
     13      H    -3.44472358    -2.72863981     2.65692796
     14      H     0.61049414    -3.35755942     0.25596151
     15      H     1.06862717    -1.17840211    -0.82136322
     16      H    -0.65967128     1.30978382     2.46616829
     17      H    -1.39790967    -3.64141924     1.66583476
     18      C    -2.36595425     2.09724081     0.50443902
     19      C    -3.16666093     2.70623029    -0.45119480
     20      C    -2.85973468     3.99611338    -0.94094987
     21      C    -1.76348647     4.66859617    -0.48338817
     22      C     0.98370984     4.23885607     1.98501249
     23      C     0.66340586     2.97522225     2.51228354
     24      C    -0.41795039     2.27755499     2.04194833
     25      C    -1.23646766     2.80430062     1.01256485
     26      C    -0.92689450     4.09662955     0.50414663
     27      C     0.19976418     4.78863120     1.00536303
     28      O    -4.27231416     2.12672541    -0.96630437
     29      H    -3.51419317     4.42391214    -1.69082416
     30      H    -1.52460083     5.65432088    -0.86798740
     31      H     1.84588821     4.77487543     2.36552705
     32      H     1.27819597     2.55606391     3.30124192
     33      H    -0.44151529     0.72667604    -0.47197453
     34      H     0.42994504     5.76905607     0.60129012
     35      H    -4.57514700     2.29312836     1.48816761
     36      H    -4.31695621     1.16904576    -0.78854135
     37      H    -9.11848109     0.78904862     1.60978572
     38      C    -7.81301635     1.96749242     2.78849393
     39      C    -8.11783938     1.18106445     1.75379508
     40      C    -7.10070324     0.81102383     0.76122379
     41      O    -5.93542222     1.19416731     0.80561362
     42      H    -6.80930167     2.35259443     2.91610307
     43      H    -7.45855510     0.14004779    -0.04570675
     44      H    -8.53914027     2.25552258     3.53530123
 
Total System Charge             0.00000
Bonding info available!
 

 dE(predicted):    -0.54017E-01, dE(actual):    -0.53724E-01, Trust radius:    0.400000, all in a.u.
 
----------------------------------------------------------------------
Geometry Convergence after Step   2       (Hartree/Angstrom,Angstrom)
----------------------------------------------------------------------
current energy                              -72.24719031 Hartree
energy change                      -0.05372414     0.00044000    F
constrained gradient max            0.31440964     0.00100000    F
constrained gradient rms            0.05264080     0.00066667    F
gradient max                        0.31440964
gradient rms                        0.05264080
cart. step max                      0.15930884     0.01000000    F
cart. step rms                      0.05212569     0.00666667    F
 
 
--------
Geometry
--------
Formula: C23H18O3
Atoms
  Index Symbol   x (angstrom)   y (angstrom)   z (angstrom)
      1      C    -2.65570421     0.72473525     1.08340620
      2      C    -3.80117160     0.50741086     1.83567765
      3      C    -4.06562511    -0.75539036     2.41501588
      4      C    -3.20327572    -1.79573102     2.22165525
      5      C    -0.05158804    -2.54769464     0.39363680
      6      C     0.20588097    -1.30153043    -0.20588482
      7      C    -0.62924743    -0.23797682     0.01297127
      8      C    -1.76985125    -0.36385638     0.84517425
      9      C    -2.04237960    -1.63431652     1.42647204
     10      C    -1.15466600    -2.70898815     1.19038316
     11      O    -4.70351292     1.47911061     2.06808032
     12      H    -4.96357207    -0.86638740     3.01086957
     13      H    -3.40059569    -2.76262674     2.67212095
     14      H     0.62332255    -3.37721733     0.21486621
     15      H     1.07317769    -1.18891955    -0.84706744
     16      H    -0.57115960     1.30945155     2.46397514
     17      H    -1.36756383    -3.66994614     1.64728621
     18      C    -2.35436266     2.08530449     0.56111509
     19      C    -3.19434478     2.68861665    -0.35872571
     20      C    -2.92039306     3.98287487    -0.85477334
     21      C    -1.81582437     4.66608452    -0.43308136
     22      C     1.01842801     4.26045599     1.93965082
     23      C     0.73158719     2.99089298     2.47212494
     24      C    -0.35643289     2.28170680     2.03584290
     25      C    -1.21636386     2.80242368     1.03718329
     26      C    -0.93965642     4.10042958     0.52382582
     27      C     0.19511782     4.80423038     0.98948708
     28      O    -4.31754693     2.09425246    -0.82355558
     29      H    -3.60748038     4.40637526    -1.57745224
     30      H    -1.60194982     5.65616113    -0.82124104
     31      H     1.88651859     4.80556198     2.29288230
     32      H     1.37799529     2.57623879     3.23784339
     33      H    -0.42625621     0.71607435    -0.46013333
     34      H     0.39962310     5.78887448     0.58184318
     35      H    -4.50868379     2.26872149     1.54243326
     36      H    -4.34950525     1.14349585    -0.62923251
     37      H    -9.19746985     0.87173267     1.52532796
     38      C    -7.86513188     2.03658731     2.68295204
     39      C    -8.18806500     1.24446040     1.66006549
     40      C    -7.18684532     0.83579145     0.66964072
     41      O    -6.02567670     1.18886544     0.70718450
     42      H    -6.85418239     2.40231870     2.80544944
     43      H    -7.56418248     0.15688679    -0.12281135
     44      H    -8.58417354     2.34719028     3.42786615
 
Total System Charge             0.00000
Bonding info available!
 

 dE(predicted):    -0.72351E-01, dE(actual):    -0.65489E-01, Trust radius:    0.800000, all in a.u.
 
----------------------------------------------------------------------
Geometry Convergence after Step   3       (Hartree/Angstrom,Angstrom)
----------------------------------------------------------------------
current energy                              -72.31267886 Hartree
energy change                      -0.06548855     0.00044000    F
constrained gradient max            0.16992425     0.00100000    F
constrained gradient rms            0.02672792     0.00066667    F
gradient max                        0.16992425
gradient rms                        0.02672792
cart. step max                      0.21117865     0.01000000    F
cart. step rms                      0.06969744     0.00666667    F
 
 
--------
Geometry
--------
Formula: C23H18O3
Atoms
  Index Symbol   x (angstrom)   y (angstrom)   z (angstrom)
      1      C    -2.67292281     0.75160108     1.02623693
      2      C    -3.81373006     0.53955555     1.78719678
      3      C    -4.05983301    -0.71360896     2.39415072
      4      C    -3.19340211    -1.75314804     2.21420139
      5      C    -0.04179525    -2.51246420     0.39094630
      6      C     0.20543447    -1.27347099    -0.22733841
      7      C    -0.63854676    -0.21371246    -0.02477100
      8      C    -1.77897990    -0.33566157     0.80819975
      9      C    -2.03895557    -1.59841305     1.41030294
     10      C    -1.14287259    -2.66985451     1.19071837
     11      O    -4.72466478     1.49859605     2.02880117
     12      H    -4.95158416    -0.81898421     3.00022401
     13      H    -3.38113802    -2.71239016     2.68482966
     14      H     0.64002838    -3.33902125     0.22512830
     15      H     1.07177022    -1.16338797    -0.87030692
     16      H    -0.67416684     1.31821389     2.49576994
     17      H    -1.34701215    -3.62464212     1.66431388
     18      C    -2.34129807     2.10410497     0.49806970
     19      C    -3.11430277     2.71075742    -0.47689047
     20      C    -2.78799037     3.99248802    -0.97379685
     21      C    -1.69703641     4.66248220    -0.49949897
     22      C     0.99950824     4.23122383     2.02388226
     23      C     0.65995396     2.97369282     2.55391595
     24      C    -0.41784565     2.28086020     2.06880783
     25      C    -1.21437577     2.80611051     1.02110301
     26      C    -0.88488811     4.09226509     0.50930310
     27      C     0.23781106     4.77955103     1.02618057
     28      O    -4.20971490     2.12888231    -1.01578032
     29      H    -3.42314780     4.41624607    -1.74240711
     30      H    -1.44272071     5.64260738    -0.88855191
     31      H     1.85877827     4.76347134     2.41617880
     32      H     1.25709739     2.55543854     3.35678980
     33      H    -0.44332485     0.73430966    -0.51304957
     34      H     0.48300859     5.75505580     0.61896855
     35      H    -4.57724500     2.27228125     1.46757494
     36      H    -4.27849741     1.18498038    -0.80266559
     37      H    -9.27248344     0.78645611     1.73650660
     38      C    -7.88424574     1.98822418     2.78394358
     39      C    -8.26081856     1.17206053     1.80153623
     40      C    -7.31396337     0.75217937     0.76150821
     41      O    -6.17210252     1.12064581     0.72297786
     42      H    -6.87060895     2.36360539     2.83662412
     43      H    -7.73070725     0.05456538     0.00555832
     44      H    -8.55925838     2.30898287     3.56495810
 
Total System Charge             0.00000
Bonding info available!
 

 dE(predicted):    -0.52121E-01, dE(actual):    -0.14324E-01, Trust radius:    0.800000, all in a.u.
 
----------------------------------------------------------------------
Geometry Convergence after Step   4       (Hartree/Angstrom,Angstrom)
----------------------------------------------------------------------
current energy                              -72.32700278 Hartree
energy change                      -0.01432393     0.00044000    F
constrained gradient max            0.12048047     0.00100000    F
constrained gradient rms            0.01930526     0.00066667    F
gradient max                        0.12048047
gradient rms                        0.01930526
cart. step max                      0.20650751     0.01000000    F
cart. step rms                      0.05749509     0.00666667    F
 
 
--------
Geometry
--------
Formula: C23H18O3
Atoms
  Index Symbol   x (angstrom)   y (angstrom)   z (angstrom)
      1      C    -2.67793995     0.79073541     1.07322671
      2      C    -3.81852215     0.57619329     1.83689075
      3      C    -4.06179952    -0.68188865     2.43524003
      4      C    -3.19446958    -1.71999723     2.25207754
      5      C    -0.05250635    -2.47364446     0.41057659
      6      C     0.19101224    -1.23247987    -0.20472048
      7      C    -0.65225794    -0.17374062     0.00606116
      8      C    -1.78757980    -0.29835770     0.84535315
      9      C    -2.04386764    -1.56290923     1.44412989
     10      C    -1.14939641    -2.63388213     1.21541709
     11      O    -4.74785252     1.51977425     2.07484118
     12      H    -4.95449806    -0.79185676     3.03916884
     13      H    -3.38164160    -2.68125261     2.71888479
     14      H     0.62828931    -3.29962112     0.23776224
     15      H     1.05379033    -1.11975258    -0.85205168
     16      H    -0.65082350     1.32044575     2.48798779
     17      H    -1.35172652    -3.59060355     1.68593752
     18      C    -2.33940098     2.13448232     0.52320574
     19      C    -3.11941269     2.75814817    -0.43613241
     20      C    -2.76522208     4.02256444    -0.95763003
     21      C    -1.64255562     4.66326399    -0.51878969
     22      C     1.09598697     4.17842186     1.94877614
     23      C     0.73193461     2.93668522     2.49947136
     24      C    -0.37691501     2.27170255     2.04653488
     25      C    -1.18267949     2.81103277     1.01336891
     26      C    -0.82644521     4.08080004     0.47946646
     27      C     0.32802774     4.73922221     0.96287129
     28      O    -4.26005491     2.22076813    -0.92483003
     29      H    -3.40890535     4.45981915    -1.71149093
     30      H    -1.36810493     5.63085405    -0.92510443
     31      H     1.97974536     4.68847332     2.31533894
     32      H     1.33551365     2.50818260     3.29206579
     33      H    -0.45929806     0.77628754    -0.47936671
     34      H     0.59286448     5.70254753     0.53926188
     35      H    -4.60607560     2.30303477     1.52596155
     36      H    -4.38612910     1.29858419    -0.65424002
     37      H    -9.33553648     0.68700247     1.63353970
     38      C    -7.97611284     1.83821084     2.77212589
     39      C    -8.32984937     1.08093316     1.73614560
     40      C    -7.35897002     0.73965047     0.68450781
     41      O    -6.22215643     1.13026619     0.68076106
     42      H    -6.96666616     2.21808966     2.86335446
     43      H    -7.75963253     0.08407036    -0.11791284
     44      H    -8.66494976     2.10247535     3.56230705
 
Total System Charge             0.00000
Bonding info available!
 

 dE(predicted):    -0.30277E-01, dE(actual):    -0.11707E-01, Trust radius:    0.800000, all in a.u.
 
----------------------------------------------------------------------
Geometry Convergence after Step   5       (Hartree/Angstrom,Angstrom)
----------------------------------------------------------------------
current energy                              -72.33871010 Hartree
energy change                      -0.01170732     0.00044000    F
constrained gradient max            0.08751381     0.00100000    F
constrained gradient rms            0.01417007     0.00066667    F
gradient max                        0.08751381
gradient rms                        0.01417007
cart. step max                      0.20384418     0.01000000    F
cart. step rms                      0.04200826     0.00666667    F
 
 
--------
Geometry
--------
Formula: C23H18O3
Atoms
  Index Symbol   x (angstrom)   y (angstrom)   z (angstrom)
      1      C    -2.67386401     0.81607551     1.07859898
      2      C    -3.81240512     0.61575674     1.84492434
      3      C    -4.06112471    -0.63355926     2.45928993
      4      C    -3.20404310    -1.68074354     2.28081980
      5      C    -0.10020006    -2.48940600     0.39951544
      6      C     0.14653490    -1.25832130    -0.23421802
      7      C    -0.67943155    -0.18678098    -0.01971253
      8      C    -1.79955840    -0.28628507     0.84360561
      9      C    -2.06255045    -1.54303457     1.45635117
     10      C    -1.18546887    -2.62754091     1.22371865
     11      O    -4.73498861     1.57081619     2.06976784
     12      H    -4.95077904    -0.72930887     3.07023749
     13      H    -3.39670143    -2.63604653     2.75754222
     14      H     0.56699773    -3.32570356     0.22332627
     15      H     0.99759465    -1.16366255    -0.89970889
     16      H    -0.67262480     1.37444008     2.54446585
     17      H    -1.39270301    -3.57711852     1.70644602
     18      C    -2.32509698     2.15835301     0.53175721
     19      C    -3.09834193     2.78214778    -0.43205070
     20      C    -2.71949346     4.02813722    -0.97962417
     21      C    -1.58698128     4.65817833    -0.55076227
     22      C     1.11893316     4.19394050     1.95567914
     23      C     0.73151739     2.97105133     2.53177013
     24      C    -0.37939466     2.30868178     2.08001374
     25      C    -1.16430705     2.83055976     1.02158119
     26      C    -0.78766311     4.08545159     0.46657122
     27      C     0.36921422     4.74089393     0.94836350
     28      O    -4.24712502     2.25541114    -0.91521746
     29      H    -3.35205372     4.45929920    -1.74626455
     30      H    -1.29433156     5.61203120    -0.97638657
     31      H     2.00414285     4.70201312     2.32150909
     32      H     1.31872523     2.55500403     3.34308442
     33      H    -0.48545243     0.75295572    -0.52401826
     34      H     0.64947662     5.69195636     0.50731702
     35      H    -4.59834525     2.34205915     1.50273094
     36      H    -4.43014247     1.36705502    -0.57152697
     37      H    -9.34132929     0.61010348     1.61840282
     38      C    -7.96180641     1.69088277     2.80343419
     39      C    -8.33592198     1.00327845     1.72621592
     40      C    -7.38402212     0.74082023     0.63350211
     41      O    -6.24915299     1.14299999     0.63149160
     42      H    -6.95143200     2.06808171     2.89791195
     43      H    -7.79330558     0.12318075    -0.19459816
     44      H    -8.63378378     1.89863118     3.62449325
 
Total System Charge             0.00000
Bonding info available!
 

 dE(predicted):    -0.15424E-01, dE(actual):    -0.74184E-02, Trust radius:    0.800000, all in a.u.
 
----------------------------------------------------------------------
Geometry Convergence after Step   6       (Hartree/Angstrom,Angstrom)
----------------------------------------------------------------------
current energy                              -72.34612854 Hartree
energy change                      -0.00741843     0.00044000    F
constrained gradient max            0.06620182     0.00100000    F
constrained gradient rms            0.01109776     0.00066667    F
gradient max                        0.06620182
gradient rms                        0.01109776
cart. step max                      0.20519798     0.01000000    F
cart. step rms                      0.03753104     0.00666667    F
 
 
--------
Geometry
--------
Formula: C23H18O3
Atoms
  Index Symbol   x (angstrom)   y (angstrom)   z (angstrom)
      1      C    -2.68500579     0.84018433     1.08776236
      2      C    -3.81926822     0.64878310     1.86052179
      3      C    -4.07516079    -0.59827026     2.47640085
      4      C    -3.22356712    -1.65019913     2.29897591
      5      C    -0.11530371    -2.47135522     0.42924099
      6      C     0.13872730    -1.24126160    -0.20367380
      7      C    -0.68563197    -0.16734321     0.00505489
      8      C    -1.81236949    -0.26468472     0.85927940
      9      C    -2.08039775    -1.51857817     1.47531158
     10      C    -1.20509409    -2.60571534     1.24828040
     11      O    -4.73252051     1.61421370     2.08860269
     12      H    -4.96257547    -0.68664401     3.09187146
     13      H    -3.41794754    -2.60205907     2.78178790
     14      H     0.55132996    -3.30921234     0.25843152
     15      H     0.99422455    -1.14906476    -0.86379404
     16      H    -0.66244863     1.36428885     2.51997020
     17      H    -1.41650804    -3.55365426     1.73242501
     18      C    -2.33021552     2.17786217     0.53516854
     19      C    -3.10048711     2.80555681    -0.42841632
     20      C    -2.70963214     4.04572806    -0.98136330
     21      C    -1.56674385     4.66333017    -0.56167676
     22      C     1.15622264     4.16470135     1.92065062
     23      C     0.75986872     2.94531991     2.49834183
     24      C    -0.36445338     2.29827424     2.05769815
     25      C    -1.15563341     2.83461204     1.01166875
     26      C    -0.76690378     4.08301823     0.45114550
     27      C     0.40349168     4.72258869     0.92140801
     28      O    -4.25476309     2.28971361    -0.91084788
     29      H    -3.33991795     4.48060138    -1.74777162
     30      H    -1.26253534     5.60969628    -0.99579431
     31      H     2.05241724     4.66011142     2.27697565
     32      H     1.35080193     2.51983330     3.30202106
     33      H    -0.48380390     0.77284887    -0.49546215
     34      H     0.69250985     5.66956453     0.47722609
     35      H    -4.59754956     2.38267364     1.51739685
     36      H    -4.47569500     1.42415993    -0.53073248
     37      H    -9.35594591     0.56574393     1.57048750
     38      C    -7.96223213     1.54853969     2.82399814
     39      C    -8.34829117     0.94586505     1.70062640
     40      C    -7.40407357     0.76076117     0.58533187
     41      O    -6.27234517     1.17346648     0.59782229
     42      H    -6.94903568     1.91272588     2.93833696
     43      H    -7.82266153     0.21257763    -0.28563159
     44      H    -8.62566503     1.69343320     3.66529359
 
Total System Charge             0.00000
Bonding info available!
 
 Rebuilding optimization coordinates

 dE(predicted):    -0.12759E-01, dE(actual):    -0.47105E-02, Trust radius:    0.800000, all in a.u.
 
----------------------------------------------------------------------
Geometry Convergence after Step   7       (Hartree/Angstrom,Angstrom)
----------------------------------------------------------------------
current energy                              -72.35083902 Hartree
energy change                      -0.00471048     0.00044000    F
constrained gradient max            0.05184734     0.00100000    F
constrained gradient rms            0.00884821     0.00066667    F
gradient max                        0.05184734
gradient rms                        0.00884821
cart. step max                      0.20696088     0.01000000    F
cart. step rms                      0.05054697     0.00666667    F
 
 
--------
Geometry
--------
Formula: C23H18O3
Atoms
  Index Symbol   x (angstrom)   y (angstrom)   z (angstrom)
      1      C    -2.66447280     0.85890223     1.10045372
      2      C    -3.78061790     0.70160303     1.90160232
      3      C    -4.05694034    -0.53230200     2.53231409
      4      C    -3.23551951    -1.60639195     2.34303602
      5      C    -0.20289521    -2.52423761     0.39528100
      6      C     0.06655776    -1.30625970    -0.25440219
      7      C    -0.72320850    -0.20903880    -0.03277556
      8      C    -1.82497392    -0.26873435     0.85608111
      9      C    -2.11156532    -1.51059847     1.48767850
     10      C    -1.27338691    -2.62326601     1.24422608
     11      O    -4.65709447     1.70301464     2.14227326
     12      H    -4.93461564    -0.59428457     3.16502100
     13      H    -3.44586961    -2.55134609     2.83248412
     14      H     0.43441881    -3.38181331     0.21100563
     15      H     0.90542790    -1.24208455    -0.93872676
     16      H    -0.66623455     1.41800249     2.56252675
     17      H    -1.49896999    -3.56236459     1.73909475
     18      C    -2.30358088     2.18742323     0.53328283
     19      C    -3.06767787     2.79878776    -0.44526661
     20      C    -2.67736934     4.03603958    -1.00646448
     21      C    -1.54291598     4.66493549    -0.58159899
     22      C     1.14477483     4.22006884     1.94908504
     23      C     0.74751011     3.00636290     2.53782880
     24      C    -0.36517813     2.34513425     2.08859755
     25      C    -1.14030834     2.85819495     1.01908600
     26      C    -0.75304266     4.10281004     0.44954749
     27      C     0.40415008     4.75825099     0.93017765
     28      O    -4.21008966     2.27253426    -0.94367151
     29      H    -3.30336694     4.46015060    -1.78237445
     30      H    -1.24269462     5.61098073    -1.01910876
     31      H     2.02984098     4.72855521     2.31466123
     32      H     1.32774762     2.59704381     3.35754890
     33      H    -0.51196615     0.72008785    -0.54966077
     34      H     0.69149001     5.70267064     0.47950635
     35      H    -4.53062059     2.44953920     1.54144449
     36      H    -4.47622564     1.43759262    -0.52098138
     37      H    -9.32978571     0.51444410     1.52819877
     38      C    -7.91364981     1.39335859     2.83506638
     39      C    -8.31974321     0.88170481     1.67392282
     40      C    -7.39459379     0.79278759     0.53109655
     41      O    -6.25911803     1.19342426     0.56169972
     42      H    -6.89761678     1.74662946     2.96002802
     43      H    -7.81157796     0.27795106    -0.35977409
     44      H    -8.56722083     1.48647231     3.69129915
 
Total System Charge             0.00000
Bonding info available!
 

 dE(predicted):    -0.94701E-02, dE(actual):    -0.70158E-02, Trust radius:    0.800000, all in a.u.
 
----------------------------------------------------------------------
Geometry Convergence after Step   8       (Hartree/Angstrom,Angstrom)
----------------------------------------------------------------------
current energy                              -72.35785486 Hartree
energy change                      -0.00701584     0.00044000    F
constrained gradient max            0.03340606     0.00100000    F
constrained gradient rms            0.00543870     0.00066667    F
gradient max                        0.03340606
gradient rms                        0.00543870
cart. step max                      0.20868967     0.01000000    F
cart. step rms                      0.03699801     0.00666667    F
 
 
--------
Geometry
--------
Formula: C23H18O3
Atoms
  Index Symbol   x (angstrom)   y (angstrom)   z (angstrom)
      1      C    -2.66489396     0.88253609     1.11158558
      2      C    -3.77208048     0.74442518     1.92755464
      3      C    -4.06020074    -0.48357639     2.56389772
      4      C    -3.25700786    -1.57013555     2.36684567
      5      C    -0.25713568    -2.53460839     0.39078688
      6      C     0.02409129    -1.32143593    -0.26293148
      7      C    -0.74868472    -0.21302918    -0.03678836
      8      C    -1.84348040    -0.25672217     0.86112878
      9      C    -2.14115664    -1.49254891     1.49902054
     10      C    -1.32105073    -2.61734190     1.24977418
     11      O    -4.63293126     1.76136615     2.17205724
     12      H    -4.93169806    -0.53162463     3.20633524
     13      H    -3.47650576    -2.51129107     2.85951130
     14      H     0.36637884    -3.40134511     0.20223366
     15      H     0.85836134    -1.26983183    -0.95390262
     16      H    -0.67188917     1.44502808     2.57978036
     17      H    -1.55503844    -3.55228312     1.74859608
     18      C    -2.29566807     2.20455920     0.53645006
     19      C    -3.04986713     2.80697580    -0.45449369
     20      C    -2.64815040     4.03518975    -1.02832206
     21      C    -1.51414604     4.66396302    -0.60231236
     22      C     1.15623892     4.23232624     1.94931796
     23      C     0.75006957     3.02614688     2.54738726
     24      C    -0.36407775     2.36656820     2.09923931
     25      C    -1.13173534     2.87420257     1.02189873
     26      C    -0.73411258     4.11007410     0.44088206
     27      C     0.42395569     4.76418570     0.92104016
     28      O    -4.18883945     2.27955278    -0.95854029
     29      H    -3.26638561     4.45296132    -1.81384792
     30      H    -1.20658897     5.60365868    -1.04831304
     31      H     2.04217234     4.73967557     2.31436201
     32      H     1.32474525     2.62118424     3.37316904
     33      H    -0.52864479     0.71266386    -0.55623132
     34      H     0.71911397     5.70215300     0.46202081
     35      H    -4.51093848     2.49580229     1.55559507
     36      H    -4.49595294     1.47714292    -0.49707453
     37      H    -9.31616036     0.46920886     1.49853932
     38      C    -7.87755670     1.24907353     2.84435898
     39      C    -8.30238989     0.82064301     1.65623590
     40      C    -7.39111722     0.80167084     0.49950242
     41      O    -6.25585832     1.20688016     0.53911643
     42      H    -6.85705895     1.58567291     2.97935101
     43      H    -7.82248530     0.35523616    -0.42059118
     44      H    -8.51642846     1.27778265     3.71612500
 
Total System Charge             0.00000
Bonding info available!
 

 dE(predicted):    -0.38490E-02, dE(actual):    -0.25975E-02, Trust radius:    0.800000, all in a.u.
 
----------------------------------------------------------------------
Geometry Convergence after Step   9       (Hartree/Angstrom,Angstrom)
----------------------------------------------------------------------
current energy                              -72.36045233 Hartree
energy change                      -0.00259747     0.00044000    F
constrained gradient max            0.02676006     0.00100000    F
constrained gradient rms            0.00429556     0.00066667    F
gradient max                        0.02676006
gradient rms                        0.00429556
cart. step max                      0.20887686     0.01000000    F
cart. step rms                      0.04553384     0.00666667    F
 
 
--------
Geometry
--------
Formula: C23H18O3
Atoms
  Index Symbol   x (angstrom)   y (angstrom)   z (angstrom)
      1      C    -2.66958422     0.90632102     1.13502015
      2      C    -3.74827871     0.79595177     1.99125043
      3      C    -4.04748906    -0.42545457     2.63373785
      4      C    -3.27670019    -1.53064790     2.40893404
      5      C    -0.33551319    -2.54744994     0.37071248
      6      C    -0.04028859    -1.33671710    -0.28173557
      7      C    -0.78921685    -0.21519677    -0.04025811
      8      C    -1.87423233    -0.24595063     0.86893741
      9      C    -2.18103203    -1.47536377     1.51421027
     10      C    -1.38605801    -2.61426075     1.24753613
     11      O    -4.56576649     1.84439567     2.27429107
     12      H    -4.89534420    -0.45370995     3.30816196
     13      H    -3.50084272    -2.46657899     2.90940431
     14      H     0.27004827    -3.42428817     0.17064399
     15      H     0.78626970    -1.29725766    -0.98267659
     16      H    -0.66802391     1.45541953     2.57633325
     17      H    -1.62639268    -3.54578137     1.74971896
     18      C    -2.29566049     2.22023803     0.54397498
     19      C    -3.03698451     2.80358217    -0.46762028
     20      C    -2.63129633     4.02751077    -1.05008892
     21      C    -1.50523117     4.66521183    -0.61631929
     22      C     1.15577623     4.24746974     1.94940487
     23      C     0.75081065     3.04110740     2.54817868
     24      C    -0.36350149     2.38101318     2.10101079
     25      C    -1.13333224     2.89164415     1.02731264
     26      C    -0.73191520     4.12200628     0.43805573
     27      C     0.42543787     4.77708351     0.91824073
     28      O    -4.15409151     2.25442521    -0.99332633
     29      H    -3.23678042     4.43046926    -1.85312651
     30      H    -1.19199207     5.59801265    -1.07274429
     31      H     2.04236727     4.75462419     2.31312552
     32      H     1.32735403     2.63574978     3.37247173
     33      H    -0.55704590     0.71114847    -0.55356282
     34      H     0.72339250     5.71227263     0.45537215
     35      H    -4.45364742     2.56157821     1.63596691
     36      H    -4.50283946     1.49474550    -0.49132893
     37      H    -9.27866488     0.41638648     1.43146714
     38      C    -7.82804656     1.08755775     2.82415223
     39      C    -8.26243628     0.74983000     1.61021068
     40      C    -7.36140334     0.82818578     0.44935354
     41      O    -6.22168754     1.21665061     0.51908018
     42      H    -6.81369988     1.43853784     2.97052369
     43      H    -7.79371759     0.45335790    -0.50081685
     44      H    -8.46550853     1.06890579     3.69716051
 
Total System Charge             0.00000
Bonding info available!
 

 dE(predicted):    -0.41397E-02, dE(actual):    -0.34073E-02, Trust radius:    0.800000, all in a.u.
 
----------------------------------------------------------------------
Geometry Convergence after Step  10       (Hartree/Angstrom,Angstrom)
----------------------------------------------------------------------
current energy                              -72.36385959 Hartree
energy change                      -0.00340727     0.00044000    F
constrained gradient max            0.01478764     0.00100000    F
constrained gradient rms            0.00268142     0.00066667    F
gradient max                        0.01478764
gradient rms                        0.00268142
cart. step max                      0.16754005     0.01000000    F
cart. step rms                      0.06712364     0.00666667    F
 
 
--------
Geometry
--------
Formula: C23H18O3
Atoms
  Index Symbol   x (angstrom)   y (angstrom)   z (angstrom)
      1      C    -2.65395011     0.91311838     1.16739300
      2      C    -3.67745861     0.84000869     2.09261303
      3      C    -3.97570534    -0.37226352     2.75097568
      4      C    -3.26046658    -1.50300897     2.47142978
      5      C    -0.46360441    -2.59710374     0.27558473
      6      C    -0.15967415    -1.38989511    -0.37993010
      7      C    -0.86404819    -0.24910910    -0.09815377
      8      C    -1.90866384    -0.25836603     0.85726261
      9      C    -2.21813186    -1.48024701     1.51478160
     10      C    -1.47220426    -2.64058244     1.20174066
     11      O    -4.43585254     1.92535821     2.43376886
     12      H    -4.78119985    -0.37918828     3.47570201
     13      H    -3.48989109    -2.43512765     2.97670705
     14      H     0.10412221    -3.49033998     0.04001304
     15      H     0.63783341    -1.36919531    -1.11448848
     16      H    -0.68240464     1.50340865     2.62278852
     17      H    -1.71431945    -3.56853574     1.70958077
     18      C    -2.28226662     2.22027176     0.55628013
     19      C    -2.99823050     2.75782793    -0.49711174
     20      C    -2.59783062     3.97745291    -1.09440595
     21      C    -1.50327354     4.65084697    -0.63487021
     22      C     1.09810785     4.32669159     2.00614347
     23      C     0.70691851     3.11731023     2.60807700
     24      C    -0.38614000     2.43159030     2.14693927
     25      C    -1.14459451     2.91904760     1.05488661
     26      C    -0.75075157     4.14578384     0.45347039
     27      C     0.38154318     4.82983807     0.95207001
     28      O    -4.07900519     2.16378612    -1.04369653
     29      H    -3.18687097     4.35175204    -1.92316374
     30      H    -1.19978979     5.58479324    -1.09563113
     31      H     1.96555782     4.85623845     2.38388488
     32      H     1.27688387     2.73064856     3.44582841
     33      H    -0.62788048     0.67668131    -0.61094097
     34      H     0.67334411     5.76415099     0.48354793
     35      H    -4.35652455     2.60647543     1.75152832
     36      H    -4.47161772     1.46275052    -0.48903126
     37      H    -9.22208031     0.44177035     1.34889701
     38      C    -7.78413512     1.09627619     2.76439044
     39      C    -8.20185175     0.75159841     1.54620617
     40      C    -7.25951822     0.74307057     0.41809322
     41      O    -6.11432301     1.11620579     0.51651952
     42      H    -6.74119346     1.33241881     2.94048320
     43      H    -7.70429347     0.48390588    -0.56335011
     44      H    -8.41735411     1.02462061     3.63753720
 
Total System Charge             0.00000
Bonding info available!
 

 dE(predicted):    -0.28737E-02, dE(actual):    -0.16067E-02, Trust radius:    0.800000, all in a.u.
 
----------------------------------------------------------------------
Geometry Convergence after Step  11       (Hartree/Angstrom,Angstrom)
----------------------------------------------------------------------
current energy                              -72.36546632 Hartree
energy change                      -0.00160672     0.00044000    F
constrained gradient max            0.02620300     0.00100000    F
constrained gradient rms            0.00370157     0.00066667    F
gradient max                        0.02620300
gradient rms                        0.00370157
cart. step max                      0.21148209     0.01000000    F
cart. step rms                      0.06137301     0.00666667    F
 
 
--------
Geometry
--------
Formula: C23H18O3
Atoms
  Index Symbol   x (angstrom)   y (angstrom)   z (angstrom)
      1      C    -2.65913195     0.94640723     1.18698125
      2      C    -3.64151497     0.90697986     2.15362139
      3      C    -3.94378305    -0.29876956     2.82223315
      4      C    -3.27579076    -1.45018956     2.50921848
      5      C    -0.59389040    -2.61150978     0.20670655
      6      C    -0.27725197    -1.40828647    -0.45069687
      7      C    -0.94305117    -0.25161013    -0.14169836
      8      C    -1.95794771    -0.24128779     0.84519016
      9      C    -2.27463603    -1.45606857     1.51054299
     10      C    -1.57142563    -2.63424820     1.16628846
     11      O    -4.37551693     2.01416932     2.50735407
     12      H    -4.72041815    -0.28785306     3.57767700
     13      H    -3.51322732    -2.37690995     3.02075398
     14      H    -0.05899144    -3.51826172    -0.05303415
     15      H     0.49940220    -1.40394910    -1.20752861
     16      H    -0.71233018     1.53592545     2.66063760
     17      H    -1.82051740    -3.55858585     1.67729368
     18      C    -2.27802308     2.24497328     0.56866776
     19      C    -2.96460072     2.75917955    -0.51190876
     20      C    -2.54472787     3.96652637    -1.12150314
     21      C    -1.46159489     4.64728935    -0.64580888
     22      C     1.08572938     4.35048062     2.05102326
     23      C     0.68272903     3.14640237     2.65603697
     24      C    -0.40632422     2.46109008     2.18488186
     25      C    -1.14757211     2.94444989     1.07942873
     26      C    -0.73592004     4.15995521     0.46817084
     27      C     0.38969413     4.84549751     0.97939463
     28      O    -4.04292172     2.16686413    -1.06473072
     29      H    -3.11628136     4.33121238    -1.96663755
     30      H    -1.14846943     5.57552226    -1.11172824
     31      H     1.94829270     4.88105985     2.43845005
     32      H     1.24089626     2.76352272     3.50341528
     33      H    -0.69777114     0.67289158    -0.65272099
     34      H     0.69436962     5.77302651     0.50561209
     35      H    -4.32698930     2.66329888     1.79101843
     36      H    -4.51013668     1.51411646    -0.47529801
     37      H    -9.10667463     0.23028826     1.34974886
     38      C    -7.70686923     1.03279787     2.72841259
     39      C    -8.10438999     0.60256721     1.53034083
     40      C    -7.17227092     0.63220758     0.39435468
     41      O    -6.02632052     1.00463495     0.49723765
     42      H    -6.70354481     1.41833965     2.87025183
     43      H    -7.58719309     0.27855896    -0.57000690
     44      H    -8.35588199     1.04002996     3.59270660
 
Total System Charge             0.00000
Bonding info available!
 
 Rebuilding optimization coordinates

 dE(predicted):    -0.17939E-02, dE(actual):    -0.13537E-02, Trust radius:    1.000000, all in a.u.
 
----------------------------------------------------------------------
Geometry Convergence after Step  12       (Hartree/Angstrom,Angstrom)
----------------------------------------------------------------------
current energy                              -72.36682007 Hartree
energy change                      -0.00135375     0.00044000    F
constrained gradient max            0.01802701     0.00100000    F
constrained gradient rms            0.00429174     0.00066667    F
gradient max                        0.01802701
gradient rms                        0.00429174
cart. step max                      0.21270029     0.01000000    F
cart. step rms                      0.08587883     0.00666667    F
 
 
--------
Geometry
--------
Formula: C23H18O3
Atoms
  Index Symbol   x (angstrom)   y (angstrom)   z (angstrom)
      1      C    -2.62295080     0.90961644     1.23377475
      2      C    -3.55475144     0.86970801     2.25952985
      3      C    -3.85528241    -0.33551847     2.92661013
      4      C    -3.23065224    -1.49559592     2.56247320
      5      C    -0.69932302    -2.68481351     0.10848018
      6      C    -0.38929727    -1.48149183    -0.55187157
      7      C    -1.00894093    -0.31348055    -0.19469637
      8      C    -1.96809874    -0.29060603     0.84677419
      9      C    -2.28029407    -1.50742273     1.51431937
     10      C    -1.62492153    -2.69709299     1.11814513
     11      O    -4.21284359     1.98250266     2.68701281
     12      H    -4.58080601    -0.31538916     3.73124442
     13      H    -3.45805780    -2.42343321     3.07663922
     14      H    -0.20071424    -3.60047284    -0.18956400
     15      H     0.34612151    -1.48659691    -1.34882682
     16      H    -0.71367718     1.58935361     2.70567024
     17      H    -1.87007412    -3.62252750     1.62906757
     18      C    -2.26034450     2.20569232     0.57172378
     19      C    -2.93872646     2.68112543    -0.54336799
     20      C    -2.56023622     3.90205646    -1.15125298
     21      C    -1.51989673     4.63228670    -0.65415038
     22      C     0.97627080     4.47109815     2.10113199
     23      C     0.61008050     3.25906128     2.71340488
     24      C    -0.43687546     2.52169628     2.22613808
     25      C    -1.17041517     2.95769052     1.09583305
     26      C    -0.79805694     4.18421772     0.47916172
     27      C     0.28496765     4.92325669     1.00785360
     28      O    -3.94608267     2.00755104    -1.13550951
     29      H    -3.11333432     4.22587736    -2.02487354
     30      H    -1.23064392     5.56572290    -1.12521164
     31      H     1.80629917     5.04271826     2.50113793
     32      H     1.16513195     2.91039721     3.57743450
     33      H    -0.76971186     0.61147443    -0.70772865
     34      H     0.55966072     5.85863472     0.53116103
     35      H    -4.15681465     2.65605125     1.99391760
     36      H    -4.29743639     1.33101062    -0.56968274
     37      H    -9.03484344     0.34504937     1.22193511
     38      C    -7.68902340     1.08106075     2.68862298
     39      C    -8.03517749     0.69008632     1.46142343
     40      C    -7.05278859     0.75666973     0.36961580
     41      O    -5.89732208     1.06088698     0.55193227
     42      H    -6.69965071     1.48241992     2.87856410
     43      H    -7.42147088     0.42956726    -0.62234958
     44      H    -8.39178450     1.12263679     3.50870339
 
Total System Charge             0.00000
Bonding info available!
 

 dE(predicted):    -0.20712E-02, dE(actual):     0.68843E-03, Trust radius:    0.226118, all in a.u.
 
----------------------------------------------------------------------
Geometry Convergence after Step  13       (Hartree/Angstrom,Angstrom)
----------------------------------------------------------------------
current energy                              -72.36613164 Hartree
energy change                       0.00068843     0.00044000    F
constrained gradient max            0.03075880     0.00100000    F
constrained gradient rms            0.00587383     0.00066667    F
gradient max                        0.03075880
gradient rms                        0.00587383
cart. step max                      0.08772906     0.01000000    F
cart. step rms                      0.02483409     0.00666667    F
 
 
--------
Geometry
--------
Formula: C23H18O3
Atoms
  Index Symbol   x (angstrom)   y (angstrom)   z (angstrom)
      1      C    -2.62799820     0.90826707     1.20731485
      2      C    -3.56572220     0.87401696     2.22009101
      3      C    -3.86978055    -0.32954313     2.88998088
      4      C    -3.24324216    -1.49201165     2.53451280
      5      C    -0.69028105    -2.68731000     0.10583446
      6      C    -0.37416463    -1.48479579    -0.55334206
      7      C    -0.99709336    -0.31614921    -0.20380965
      8      C    -1.96830898    -0.29137317     0.82659205
      9      C    -2.28460247    -1.50699822     1.49403047
     10      C    -1.62512848    -2.69726226     1.10709418
     11      O    -4.22637291     1.99760005     2.62589565
     12      H    -4.60340074    -0.30514051     3.68692342
     13      H    -3.47542979    -2.41853694     3.04895824
     14      H    -0.18808833    -3.60328264    -0.18511428
     15      H     0.36852758    -1.49105518    -1.34354158
     16      H    -0.74598121     1.59837725     2.72466189
     17      H    -1.87353201    -3.62110972     1.61936349
     18      C    -2.26053557     2.20505676     0.56422000
     19      C    -2.92136415     2.66940368    -0.55874062
     20      C    -2.53281896     3.88406053    -1.17083324
     21      C    -1.50075704     4.62024609    -0.66326813
     22      C     0.95106588     4.47886912     2.13238315
     23      C     0.57597127     3.26938213     2.74492329
     24      C    -0.46303284     2.52907776     2.24548713
     25      C    -1.18106131     2.96027136     1.10348087
     26      C    -0.79802683     4.18224067     0.48510509
     27      C     0.27690408     4.92459464     1.02585378
     28      O    -3.93410771     1.99766826    -1.15042991
     29      H    -3.07649206     4.20341155    -2.05190299
     30      H    -1.20562997     5.55073707    -1.13651069
     31      H     1.77510753     5.05251416     2.54174105
     32      H     1.11736364     2.92553754     3.61947378
     33      H    -0.75200952     0.60785481    -0.71575018
     34      H     0.55988558     5.85631911     0.54685823
     35      H    -4.16851984     2.67508414     1.93622115
     36      H    -4.32022201     1.31698488    -0.56305282
     37      H    -9.03634187     0.37315653     1.30386624
     38      C    -7.64035315     1.11637111     2.71821210
     39      C    -8.02747895     0.71453360     1.50699646
     40      C    -7.07160823     0.73159247     0.38991885
     41      O    -5.91280880     1.04425560     0.52880984
     42      H    -6.62477638     1.45605300     2.88853741
     43      H    -7.47648732     0.40449941    -0.58789644
     44      H    -8.30405544     1.12926667     3.57120129
 
Total System Charge             0.00000
Bonding info available!
 

 dE(predicted):    -0.21450E-02, dE(actual):    -0.15734E-02, Trust radius:    0.226118, all in a.u.
 
----------------------------------------------------------------------
Geometry Convergence after Step  14       (Hartree/Angstrom,Angstrom)
----------------------------------------------------------------------
current energy                              -72.36770505 Hartree
energy change                      -0.00157341     0.00044000    F
constrained gradient max            0.00597541     0.00100000    F
constrained gradient rms            0.00143134     0.00066667    F
gradient max                        0.00597541
gradient rms                        0.00143134
cart. step max                      0.05913656     0.01000000    F
cart. step rms                      0.02474192     0.00666667    F
 
 
--------
Geometry
--------
Formula: C23H18O3
Atoms
  Index Symbol   x (angstrom)   y (angstrom)   z (angstrom)
      1      C    -2.63139733     0.91135079     1.20886154
      2      C    -3.55772507     0.87705269     2.23312771
      3      C    -3.85529135    -0.32739775     2.90427675
      4      C    -3.23561692    -1.48987098     2.53876493
      5      C    -0.72236064    -2.68820642     0.07092778
      6      C    -0.41104991    -1.48503517    -0.58933884
      7      C    -1.02441655    -0.31509668    -0.22771913
      8      C    -1.98278717    -0.28999607     0.81463084
      9      C    -2.29262425    -1.50578870     1.48440238
     10      C    -1.64256296    -2.69725530     1.08563724
     11      O    -4.22174962     1.99530393     2.64525924
     12      H    -4.58348733    -0.30461172     3.70633302
     13      H    -3.46459710    -2.41704116     3.05338456
     14      H    -0.22736006    -3.60511817    -0.22918532
     15      H     0.32050411    -1.49187663    -1.38985299
     16      H    -0.78811131     1.62672428     2.76154508
     17      H    -1.88583683    -3.62120076     1.60020489
     18      C    -2.26072917     2.20588461     0.56489145
     19      C    -2.90026979     2.65712537    -0.57489280
     20      C    -2.49490529     3.85935443    -1.20020031
     21      C    -1.47045320     4.59999616    -0.68424934
     22      C     0.92259024     4.49799930     2.16337089
     23      C     0.53436338     3.29741112     2.78525307
     24      C    -0.49537075     2.55104742     2.27591638
     25      C    -1.19195887     2.96812817     1.11544016
     26      C    -0.79387572     4.17968114     0.48601704
     27      C     0.27144084     4.92832215     1.03721181
     28      O    -3.91841428     1.99316910    -1.16356308
     29      H    -3.02289827     4.16915801    -2.09419748
     30      H    -1.16342896     5.52213170    -1.16616709
     31      H     1.73947523     5.07627886     2.58046502
     32      H     1.05822708     2.96546905     3.67494730
     33      H    -0.78216730     0.60977310    -0.73948154
     34      H     0.56625378     5.85190831     0.54968312
     35      H    -4.16809495     2.68066667     1.96351648
     36      H    -4.32630965     1.33043115    -0.56657460
     37      H    -9.00739243     0.36620900     1.32873968
     38      C    -7.60148318     1.12778346     2.72233503
     39      C    -7.99332439     0.69720579     1.52284062
     40      C    -7.03919827     0.67486091     0.40435896
     41      O    -5.88327623     1.00570715     0.52644050
     42      H    -6.58920986     1.48397687     2.87734503
     43      H    -7.45793360     0.36122180    -0.57198148
     44      H    -8.26797556     1.17989859     3.57162601
 
Total System Charge             0.00000
Bonding info available!
 

 dE(predicted):    -0.31215E-03, dE(actual):    -0.27502E-03, Trust radius:    0.452237, all in a.u.
 
----------------------------------------------------------------------
Geometry Convergence after Step  15       (Hartree/Angstrom,Angstrom)
----------------------------------------------------------------------
current energy                              -72.36798007 Hartree
energy change                      -0.00027502     0.00044000    T
constrained gradient max            0.00569233     0.00100000    F
constrained gradient rms            0.00153979     0.00066667    F
gradient max                        0.00569233
gradient rms                        0.00153979
cart. step max                      0.17003063     0.01000000    F
cart. step rms                      0.06842299     0.00666667    F
 
 
--------
Geometry
--------
Formula: C23H18O3
Atoms
  Index Symbol   x (angstrom)   y (angstrom)   z (angstrom)
      1      C    -2.64278340     0.93407855     1.21148884
      2      C    -3.53346631     0.91802400     2.26873808
      3      C    -3.83194052    -0.28230907     2.94688555
      4      C    -3.25190072    -1.45622306     2.55555610
      5      C    -0.85968276    -2.70305648    -0.00621243
      6      C    -0.54082664    -1.50387239    -0.67028750
      7      C    -1.11233156    -0.32151566    -0.28203877
      8      C    -2.03784090    -0.28013413     0.78900578
      9      C    -2.35037770    -1.49050371     1.46644762
     10      C    -1.74325416    -2.69509966     1.04048950
     11      O    -4.17637743     2.04172582     2.69540364
     12      H    -4.53467257    -0.24814817     3.77114977
     13      H    -3.48262951    -2.37952067     3.07622878
     14      H    -0.39739069    -3.62990603    -0.32717720
     15      H     0.16406292    -1.52386196    -1.49416141
     16      H    -0.88245808     1.69935606     2.83498815
     17      H    -1.98886799    -3.61514881     1.56093891
     18      C    -2.25464183     2.21932531     0.56087577
     19      C    -2.83835884     2.63627866    -0.62122795
     20      C    -2.39435656     3.81212487    -1.26992472
     21      C    -1.39318405     4.56639945    -0.72867403
     22      C     0.85142330     4.55770807     2.23935481
     23      C     0.43476866     3.37454599     2.87636722
     24      C    -0.56906165     2.61207678     2.34021569
     25      C    -1.21253669     2.99733754     1.13876209
     26      C    -0.78080885     4.18714562     0.48996269
     27      C     0.25690114     4.95292266     1.06989425
     28      O    -3.84898003     1.97250502    -1.22000411
     29      H    -2.87601265     4.09437037    -2.19864164
     30      H    -1.05632380     5.46885796    -1.22762468
     31      H     1.64766743     5.14875252     2.67791889
     32      H     0.91667270     3.06891670     3.79861622
     33      H    -0.86178222     0.60117654    -0.79383237
     34      H     0.57731269     5.86044383     0.56855988
     35      H    -4.12535290     2.73322346     2.02059064
     36      H    -4.29964014     1.35114839    -0.60602471
     37      H    -8.88419037     0.26446297     1.38059543
     38      C    -7.47503855     1.08967743     2.73217872
     39      C    -7.87596579     0.62621214     1.54838044
     40      C    -6.94095459     0.59881752     0.41382940
     41      O    -5.78750489     0.94743138     0.50735522
     42      H    -6.45705927     1.43373509     2.87562832
     43      H    -7.36852919     0.24775337    -0.54558218
     44      H    -8.12451448     1.12550129     3.59535781
 
Total System Charge             0.00000
Bonding info available!
 

 dE(predicted):    -0.38741E-03, dE(actual):    -0.42922E-03, Trust radius:    0.904473, all in a.u.
 
----------------------------------------------------------------------
Geometry Convergence after Step  16       (Hartree/Angstrom,Angstrom)
----------------------------------------------------------------------
current energy                              -72.36840929 Hartree
energy change                      -0.00042922     0.00044000    T
constrained gradient max            0.00785994     0.00100000    F
constrained gradient rms            0.00166019     0.00066667    F
gradient max                        0.00785994
gradient rms                        0.00166019
cart. step max                      0.21277795     0.01000000    F
cart. step rms                      0.07508424     0.00666667    F
 
 
--------
Geometry
--------
Formula: C23H18O3
Atoms
  Index Symbol   x (angstrom)   y (angstrom)   z (angstrom)
      1      C    -2.62025461     0.90831506     1.20604793
      2      C    -3.47208925     0.90203968     2.29290326
      3      C    -3.76791183    -0.29302850     2.98038999
      4      C    -3.23015970    -1.47672264     2.55775526
      5      C    -0.96850046    -2.75880744    -0.10382462
      6      C    -0.64275362    -1.56172321    -0.76859562
      7      C    -1.16983001    -0.36901585    -0.35057679
      8      C    -2.05617354    -0.31424691     0.75263467
      9      C    -2.37279743    -1.52272038     1.43301344
     10      C    -1.81220112    -2.73817165     0.97505724
     11      O    -4.06810001     2.04593497     2.73543122
     12      H    -4.43176203    -0.24733128     3.83579850
     13      H    -3.45884382    -2.39829051     3.08250395
     14      H    -0.54232132    -3.69403348    -0.44952681
     15      H     0.03272023    -1.59184950    -1.61646313
     16      H    -0.93773201     1.74955289     2.89569194
     17      H    -2.06133167    -3.65644049     1.49702982
     18      C    -2.23570268     2.19774459     0.56171861
     19      C    -2.78363230     2.57909668    -0.65054243
     20      C    -2.34519681     3.75479294    -1.30279740
     21      C    -1.38949892     4.54659034    -0.73224280
     22      C     0.72183483     4.65798759     2.33034905
     23      C     0.31913173     3.46978131     2.96721335
     24      C    -0.63524055     2.66631241     2.40161107
     25      C    -1.24108285     3.01359581     1.16931490
     26      C    -0.82012630     4.20678297     0.51885115
     27      C     0.16559939     5.01564251     1.13041103
     28      O    -3.75347884     1.87115930    -1.26876061
     29      H    -2.79183862     4.00634551    -2.25742437
     30      H    -1.05628771     5.44942358    -1.23306378
     31      H     1.47759565     5.28255205     2.79343073
     32      H     0.77297811     3.19303823     3.91253221
     33      H    -0.91335289     0.55169716    -0.86286743
     34      H     0.47659015     5.92643905     0.62907119
     35      H    -4.01601374     2.73503088     2.05857730
     36      H    -4.20162638     1.25994735    -0.65006189
     37      H    -8.79046257     0.32168474     1.42777999
     38      C    -7.37312792     1.22653186     2.71589633
     39      C    -7.77553815     0.67536343     1.57081508
     40      C    -6.84014233     0.53628393     0.44443801
     41      O    -5.67447761     0.85052202     0.50904146
     42      H    -6.35323930     1.57220582     2.83705048
     43      H    -7.27983868     0.12444348    -0.48484018
     44      H    -8.02657199     1.33827924     3.56957925
 
Total System Charge             0.00000
Bonding info available!
 

 dE(predicted):    -0.40704E-03, dE(actual):    -0.42715E-03, Trust radius:    0.904473, all in a.u.
 
----------------------------------------------------------------------
Geometry Convergence after Step  17       (Hartree/Angstrom,Angstrom)
----------------------------------------------------------------------
current energy                              -72.36883644 Hartree
energy change                      -0.00042715     0.00044000    T
constrained gradient max            0.00414480     0.00100000    F
constrained gradient rms            0.00102879     0.00066667    F
gradient max                        0.00414480
gradient rms                        0.00102879
cart. step max                      0.20971108     0.01000000    F
cart. step rms                      0.08784442     0.00666667    F
 
 
--------
Geometry
--------
Formula: C23H18O3
Atoms
  Index Symbol   x (angstrom)   y (angstrom)   z (angstrom)
      1      C    -2.58435252     0.88413211     1.23026900
      2      C    -3.39288190     0.88417101     2.35413846
      3      C    -3.69704303    -0.31243364     3.03432663
      4      C    -3.21619027    -1.50481642     2.56909243
      5      C    -1.12543530    -2.81742602    -0.21248408
      6      C    -0.78718729    -1.62127248    -0.87236606
      7      C    -1.25087811    -0.41796370    -0.41179089
      8      C    -2.08141026    -0.34895024     0.73368147
      9      C    -2.41107245    -1.55824580     1.40734976
     10      C    -1.91749495    -2.78494592     0.90431759
     11      O    -3.93215778     2.03535684     2.84653030
     12      H    -4.31933381    -0.26078212     3.91999691
     13      H    -3.45282272    -2.42817157     3.08725889
     14      H    -0.75203240    -3.76136990    -0.59373292
     15      H    -0.15323476    -1.66079852    -1.75135734
     16      H    -0.99684907     1.83072675     2.97401035
     17      H    -2.17832831    -3.70284375     1.42124729
     18      C    -2.20680151     2.16889020     0.57183526
     19      C    -2.71263454     2.50033720    -0.67358689
     20      C    -2.28875612     3.67393888    -1.33704603
     21      C    -1.38899391     4.51489175    -0.74539256
     22      C     0.57177525     4.78801141     2.40446657
     23      C     0.18769998     3.60047107     3.05397054
     24      C    -0.70768369     2.74526205     2.46831644
     25      C    -1.26980293     3.03537813     1.20068606
     26      C    -0.86546695     4.22813145     0.53801835
     27      C     0.05816437     5.09181149     1.17140110
     28      O    -3.62529720     1.73418392    -1.30976223
     29      H    -2.69948129     3.88466641    -2.31719937
     30      H    -1.06722459     5.41766296    -1.25382499
     31      H     1.27847604     5.45533380     2.88506225
     32      H     0.60868989     3.36605710     4.02555883
     33      H    -0.98603004     0.50058452    -0.92329639
     34      H     0.35489075     6.00207075     0.66050051
     35      H    -3.86134237     2.74540289     2.19286512
     36      H    -4.07344698     1.13989376    -0.68097312
     37      H    -8.65667173     0.39886984     1.40526485
     38      C    -7.24090530     1.30369149     2.69255900
     39      C    -7.63538112     0.73102622     1.55509579
     40      C    -6.69038166     0.53092704     0.44650150
     41      O    -5.51402229     0.80266187     0.51113265
     42      H    -6.21665211     1.62949014     2.82649848
     43      H    -7.13571167     0.10584135    -0.47440098
     44      H    -7.91109284     1.46288120     3.52561200
 
Total System Charge             0.00000
Bonding info available!
 

 dE(predicted):    -0.38270E-03, dE(actual):    -0.28270E-03, Trust radius:    0.904473, all in a.u.
 
----------------------------------------------------------------------
Geometry Convergence after Step  18       (Hartree/Angstrom,Angstrom)
----------------------------------------------------------------------
current energy                              -72.36911914 Hartree
energy change                      -0.00028270     0.00044000    T
constrained gradient max            0.00439666     0.00100000    F
constrained gradient rms            0.00105532     0.00066667    F
gradient max                        0.00439666
gradient rms                        0.00105532
cart. step max                      0.07798198     0.01000000    F
cart. step rms                      0.02663947     0.00666667    F
 
 
--------
Geometry
--------
Formula: C23H18O3
Atoms
  Index Symbol   x (angstrom)   y (angstrom)   z (angstrom)
      1      C    -2.56100442     0.86873469     1.22604411
      2      C    -3.37867589     0.86789274     2.34075033
      3      C    -3.70084141    -0.32216208     3.02115717
      4      C    -3.23127872    -1.51912081     2.55624063
      5      C    -1.14336864    -2.85300539    -0.21599252
      6      C    -0.78665087    -1.66082713    -0.87284442
      7      C    -1.23690497    -0.45173625    -0.41388839
      8      C    -2.07357805    -0.37071501     0.72661040
      9      C    -2.42133001    -1.57779391     1.39774475
     10      C    -1.94046249    -2.81042685     0.89674167
     11      O    -3.89165309     2.03132973     2.82453852
     12      H    -4.33002568    -0.26318024     3.90133499
     13      H    -3.48101669    -2.44120591     3.07053108
     14      H    -0.77928085    -3.80139470    -0.59522723
     15      H    -0.14886225    -1.70753365    -1.74869972
     16      H    -0.96230763     1.82908308     2.97271607
     17      H    -2.21516786    -3.72493669     1.41248421
     18      C    -2.18587556     2.15414378     0.56978954
     19      C    -2.70303839     2.48933983    -0.67282528
     20      C    -2.31165132     3.68172611    -1.32092939
     21      C    -1.42852188     4.53566788    -0.72302987
     22      C     0.53746860     4.82368437     2.42038491
     23      C     0.18018490     3.62375676     3.06190549
     24      C    -0.69787124     2.75352278     2.47215862
     25      C    -1.27017126     3.03853743     1.20746303
     26      C    -0.89325165     4.24583536     0.55429218
     27      C     0.01352561     5.12468694     1.19119752
     28      O    -3.60094717     1.71149654    -1.31959260
     29      H    -2.73345370     3.89625443    -2.29544595
     30      H    -1.13040338     5.45220230    -1.22110620
     31      H     1.23153577     5.50228829     2.90356537
     32      H     0.60883058     3.39089828     4.03049591
     33      H    -0.95436802     0.46173860    -0.92431844
     34      H     0.28878492     6.04471632     0.68579483
     35      H    -3.79327482     2.73805040     2.17009809
     36      H    -4.02797227     1.08168859    -0.71341348
     37      H    -8.63835910     0.46053625     1.42165674
     38      C    -7.19290297     1.34194826     2.69130694
     39      C    -7.60777185     0.76777366     1.56187855
     40      C    -6.68158856     0.53289924     0.44554012
     41      O    -5.49825996     0.77921041     0.48746734
     42      H    -6.16241022     1.65012623     2.81577181
     43      H    -7.14970476     0.09614171    -0.45929879
     44      H    -7.85891224     1.54086318     3.51930188
 
Total System Charge             0.00000
Bonding info available!
 

 dE(predicted):    -0.18038E-03, dE(actual):    -0.14411E-03, Trust radius:    0.904473, all in a.u.
 
----------------------------------------------------------------------
Geometry Convergence after Step  19       (Hartree/Angstrom,Angstrom)
----------------------------------------------------------------------
current energy                              -72.36926325 Hartree
energy change                      -0.00014411     0.00044000    T
constrained gradient max            0.00695438     0.00100000    F
constrained gradient rms            0.00151203     0.00066667    F
gradient max                        0.00695438
gradient rms                        0.00151203
cart. step max                      0.08686292     0.01000000    F
cart. step rms                      0.02535923     0.00666667    F
 
 
--------
Geometry
--------
Formula: C23H18O3
Atoms
  Index Symbol   x (angstrom)   y (angstrom)   z (angstrom)
      1      C    -2.55065222     0.86117191     1.23700840
      2      C    -3.35131091     0.86661227     2.36394864
      3      C    -3.67640323    -0.32554361     3.03928133
      4      C    -3.22079355    -1.52511377     2.56557855
      5      C    -1.16322684    -2.86501073    -0.22566745
      6      C    -0.80765051    -1.67324184    -0.88378823
      7      C    -1.24869299    -0.46291669    -0.41888178
      8      C    -2.07589048    -0.37963684     0.72822146
      9      C    -2.42093872    -1.58588751     1.40096372
     10      C    -1.94980858    -2.82011415     0.89451116
     11      O    -3.86467643     2.03119394     2.85611844
     12      H    -4.29790922    -0.26625822     3.92471717
     13      H    -3.47170695    -2.44701808     3.07957642
     14      H    -0.80548274    -3.81432772    -0.60859883
     15      H    -0.17740678    -1.72061690    -1.76504770
     16      H    -0.92424908     1.81641918     2.96446445
     17      H    -2.22281832    -3.73372587     1.41271555
     18      C    -2.18639081     2.14950590     0.58133141
     19      C    -2.71873415     2.49060898    -0.65313628
     20      C    -2.34844150     3.69251214    -1.29490716
     21      C    -1.47028335     4.55277531    -0.69890444
     22      C     0.53817323     4.82989053     2.41816033
     23      C     0.20071711     3.62094400     3.05339145
     24      C    -0.67752572     2.74789664     2.46812527
     25      C    -1.27209955     3.03897950     1.21504933
     26      C    -0.91452046     4.25559159     0.56779247
     27      C    -0.00633700     5.13687065     1.19938311
     28      O    -3.59906027     1.70117618    -1.30557146
     29      H    -2.78245505     3.90887525    -2.26362872
     30      H    -1.18925276     5.47764114    -1.19144449
     31      H     1.23429462     5.50962163     2.89673861
     32      H     0.64538059     3.38255890     4.01336259
     33      H    -0.96496824     0.44921301    -0.93082737
     34      H     0.25445346     6.06293786     0.69735003
     35      H    -3.75535065     2.73889285     2.20373930
     36      H    -4.01039177     1.04836729    -0.70709295
     37      H    -8.62433938     0.48505511     1.36456755
     38      C    -7.20466687     1.40210765     2.63775729
     39      C    -7.59406375     0.78567071     1.52175850
     40      C    -6.64438628     0.49528104     0.43985386
     41      O    -5.45907022     0.72790381     0.49853919
     42      H    -6.17727603     1.71421323     2.77564184
     43      H    -7.09772764     0.02393318    -0.45569106
     44      H    -7.88884949     1.62772610     3.44389100
 
Total System Charge             0.00000
Bonding info available!
 

 dE(predicted):    -0.13350E-03, dE(actual):    -0.13696E-03, Trust radius:    0.904473, all in a.u.
 
----------------------------------------------------------------------
Geometry Convergence after Step  20       (Hartree/Angstrom,Angstrom)
----------------------------------------------------------------------
current energy                              -72.36940020 Hartree
energy change                      -0.00013696     0.00044000    T
constrained gradient max            0.00378185     0.00100000    F
constrained gradient rms            0.00086745     0.00066667    F
gradient max                        0.00378185
gradient rms                        0.00086745
cart. step max                      0.04795633     0.01000000    F
cart. step rms                      0.01301103     0.00666667    F
 
 
--------
Geometry
--------
Formula: C23H18O3
Atoms
  Index Symbol   x (angstrom)   y (angstrom)   z (angstrom)
      1      C    -2.55426564     0.86753095     1.24488229
      2      C    -3.34786242     0.87233572     2.37782297
      3      C    -3.67936964    -0.32093134     3.04757777
      4      C    -3.23227226    -1.52126038     2.56750499
      5      C    -1.18425713    -2.85779561    -0.23333529
      6      C    -0.82765854    -1.66457826    -0.88847971
      7      C    -1.26322713    -0.45463040    -0.41732991
      8      C    -2.08459790    -0.37362008     0.73355001
      9      C    -2.43273908    -1.58083633     1.40254640
     10      C    -1.96750927    -2.81467204     0.88951175
     11      O    -3.85470362     2.03253685     2.88490875
     12      H    -4.29546583    -0.26173970     3.93680207
     13      H    -3.48837922    -2.44401407     3.07726475
     14      H    -0.83112764    -3.80679505    -0.62123405
     15      H    -0.20038025    -1.70984131    -1.77195537
[...]
     14      H    0.0000377964   -0.0000650700   -0.0000253524
     15      H    0.0000593196   -0.0000462725   -0.0000665876
     16      H    0.0001109660    0.0000283417    0.0000849337
     17      H    0.0000257187   -0.0000993785    0.0000160064
     18      C    0.0000634439    0.0001579199   -0.0000032297
     19      C    0.0000930878    0.0001964005   -0.0000507890
     20      C    0.0000124429    0.0001384479   -0.0000782378
     21      C    0.0000110894    0.0000992668   -0.0000467848
     22      C    0.0000877996    0.0000446273    0.0000425242
     23      C    0.0001500820    0.0001187119    0.0000629046
     24      C    0.0001740194    0.0001877564    0.0000376696
     25      C    0.0000871592    0.0002290194   -0.0000470608
     26      C    0.0000485693    0.0000612416    0.0000147098
     27      C    0.0000728038    0.0000511125    0.0000268558
     28      O   -0.0000682079    0.0001250262   -0.0001246529
     29      H   -0.0000325060    0.0000745761   -0.0000677008
     30      H   -0.0000041709    0.0000782886   -0.0000470266
     31      H    0.0000655368    0.0000268822    0.0000218016
     32      H    0.0000781031   -0.0000008112    0.0000584702
     33      H    0.0000765823   -0.0000786069   -0.0000990046
     34      H    0.0000534989    0.0000647088   -0.0000077965
     35      H   -0.0000621346    0.0000741831    0.0000901513
     36      H   -0.0000782781    0.0000604377   -0.0000995483
     37      H   -0.0001090009   -0.0000269633   -0.0000031203
     38      C   -0.0002783611    0.0000207945   -0.0000075489
     39      C   -0.0002832090   -0.0000582236   -0.0000223798
     40      C   -0.0002945395   -0.0001127838   -0.0000751702
     41      O   -0.0002044962   -0.0000595492   -0.0001432204
     42      H   -0.0001418600    0.0000362539   -0.0000171910
     43      H   -0.0001213625   -0.0000785372   -0.0000564317
     44      H   -0.0001168868    0.0000324943    0.0000159928
 
----------------
Mulliken Charges
----------------
  Index   Atom          Charge      Population
      1      C   -0.0564421454        4.056442
      2      C    0.2532003410        3.746800
      3      C   -0.0669932214        4.066993
      4      C   -0.0391226653        4.039123
      5      C   -0.0316076409        4.031608
      6      C   -0.0251218128        4.025122
      7      C   -0.0340440786        4.034044
      8      C    0.0159460475        3.984054
      9      C   -0.0047054781        4.004705
     10      C   -0.0339190230        4.033919
     11      O   -0.5255675950        6.525568
     12      H    0.0434336654        0.956566
     13      H    0.0305296825        0.969470
     14      H    0.0289965904        0.971003
     15      H    0.0301899286        0.969810
     16      H    0.0314807395        0.968519
     17      H    0.0282908761        0.971709
     18      C   -0.0781218337        4.078122
     19      C    0.2551176771        3.744882
     20      C   -0.0638236043        4.063824
     21      C   -0.0364512751        4.036451
     22      C   -0.0340310814        4.034031
     23      C   -0.0270482704        4.027048
     24      C   -0.0402327033        4.040233
     25      C    0.0044222111        3.995578
     26      C   -0.0099426817        4.009943
     27      C   -0.0330299612        4.033030
     28      O   -0.5363657648        6.536366
     29      H    0.0498275351        0.950172
     30      H    0.0342084278        0.965792
     31      H    0.0290863724        0.970914
     32      H    0.0293170910        0.970683
     33      H    0.0340805242        0.965919
     34      H    0.0302038249        0.969796
     35      H    0.3562858967        0.643714
     36      H    0.3737846620        0.626215
     37      H    0.0412148956        0.958785
     38      C    0.0151198585        3.984880
     39      C   -0.0727553901        4.072755
     40      C    0.3897748786        3.610225
     41      O   -0.4920487543        6.492049
     42      H    0.0685729522        0.931427
     43      H    0.0188676290        0.981132
     44      H    0.0494226731        0.950577
         Total    0.0000000000      128.000000
 
----------------------
Mulliken Shell Charges
----------------------
  Index   Atom      L          Charge      Population
      1      C      0    0.9196390754        1.080361
      2      C      1   -0.9760812208        2.976081
      3      C      0    0.9821528622        1.017847
      4      C      1   -0.7289525212        2.728953
      5      C      0    0.9432493399        1.056751
      6      C      1   -1.0102425613        3.010243
      7      C      0    0.9376654934        1.062335
      8      C      1   -0.9767881587        2.976788
      9      C      0    0.9438490132        1.056151
     10      C      1   -0.9754566541        2.975457
     11      C      0    0.9420807777        1.057919
     12      C      1   -0.9672025905        2.967203
     13      C      0    0.9404927971        1.059507
     14      C      1   -0.9745368757        2.974537
     15      C      0    0.9227839432        1.077216
     16      C      1   -0.9068378957        2.906838
     17      C      0    0.9265701734        1.073430
     18      C      1   -0.9312756515        2.931276
     19      C      0    0.9395794589        1.060421
     20      C      1   -0.9734984819        2.973498
     21      O      0    0.3088368001        1.691163
     22      O      1   -0.8344043951        4.834404
     23      H      0    0.0508819589        0.949118
     24      H      0   -0.0074482935        0.007448
     25      H      0    0.0376922201        0.962308
     26      H      0   -0.0071625376        0.007163
     27      H      0    0.0371369400        0.962863
     28      H      0   -0.0081403497        0.008140
     29      H      0    0.0384834731        0.961517
     30      H      0   -0.0082935445        0.008294
     31      H      0    0.0411567320        0.958843
     32      H      0   -0.0096759925        0.009676
     33      H      0    0.0351890178        0.964811
     34      H      0   -0.0068981417        0.006898
     35      C      0    0.9176270377        1.082373
     36      C      1   -0.9957488714        2.995749
     37      C      0    0.9804136695        1.019586
     38      C      1   -0.7252959924        2.725296
     39      C      0    0.9413670273        1.058633
     40      C      1   -1.0051906316        3.005191
     41      C      0    0.9378501770        1.062150
     42      C      1   -0.9743014521        2.974301
     43      C      0    0.9440821592        1.055918
     44      C      1   -0.9781132406        2.978113
     45      C      0    0.9423392954        1.057661
     46      C      1   -0.9693875658        2.969388
     47      C      0    0.9406366602        1.059363
     48      C      1   -0.9808693635        2.980869
     49      C      0    0.9210354114        1.078965
     50      C      1   -0.9166132003        2.916613
     51      C      0    0.9256778762        1.074322
     52      C      1   -0.9356205579        2.935621
     53      C      0    0.9391388796        1.060861
     54      C      1   -0.9721688408        2.972169
     55      O      0    0.3068748214        1.693125
     56      O      1   -0.8432405862        4.843241
     57      H      0    0.0567177309        0.943282
     58      H      0   -0.0068901958        0.006890
     59      H      0    0.0411329976        0.958867
     60      H      0   -0.0069245698        0.006925
     61      H      0    0.0371907035        0.962809
     62      H      0   -0.0081043312        0.008104
     63      H      0    0.0376503249        0.962350
     64      H      0   -0.0083332339        0.008333
     65      H      0    0.0431223541        0.956878
     66      H      0   -0.0090418299        0.009042
     67      H      0    0.0371040907        0.962896
     68      H      0   -0.0069002658        0.006900
     69      H      0    0.3894059590        0.610594
     70      H      0   -0.0331200623        0.033120
     71      H      0    0.4132056777        0.586794
     72      H      0   -0.0394210157        0.039421
     73      H      0    0.0488519292        0.951148
     74      H      0   -0.0076370336        0.007637
     75      C      0    0.9282981091        1.071702
     76      C      1   -0.9131782505        2.913178
     77      C      0    0.9296882135        1.070312
     78      C      1   -1.0024436036        3.002444
     79      C      0    0.9593807313        1.040619
     80      C      1   -0.5696058526        2.569606
     81      O      0    0.2727472294        1.727253
     82      O      1   -0.7647959837        4.764796
     83      H      0    0.0838135753        0.916186
     84      H      0   -0.0152406231        0.015241
     85      H      0    0.0351832486        0.964817
     86      H      0   -0.0163156196        0.016316
     87      H      0    0.0581638634        0.941836
     88      H      0   -0.0087411903        0.008741
                Total    0.0000000000      128.000000
 
 
--------
Orbitals
--------
Index of HOMO                   64
Fermi Energy (hartree)           -0.36563053
Orbitals
   Index  Energy (hartree)       Energy (eV)        Occupation  Degeneracy
       1       -0.80714413      -21.96350941        2.00000000           1
       2       -0.79984022      -21.76475973        2.00000000           1
       3       -0.78772832      -21.43517813        2.00000000           1
       4       -0.69015649      -18.78011361        2.00000000           1
       5       -0.68392309      -18.61049416        2.00000000           1
       6       -0.67915054      -18.48062654        2.00000000           1
       7       -0.67149435      -18.27229109        2.00000000           1
       8       -0.66912350      -18.20777698        2.00000000           1
       9       -0.66602367      -18.12342625        2.00000000           1
      10       -0.66409004      -18.07080934        2.00000000           1
      11       -0.65894550      -17.93081945        2.00000000           1
      12       -0.65486425      -17.81976287        2.00000000           1
      13       -0.64771785      -17.62529937        2.00000000           1
      14       -0.64492143      -17.54920512        2.00000000           1
      15       -0.64070745      -17.43453677        2.00000000           1
      16       -0.63664570      -17.32401093        2.00000000           1
      17       -0.63394538      -17.25053162        2.00000000           1
      18       -0.62694570      -17.06006051        2.00000000           1
      19       -0.62226518      -16.93269704        2.00000000           1
      20       -0.61940358      -16.85482894        2.00000000           1
      21       -0.61817651      -16.82143881        2.00000000           1
      22       -0.61543589      -16.74686276        2.00000000           1
      23       -0.60564972      -16.48056739        2.00000000           1
      24       -0.60131747      -16.36268101        2.00000000           1
      25       -0.59748754      -16.25846330        2.00000000           1
      26       -0.59339300      -16.14704512        2.00000000           1
      27       -0.58655451      -15.96096021        2.00000000           1
      28       -0.58286305      -15.86051053        2.00000000           1
      29       -0.57688498      -15.69783914        2.00000000           1
      30       -0.57402684      -15.62006512        2.00000000           1
      31       -0.57096209      -15.53666906        2.00000000           1
      32       -0.56590792      -15.39913789        2.00000000           1
      33       -0.55981532      -15.23335006        2.00000000           1
      34       -0.55681867      -15.15180706        2.00000000           1
      35       -0.55382191      -15.07026094        2.00000000           1
      36       -0.54722687      -14.89080090        2.00000000           1
      37       -0.53796501      -14.63877271        2.00000000           1
      38       -0.53581635      -14.58030474        2.00000000           1
      39       -0.53361233      -14.52033029        2.00000000           1
      40       -0.52634717      -14.32263530        2.00000000           1
      41       -0.52194024      -14.20271659        2.00000000           1
      42       -0.52140934      -14.18826993        2.00000000           1
      43       -0.51924305      -14.12932217        2.00000000           1
      44       -0.51733621      -14.07743444        2.00000000           1
      45       -0.51349362      -13.97287224        2.00000000           1
      46       -0.51192837      -13.93027973        2.00000000           1
      47       -0.51032728      -13.88671182        2.00000000           1
      48       -0.50665334      -13.78673877        2.00000000           1
      49       -0.49340906      -13.42634357        2.00000000           1
      50       -0.48476636      -13.19116371        2.00000000           1
      51       -0.48243579      -13.12774575        2.00000000           1
      52       -0.47532166      -12.93416041        2.00000000           1
      53       -0.47268593      -12.86243862        2.00000000           1
      54       -0.46650798      -12.69432790        2.00000000           1
      55       -0.46600403      -12.68061496        2.00000000           1
      56       -0.46442962      -12.63777292        2.00000000           1
      57       -0.46106678      -12.54626539        2.00000000           1
      58       -0.45223771      -12.30601420        2.00000000           1
      59       -0.45012377      -12.24849094        2.00000000           1
      60       -0.44602445      -12.13694289        2.00000000           1
      61       -0.42521864      -11.57078780        2.00000000           1
      62       -0.42285917      -11.50658359        2.00000000           1
      63       -0.40638986      -11.05843067        2.00000000           1
      64       -0.39843439      -10.84195148        2.00000000           1
      65       -0.33898982       -9.22438230        0.00000000           1
      66       -0.29510768       -8.03028868        0.00000000           1
      67       -0.28810701       -7.83979054        0.00000000           1
      68       -0.25881137       -7.04261581        0.00000000           1
      69       -0.25758846       -7.00933873        0.00000000           1
      70       -0.22957984       -6.24718530        0.00000000           1
      71       -0.22501899       -6.12307815        0.00000000           1
      72       -0.22148403       -6.02688709        0.00000000           1
      73       -0.17976891       -4.89176091        0.00000000           1
      74       -0.17537539       -4.77220724        0.00000000           1
      75       -0.13533463       -3.68264264        0.00000000           1
      76       -0.12639886       -3.43948803        0.00000000           1
      77       -0.11183811       -3.04326975        0.00000000           1
      78       -0.10607160       -2.88635506        0.00000000           1
      79       -0.10442529       -2.84155676        0.00000000           1
      80       -0.10202576       -2.77626229        0.00000000           1
      81       -0.10028434       -2.72887580        0.00000000           1
      82       -0.09624999       -2.61909558        0.00000000           1
      83       -0.09613557       -2.61598193        0.00000000           1
      84       -0.09529243       -2.59303905        0.00000000           1
      85       -0.08998519       -2.44862165        0.00000000           1
      86       -0.08879859       -2.41633262        0.00000000           1
      87       -0.08390947       -2.28329298        0.00000000           1
      88       -0.08156219       -2.21942017        0.00000000           1
      89       -0.07536092       -2.05067498        0.00000000           1
      90       -0.07032685       -1.91369100        0.00000000           1
      91       -0.06662478       -1.81295252        0.00000000           1
      92       -0.06018491       -1.63771473        0.00000000           1
      93       -0.05802456       -1.57892853        0.00000000           1
      94       -0.04134016       -1.12492304        0.00000000           1
      95        0.07369174        2.00525426        0.00000000           1
      96        0.12187169        3.31629740        0.00000000           1
      97        0.12375932        3.36766250        0.00000000           1
      98        0.13533129        3.68255188        0.00000000           1
      99        0.16947351        4.61160886        0.00000000           1
     100        0.17162336        4.67010922        0.00000000           1
     101        0.18993178        5.16830682        0.00000000           1
     102        0.19242701        5.23620535        0.00000000           1
     103        0.19796668        5.38694750        0.00000000           1
     104        0.20602440        5.60620906        0.00000000           1
     105        0.21130827        5.74999055        0.00000000           1
     106        0.21277414        5.78987882        0.00000000           1
     107        0.21528477        5.85819668        0.00000000           1
     108        0.23121371        6.29164527        0.00000000           1
     109        0.23568302        6.41326136        0.00000000           1
     110        0.24597226        6.69324588        0.00000000           1
     111        0.24670695        6.71323766        0.00000000           1
     112        0.25797987        7.01998931        0.00000000           1
     113        0.28181740        7.66864152        0.00000000           1
     114        0.29341124        7.98412595        0.00000000           1
     115        0.30252696        8.23217755        0.00000000           1
     116        0.30700140        8.35393310        0.00000000           1
     117        0.32918421        8.95755806        0.00000000           1
     118        0.34825163        9.47640903        0.00000000           1
     119        0.36684762        9.98243178        0.00000000           1
     120        0.37341092       10.16102807        0.00000000           1
     121        0.38044539       10.35244591        0.00000000           1
     122        0.39924014       10.86387700        0.00000000           1
     123        0.40234986       10.94849671        0.00000000           1
     124        0.42434762       11.54708635        0.00000000           1
     125        0.43248184       11.76842955        0.00000000           1
     126        0.45603490       12.40934096        0.00000000           1
     127        0.45951969       12.50416689        0.00000000           1
     128        0.46454673       12.64095974        0.00000000           1
     129        0.48191564       13.11359190        0.00000000           1
     130        0.48915291       13.31052793        0.00000000           1
     131        0.49448689       13.45567294        0.00000000           1
     132        0.51524239       14.02045880        0.00000000           1
     133        0.51799409       14.09533624        0.00000000           1
     134        0.52034151       14.15921304        0.00000000           1
     135        0.53479789       14.55259099        0.00000000           1
     136        0.63040274       17.15413142        0.00000000           1
     137        0.64759498       17.62195592        0.00000000           1
     138        0.66917440       18.20916178        0.00000000           1
     139        0.67147171       18.27167497        0.00000000           1
     140        0.69872953       19.01339795        0.00000000           1
 

AMS application finished. Exiting.
NORMAL TERMINATION
     Total cpu time:      60.22
  Total system time:      17.89
 Total elapsed time:      96.55
NORMAL TERMINATION
