

 Parallel Execution: Process Information
 ==============================================================================
 Rank   Node Name                              NodeID   MyNodeRank  NodeMaster
    0   node115                                   0          0          0
    1   node115                                   0          1         -1
    2   node115                                   0          2         -1
    3   node115                                   0          3         -1
 ==============================================================================


May use up to 122928MB of RAM as shared memory on node 0

 *******************************************************************************
 *                                                                             *
 *  --------------------------------                                           *
 *   Amsterdam Modeling Suite (AMS)              2021.102                      *
 *  --------------------------------                                           *
 *                                               r95042 2021-06-07             *
 *                                                                             *
 *                                                                             *
 *                              =================                              *
 *                              |               |                              *
 *                              |     A M S     |                              *
 *                              |               |                              *
 *                              =================                              *
 *                                                                             *
 *                                                                             *
 *   Online information and documentation:  https://www.scm.com/support/       *
 *   E-mail:  support@scm.com   info@scm.com                                   *
 *                                                                             *
 *   Scientific publications using AMS results must be properly referenced     *
 *   See the User Manuals (or the web site) for recommended citations          *
 *   The terms and conditions of the End User License Agreement apply to       *
 *   the use of AMS, https://www.scm.com/license-terms/                        *
 *                                                                             *
 **********************  x86_64_linux_intel / intelmpi  ************************
 
 Licensed to: VU/FEW (+ SARA) / ALGEMEEN / Amsterdam / THE NETHERLANDS
 SCM User ID: u7668
  
 AMS 2021.102  RunTime: Jan22-2022 23:26:22  ShM Nodes: 1  Procs: 4

 AMS jobname: 26.achiral_catalyst.H_H_BF3.Rsub_cat_complex
 AMS jobid  : 1797458954

 Start   directory: /scistor/tc/yhk800/MasterProject/calculations/achiral_catalyst_H_H_BF3/26.achiral_catalyst.H_H_BF3.Rsub_cat_complex/
 Results directory: /scistor/tc/yhk800/MasterProject/calculations/achiral_catalyst_H_H_BF3/26.achiral_catalyst.H_H_BF3.Rsub_cat_complex/
 Scratch directory: /scratch/3979/amstmp_26.achiral_catalyst.H_H_BF3.Rsub_cat_complex_kid0.1797458954/


 Communication costs MPI_COMM_WORLD:      0.860 usec per message,   0.0067 usec per 8-byte item
 Communication costs for intra-node:     -0.038 usec per message,   0.0105 usec per 8-byte item

 RNG seed: -2108602060 -1027205406 1353793149 591275700 -1413422542 1244437496 -1858464703 216445595



                      ************************************************************************
                      *  ADF 2021.102  RunTime: Jan22-2022 23:26:23  ShM Nodes: 1  Procs: 4  *
                      ************************************************************************
  
       ***************************
       *  GEOMETRY OPTIMIZATION  *
       ***************************

Optimization Method                    Quasi Newton
Optimization Coordinates               Delocalized Coordinates
Optimize lattice                       F
 
 ------------------------------------------------------
 Convergence criteria (Hartree,Angstrom)
 ------------------------------------------------------
 Maximum gradient               0.001000000000
 Maximum rms gradient           0.000666666667
 Maximum step allowed           0.010000000000
 Maximum rms step allowed       0.006666666667
 Maximum energy change allowe   0.000120000000
 Maximum stress energy allowe   0.000500000000
 
Initial model Hessian                  Automatic Hessian
 
------------------------------------
Quasi-Newton Optimizer Parameters
------------------------------------
Hessian Update Method                  BFGS
Maximum number of steps                  250
First GDIIS cycle                          0
Maximum GDIIS vectors                      0
Trust radius (bohr)                        0.200000
Trust radius varies                        T
Constraints converged at all steps         T
Use projector                              T
 
 Rigid motions settings for: old optimizer
 Atomic rotations (x,y,z):     T T T
 Atomic translations (x,y,z):  T T T
 Tolerance:                   1.000000000000000E-006
 
--------
Geometry
--------
Formula: C3H4BF3O
Atoms
  Index Symbol   x (angstrom)   y (angstrom)   z (angstrom)
      1      H     0.09039378    -1.80988465    -0.51555853
      2      C    -0.90781845    -0.00771283    -0.04943451
      3      C     0.18266548    -0.75219647    -0.26512258
      4      C     1.55928918    -0.22013974    -0.18291419
      5      O     1.86635738     0.93365884     0.07180470
      6      H    -0.82431619     1.04491294     0.20242594
      7      H    -1.88982657    -0.42714089    -0.11755322
      8      H     2.32514145    -0.94333367    -0.37095895
      9      B     2.11649976     4.00970191     1.24030281
     10      F     1.34239853     3.68939029     2.24922858
     11      F     1.59086913     4.47346810     0.13197216
     12      F     3.41623162     3.86624734     1.33970769
 
Total System Charge             0.00000
 
 
----------------
ADF Engine Input
----------------
 
 NumericalQuality VeryGood
 SCF
 Converge 1.0e-6
 Iterations 99
 End
 SYMMETRY NOSYM
 XC
 GGA OLYP
 End
 basis
 core None
 type TZ2P
 End
 

 Title: *** (NO TITLE) ***

 Using automatic Hessian for delocalized coordinates.
 *** GOStep1 ***

 Energy gradients wrt nuclear displacements
 ==========================================

     Atom      Cartesian (a.u./angstrom)
                 X         Y         Z
 ----------------------------------------
     1 H    -0.000681 -0.000810 -0.000201
     2 C    -0.013523 -0.008416 -0.001622
     3 C     0.003068  0.002248  0.000500
     4 C     0.026752 -0.034761 -0.008486
     5 O     0.003260 -0.000651 -0.000717
     6 H    -0.000914 -0.001937 -0.000346
     7 H     0.020352  0.008065  0.001216
     8 H    -0.038260  0.035559  0.009317
     9 B    -0.002344  0.010486  0.004937
    10 F     0.016183  0.003465 -0.021936
    11 F     0.010854 -0.012500  0.020747
    12 F    -0.024746 -0.000748 -0.003409
 ----------------------------------------
 Mulliken charges used for AMS results%charges...
 
----------------------------------------------------------------------
Geometry Convergence after Step   1       (Hartree/Angstrom,Angstrom)
----------------------------------------------------------------------
current energy                               -2.51657148 Hartree
energy change                      -2.51657148     0.00012000    F
constrained gradient max            0.03826483     0.00100000    F
constrained gradient rms            0.01472367     0.00066667    F
gradient max                        0.03826483
gradient rms                        0.01472367
cart. step max                      0.02862609     0.01000000    F
cart. step rms                      0.01053302     0.00666667    F
 
 
--------
Geometry
--------
Formula: C3H4BF3O
Atoms
  Index Symbol   x (angstrom)   y (angstrom)   z (angstrom)
      1      H     0.08499908    -1.80462540    -0.51032638
      2      C    -0.90516478     0.00515148    -0.04506296
      3      C     0.18316147    -0.74715175    -0.26341550
      4      C     1.56785074    -0.22419637    -0.18687091
      5      O     1.87073908     0.93007381     0.06899955
      6      H    -0.81174917     1.05950646     0.20088334
      7      H    -1.90186821    -0.41143090    -0.10731960
      8      H     2.35376754    -0.96776071    -0.38086233
      9      B     2.10653544     3.99437410     1.23547336
     10      F     1.32425144     3.68047392     2.25652860
     11      F     1.57663192     4.47432731     0.12164816
     12      F     3.41873057     3.86822921     1.34422456
 
Total System Charge             0.00000
 
 *** GOStep2 ***

 Energy gradients wrt nuclear displacements
 ==========================================

     Atom      Cartesian (a.u./angstrom)
                 X         Y         Z
 ----------------------------------------
     1 H    -0.000109 -0.000179 -0.000134
     2 C    -0.006333 -0.001498  0.000140
     3 C     0.003432  0.001852  0.000249
     4 C     0.009207 -0.016836 -0.004232
     5 O     0.000373  0.002527  0.000260
     6 H    -0.000106 -0.000526 -0.000284
     7 H     0.005184  0.002199  0.000344
     8 H    -0.011567  0.011543  0.003208
     9 B    -0.001259  0.003478  0.001732
    10 F     0.002014  0.000083 -0.002565
    11 F     0.001388 -0.001807  0.001983
    12 F    -0.002222 -0.000837 -0.000702
 ----------------------------------------
 Mulliken charges used for AMS results%charges...

 dE(predicted):    -0.15144E-02, dE(actual):    -0.18478E-02, Trust radius:    0.200000, all in a.u.
 
----------------------------------------------------------------------
Geometry Convergence after Step   2       (Hartree/Angstrom,Angstrom)
----------------------------------------------------------------------
current energy                               -2.51841927 Hartree
energy change                      -0.00184780     0.00012000    F
constrained gradient max            0.01683723     0.00100000    F
constrained gradient rms            0.00472144     0.00066667    F
gradient max                        0.01683723
gradient rms                        0.00472144
cart. step max                      0.00783849     0.01000000    T
cart. step rms                      0.00294959     0.00666667    T
 
 
--------
Geometry
--------
Formula: C3H4BF3O
Atoms
  Index Symbol   x (angstrom)   y (angstrom)   z (angstrom)
      1      H     0.08416384    -1.80422331    -0.51137159
      2      C    -0.90531370     0.00598360    -0.04545135
      3      C     0.18173755    -0.74721325    -0.26298936
      4      C     1.56747886    -0.22194235    -0.18414160
      5      O     1.87058705     0.93022943     0.07086517
      6      H    -0.81027273     1.05870633     0.20872183
      7      H    -1.90654710    -0.41077463    -0.11009522
      8      H     2.36149382    -0.97353728    -0.38668725
      9      B     2.10629995     3.99005707     1.23279564
     10      F     1.32077880     3.68306593     2.25639290
     11      F     1.57735087     4.47633793     0.11887536
     12      F     3.42012788     3.87028171     1.34698537
 
Total System Charge             0.00000
 
 *** GOStep3 ***

 Energy gradients wrt nuclear displacements
 ==========================================

     Atom      Cartesian (a.u./angstrom)
                 X         Y         Z
 ----------------------------------------
     1 H    -0.000252 -0.000206  0.000148
     2 C    -0.000607 -0.000113 -0.000782
     3 C     0.001160  0.001386 -0.000029
     4 C     0.001620 -0.003663  0.000385
     5 O    -0.000287 -0.000797 -0.001039
     6 H     0.000190 -0.000129  0.000404
     7 H     0.000139 -0.000058  0.000124
     8 H    -0.001894  0.002575  0.000312
     9 B    -0.000427 -0.000100  0.000122
    10 F    -0.000309  0.000405  0.000767
    11 F    -0.000176  0.000663 -0.000483
    12 F     0.000844  0.000036  0.000071
 ----------------------------------------
 Mulliken charges used for AMS results%charges...

 dE(predicted):    -0.14939E-03, dE(actual):    -0.16739E-03, Trust radius:    0.200000, all in a.u.
 
----------------------------------------------------------------------
Geometry Convergence after Step   3       (Hartree/Angstrom,Angstrom)
----------------------------------------------------------------------
current energy                               -2.51858666 Hartree
energy change                      -0.00016739     0.00012000    F
constrained gradient max            0.00366413     0.00100000    F
constrained gradient rms            0.00099193     0.00066667    F
gradient max                        0.00366413
gradient rms                        0.00099193
cart. step max                      0.01628280     0.01000000    F
cart. step rms                      0.00451772     0.00666667    T
 
 
--------
Geometry
--------
Formula: C3H4BF3O
Atoms
  Index Symbol   x (angstrom)   y (angstrom)   z (angstrom)
      1      H     0.08508908    -1.80578152    -0.50393187
      2      C    -0.90495544     0.00515830    -0.03919932
      3      C     0.18150765    -0.74778074    -0.25997625
      4      C     1.56707418    -0.21809101    -0.19366406
      5      O     1.87101472     0.93274432     0.06512035
      6      H    -0.81075466     1.06321209     0.19243903
      7      H    -1.90689987    -0.41207164    -0.10121288
      8      H     2.36284584    -0.97547737    -0.38799946
      9      B     2.10609238     3.98873313     1.23447240
     10      F     1.31629158     3.67989748     2.25434324
     11      F     1.58135090     4.47822898     0.11996515
     12      F     3.41922873     3.86819915     1.35354356
 
Total System Charge             0.00000
 
 *** GOStep4 ***

 Energy gradients wrt nuclear displacements
 ==========================================

     Atom      Cartesian (a.u./angstrom)
                 X         Y         Z
 ----------------------------------------
     1 H    -0.000202  0.000003 -0.000422
     2 C     0.000601 -0.000444  0.002404
     3 C     0.000373  0.000152  0.000871
     4 C    -0.000689  0.000711 -0.003349
     5 O    -0.000045 -0.001024  0.000618
     6 H     0.000065  0.000303 -0.001018
     7 H    -0.000636 -0.000157 -0.000833
     8 H     0.000597 -0.000537  0.001255
     9 B    -0.000004 -0.000231 -0.000035
    10 F    -0.000419  0.000434  0.000824
    11 F    -0.000244  0.000692 -0.000412
    12 F     0.000603  0.000097  0.000098
 ----------------------------------------
 Mulliken charges used for AMS results%charges...

 dE(predicted):    -0.17591E-04, dE(actual):     0.94704E-05, Trust radius:    0.020000, all in a.u.
 
----------------------------------------------------------------------
Geometry Convergence after Step   4       (Hartree/Angstrom,Angstrom)
----------------------------------------------------------------------
current energy                               -2.51857719 Hartree
energy change                       0.00000947     0.00012000    T
constrained gradient max            0.00335402     0.00100000    F
constrained gradient rms            0.00087828     0.00066667    F
gradient max                        0.00335402
gradient rms                        0.00087828
cart. step max                      0.00566291     0.01000000    T
cart. step rms                      0.00139478     0.00666667    T
 
 
--------
Geometry
--------
Formula: C3H4BF3O
Atoms
  Index Symbol   x (angstrom)   y (angstrom)   z (angstrom)
      1      H     0.08542806    -1.80526968    -0.50647266
      2      C    -0.90517150     0.00576391    -0.04213812
      3      C     0.18138449    -0.74743916    -0.26183230
      4      C     1.56715254    -0.21859031    -0.19097666
      5      O     1.87118460     0.93240648     0.06700696
      6      H    -0.81087122     1.06184842     0.19810194
      7      H    -1.90673632    -0.41203180    -0.10095153
      8      H     2.36235218    -0.97555763    -0.38841276
      9      B     2.10617709     3.98926858     1.23392907
     10      F     1.31604956     3.68063627     2.25330270
     11      F     1.58191998     4.47731424     0.11883647
     12      F     3.41901565     3.86862185     1.35350678
 
Total System Charge             0.00000
 
 *** GOStep5 ***

 Energy gradients wrt nuclear displacements
 ==========================================

     Atom      Cartesian (a.u./angstrom)
                 X         Y         Z
 ----------------------------------------
     1 H    -0.000113  0.000002 -0.000206
     2 C     0.000194 -0.000049  0.000693
     3 C     0.000299 -0.000062  0.000493
     4 C    -0.000420  0.000328 -0.001734
     5 O    -0.000049 -0.000814  0.000112
     6 H     0.000025  0.000119 -0.000353
     7 H    -0.000257 -0.000128 -0.000175
     8 H     0.000382 -0.000382  0.000699
     9 B     0.000031  0.000024  0.000075
    10 F    -0.000170  0.000453  0.000457
    11 F    -0.000087  0.000453 -0.000088
    12 F     0.000164  0.000057  0.000026
 ----------------------------------------
 Mulliken charges used for AMS results%charges...

 dE(predicted):    -0.17177E-04, dE(actual):    -0.17314E-04, Trust radius:    0.040000, all in a.u.
 
----------------------------------------------------------------------
Geometry Convergence after Step   5       (Hartree/Angstrom,Angstrom)
----------------------------------------------------------------------
current energy                               -2.51859450 Hartree
energy change                      -0.00001731     0.00012000    T
constrained gradient max            0.00173849     0.00100000    F
constrained gradient rms            0.00042857     0.00066667    T
gradient max                        0.00173849
gradient rms                        0.00042857
cart. step max                      0.00877360     0.01000000    T
cart. step rms                      0.00297017     0.00666667    T
 
 
--------
Geometry
--------
Formula: C3H4BF3O
Atoms
  Index Symbol   x (angstrom)   y (angstrom)   z (angstrom)
      1      H     0.08575494    -1.80420865    -0.51026549
      2      C    -0.90516062     0.00559748    -0.04068358
      3      C     0.18134231    -0.74758224    -0.26060943
      4      C     1.56748931    -0.22022759    -0.18340617
      5      O     1.87155693     0.93117698     0.07207640
      6      H    -0.81070567     1.06005789     0.20631431
      7      H    -1.90686165    -0.40944581    -0.10972513
      8      H     2.36156194    -0.97452076    -0.39358981
      9      B     2.10616204     3.98985829     1.23270509
     10      F     1.31750754     3.68119315     2.25298597
     11      F     1.58016585     4.47456910     0.11718598
     12      F     3.41907216     3.87050332     1.35091175
 
Total System Charge             0.00000
 
 *** GOStep6 ***

 Energy gradients wrt nuclear displacements
 ==========================================

     Atom      Cartesian (a.u./angstrom)
                 X         Y         Z
 ----------------------------------------
     1 H     0.000009  0.000026 -0.000011
     2 C    -0.000080 -0.000227  0.001117
     3 C     0.000072  0.000094 -0.000914
     4 C     0.000178 -0.000366  0.002108
     5 O    -0.000225 -0.000775 -0.001342
     6 H    -0.000034  0.000066 -0.000371
     7 H     0.000111  0.000129 -0.000413
     8 H     0.000025  0.000073 -0.000640
     9 B     0.000072  0.000437  0.000196
    10 F    -0.000001  0.000383  0.000177
    11 F     0.000027  0.000205  0.000137
    12 F    -0.000154 -0.000044 -0.000043
 ----------------------------------------
 Mulliken charges used for AMS results%charges...

 dE(predicted):    -0.88735E-05, dE(actual):    -0.14699E-05, Trust radius:    0.040000, all in a.u.
 
----------------------------------------------------------------------
Geometry Convergence after Step   6       (Hartree/Angstrom,Angstrom)
----------------------------------------------------------------------
current energy                               -2.51859597 Hartree
energy change                      -0.00000147     0.00012000    T
constrained gradient max            0.00210417     0.00100000    F
constrained gradient rms            0.00053948     0.00066667    T
gradient max                        0.00210417
gradient rms                        0.00053948
cart. step max                      0.00645745     0.01000000    T
cart. step rms                      0.00254376     0.00666667    T
 
 
--------
Geometry
--------
Formula: C3H4BF3O
Atoms
  Index Symbol   x (angstrom)   y (angstrom)   z (angstrom)
      1      H     0.08577925    -1.80379923    -0.50914413
      2      C    -0.90462899     0.00706556    -0.04228457
      3      C     0.18151591    -0.74657137    -0.26216964
      4      C     1.56786689    -0.21907396    -0.18797581
      5      O     1.87249817     0.93166404     0.06951206
      6      H    -0.80950798     1.06010270     0.21044180
      7      H    -1.90625655    -0.40938853    -0.10326769
      8      H     2.36169416    -0.97494749    -0.39352201
      9      B     2.10519193     3.98890481     1.23236532
     10      F     1.31136506     3.67997666     2.24856403
     11      F     1.58492475     4.47449816     0.11452892
     12      F     3.41744251     3.86853983     1.35685161
 
Total System Charge             0.00000
 
 *** GOStep7 ***

 Energy gradients wrt nuclear displacements
 ==========================================

     Atom      Cartesian (a.u./angstrom)
                 X         Y         Z
 ----------------------------------------
     1 H     0.000055 -0.000013  0.000226
     2 C    -0.000099  0.000184 -0.000760
     3 C    -0.000042 -0.000111 -0.000036
     4 C     0.000223  0.000243  0.000301
     5 O    -0.000256 -0.001054 -0.000706
     6 H    -0.000010 -0.000138  0.000446
     7 H     0.000137  0.000022  0.000114
     8 H     0.000048 -0.000105 -0.000041
     9 B     0.000084  0.000483  0.000265
    10 F    -0.000012  0.000358  0.000169
    11 F     0.000007  0.000196  0.000080
    12 F    -0.000135 -0.000067 -0.000057
 ----------------------------------------
 Mulliken charges used for AMS results%charges...

 dE(predicted):    -0.69868E-05, dE(actual):    -0.58692E-05, Trust radius:    0.040000, all in a.u.
 
----------------------------------------------------------------------
Geometry Convergence after Step   7       (Hartree/Angstrom,Angstrom)
----------------------------------------------------------------------
current energy                               -2.51860184 Hartree
energy change                      -0.00000587     0.00012000    T
constrained gradient max            0.00105597     0.00100000    F
constrained gradient rms            0.00030581     0.00066667    T
gradient max                        0.00105597
gradient rms                        0.00030581
cart. step max                      0.00688506     0.01000000    T
cart. step rms                      0.00193854     0.00666667    T
 
 
--------
Geometry
--------
Formula: C3H4BF3O
Atoms
  Index Symbol   x (angstrom)   y (angstrom)   z (angstrom)
      1      H     0.08556057    -1.80353020    -0.50864713
      2      C    -0.90420754     0.00744492    -0.04089174
      3      C     0.18164608    -0.74626039    -0.26191581
      4      C     1.56812873    -0.21869782    -0.18952105
      5      O     1.87320750     0.93176761     0.06897574
      6      H    -0.80898220     1.06223996     0.20444919
      7      H    -1.90589451    -0.41001896    -0.09638263
      8      H     2.36190586    -0.97485524    -0.39559471
      9      B     2.10459514     3.98795049     1.23256164
     10      F     1.30815742     3.67901852     2.24679881
     11      F     1.58718037     4.47416480     0.11360908
     12      F     3.41658770     3.86774749     1.36045850
 
Total System Charge             0.00000
 
 *** GOStep8 ***

 Energy gradients wrt nuclear displacements
 ==========================================

     Atom      Cartesian (a.u./angstrom)
                 X         Y         Z
 ----------------------------------------
     1 H     0.000021  0.000059 -0.000173
     2 C     0.000082  0.000106 -0.000339
     3 C    -0.000101 -0.000136  0.000057
     4 C     0.000025  0.000249  0.000327
     5 O    -0.000179 -0.000861 -0.000570
     6 H    -0.000015  0.000014 -0.000069
     7 H    -0.000026 -0.000099  0.000318
     8 H     0.000247 -0.000303 -0.000006
     9 B     0.000092  0.000352  0.000190
    10 F    -0.000081  0.000372  0.000270
    11 F    -0.000028  0.000277  0.000020
    12 F    -0.000037 -0.000031 -0.000026
 ----------------------------------------
 Mulliken charges used for AMS results%charges...

 dE(predicted):    -0.22514E-05, dE(actual):    -0.17770E-05, Trust radius:    0.040000, all in a.u.
 
---------------------------------------------------------
Geometry Convergence after Step   8       ** CONVERGED **
---------------------------------------------------------
current energy                               -2.51860362 Hartree
energy change                      -0.00000178     0.00012000    T
constrained gradient max            0.00086317     0.00100000    T
constrained gradient rms            0.00024732     0.00066667    T
gradient max                        0.00086317
gradient rms                        0.00024732
cart. step max                      0.00454621     0.01000000    T
cart. step rms                      0.00177962     0.00666667    T
 
Geometry optimization converged

Optimized geometry:
 
--------
Geometry
--------
Formula: C3H4BF3O
Atoms
  Index Symbol   x (angstrom)   y (angstrom)   z (angstrom)
      1      H     0.08556057    -1.80353020    -0.50864713
      2      C    -0.90420754     0.00744492    -0.04089174
      3      C     0.18164608    -0.74626039    -0.26191581
      4      C     1.56812873    -0.21869782    -0.18952105
      5      O     1.87320750     0.93176761     0.06897574
      6      H    -0.80898220     1.06223996     0.20444919
      7      H    -1.90589451    -0.41001896    -0.09638263
      8      H     2.36190586    -0.97485524    -0.39559471
      9      B     2.10459514     3.98795049     1.23256164
     10      F     1.30815742     3.67901852     2.24679881
     11      F     1.58718037     4.47416480     0.11360908
     12      F     3.41658770     3.86774749     1.36045850
 
Total System Charge             0.00000
 
Performing a single point calculation on the final geometry ...

 *** adf ***



 ===========================
 A T T A C H E D   F I L E S
 ===========================
  
 Restart
 /scratch/3979/amstmp_26.achiral_catalyst.H_H_BF3.Rsub_cat_complex_kid0.17974589
 54/GOStep8.rkf*** GOStep8 ***



 ===============================
 M O D E L   P A R A M E T E R S
 ===============================
  
 DENSITY FUNCTIONAL POTENTIAL (scf)
    LDA:                               Exchange only                           == Not Default ==
    Gradient Corrections:              OPTX LYP                                == Not Default ==

 SPIN  (restricted / unrestr.)
    Molecule:                          Restricted                               
    Fragments:                         Restricted                               

 OTHER ASPECTS
    Relativistic Corrections:          scalar (ZORA,MAPA)                       

    Nuclear Charge Density Model:      Point Charge Nuclei                      
    Core Treatment:                    Frozen Orbital(s)                        

    Hyperfine or Zeeman Interaction:   ---                                      



 ===============
 G E O M E T R Y  ***  3D  Molecule  ***
 ===============
  

 ATOMS
 =====                            X Y Z                    CHARGE
                                (Angstrom)             Nucl     +Core       At.Mass
                       --------------------------    ----------------       -------
    1  H               0.0856   -1.8035   -0.5086      1.00      1.00        1.0078
    2  C              -0.9042    0.0074   -0.0409      6.00      6.00       12.0000
    3  C               0.1816   -0.7463   -0.2619      6.00      6.00       12.0000
    4  C               1.5681   -0.2187   -0.1895      6.00      6.00       12.0000
    5  O               1.8732    0.9318    0.0690      8.00      8.00       15.9949
    6  H              -0.8090    1.0622    0.2044      1.00      1.00        1.0078
    7  H              -1.9059   -0.4100   -0.0964      1.00      1.00        1.0078
    8  H               2.3619   -0.9749   -0.3956      1.00      1.00        1.0078
    9  B               2.1046    3.9880    1.2326      5.00      5.00       11.0093
   10  F               1.3082    3.6790    2.2468      9.00      9.00       18.9984
   11  F               1.5872    4.4742    0.1136      9.00      9.00       18.9984
   12  F               3.4166    3.8677    1.3605      9.00      9.00       18.9984


 FRAGMENTS
 =========                                     Atoms in this Fragment     Cart. coord.s (Angstrom)
                                               -------------------------------------------------------
    1  H                                                 1  H            0.0856   -1.8035   -0.5086
    2  H                                                 6  H           -0.8090    1.0622    0.2044
    3  H                                                 7  H           -1.9059   -0.4100   -0.0964
    4  H                                                 8  H            2.3619   -0.9749   -0.3956
    5  C                                                 2  C           -0.9042    0.0074   -0.0409
    6  C                                                 3  C            0.1816   -0.7463   -0.2619
    7  C                                                 4  C            1.5681   -0.2187   -0.1895
    8  O                                                 5  O            1.8732    0.9318    0.0690
    9  B                                                 9  B            2.1046    3.9880    1.2326
   10  F                                                10  F            1.3082    3.6790    2.2468
   11  F                                                11  F            1.5872    4.4742    0.1136
   12  F                                                12  F            3.4166    3.8677    1.3605


 Interatomic Distance Matrix (Angstrom)
 --------------------------------------

   1)     0.000
   2)     2.116   0.000
   3)     1.090   1.340   0.000
   4)     2.194   2.487   1.485   0.000
   5)     3.318   2.929   2.406   1.218   0.000
   6)     3.086   1.087   2.114   2.729   2.689   0.000
   7)     2.465   1.087   2.121   3.481   4.014   1.860   0.000
   8)     2.425   3.429   2.196   1.115   2.022   3.816   4.315   0.000
   9)     6.376   5.150   5.324   4.473   3.278   4.255   6.099   5.229   0.000
  10)     6.257   4.859   5.210   4.604   3.551   3.937   5.704   5.454   1.326   0.000
  11)     6.485   5.117   5.419   4.703   3.554   4.170   6.008   5.527   1.325   2.294
          0.000
  12)     6.838   5.961   5.864   4.745   3.559   5.202   6.982   5.258   1.324   2.295
          2.295   0.000

 Min. Distance =    1.0866
 Max. Distance =    6.9822



 =====================================
 S Y M M E T R Y ,   E L E C T R O N S
 =====================================
  
 Symmetry: NOSYM

 Irreducible Representations, including subspecies
 -------------------------------------------------
 A


 Configuration of Valence Electrons
 ==================================
 ( determined in the SCF procedure )

 Total:   62

 Net Charge: 0 (Nuclei minus Electrons)

 Aufbau principle for MO occupations will be applied through SCF cycle no.      49
 Thereafter, the program will assign electrons to MOs that are spatially
 similar to the occupied MOs in a "reference" cycle ("KeepOrbitals").
 The reference cycle is always the PREVIOUS cycle: it will evolve with
 the SCF procedure.
1
 ***************************************************************************************************



                                      ****************************************
                                      *  B U I L D : (Fragments, Functions)  *
                                      ****************************************
  



 =======
 S F O s  ***  (Symmetrized Fragment Orbitals)  ***
 =======
  
 SFOs are linear combinations of (valence) Fragment Orbitals (FOs), such that the SFOs transform as the
 irreducible representations of the (molecular) symmetry group. Each SFO is therefore characterized by
 an irrep of the molecule and by a few (or only one) generating FOs.
 The SFOs constitute a symmetry-adapted basis for the Fock matrix. The MO eigenvector coefficients in
 this basis provide a direct interpretation of the MOs in terms of Frontier Orbital Theory.

 The SFOs are combined with auxiliary Core Functions (CFs) to ensure orthogonalization on the (frozen)
 Core Orbitals (COs). The Core-orthogonalized SFOs (CSFOs) constitute the true Fock basis.

 The FOs, and hence also the (C)SFOs are combinations of the elementary basis functions (BAS). The basis
 functions that participate in the description of the SFOs depend on the irrep. The indices of the
 involved functions are printed below for each irrep.
 (The complete list of primitive basis functions is printed in another section)

 Total nr. of (C)SFOs (summation over all irreps) :   252

 NOTE: a (C)SFO that is defined as a combination of more than one FO is usually NOT normalized.



                                       === A ===
 Nr. of SFOs :  252
 Cartesian basis functions that participate in this irrep (total number =   288) :
      1     2     3     4     5     6     7     8     9    10
     11    12    13    14    15    16    17    18    19    20
     21    22    23    24    25    26    27    28    29    30
     31    32    33    34    35    36    37    38    39    40
     41    42    43    44    45    46    47    48    49    50
     51    52    53    54    57    60    55    58    61    56
     59    62    63    64    65    66    67    68    69    70
     71    72    73    74    75    76    77    78    79    80
     81    82    83    84    87    90    85    88    91    86
     89    92    93    94    95    96    97    98    99   100
    101   102   103   104   105   106   107   108   109   110
    111   112   113   114   117   120   115   118   121   116
    119   122   123   124   125   126   127   128   129   130
    131   132   133   134   135   136   137   138   139   140
    141   142   143   144   147   150   145   148   151   146
    149   152   153   154   155   156   157   158   159   160
    161   162   163   164   165   166   167   168   169   170
    171   172   173   174   177   180   175   178   181   176
    179   182   183   184   185   186   187   188   189   190
    191   192   193   194   195   196   197   198   199   200
    201   202   203   204   207   210   205   208   211   206
    209   212   213   214   215   216   217   218   219   220
    221   222   223   224   225   226   227   228   229   230
    231   232   233   234   237   240   235   238   241   236
    239   242   243   244   245   246   247   248   249   250
    251   252   253   254   255   256   257   258   259   260
    261   262   263   264   267   270   265   268   271   266
    269   272   273   274   275   276   277   278   279   280
    281   282   283   284   285   286   287   288

    SFO  (index         Fragment          Generating    Expansion in Fragment Orbitals
  indx  incl.CFs)   Occup   Orb.Energy   FragmentType  Coeff.   Orbital     on Fragment
 --------------------------------------------------------------------------------------
     1       1      1.000      -0.238 au  H             1.00      1 S               1
                        (      -6.484 eV)
     2       2       --         0.077 au  H             1.00      2 S               1
                        (       2.096 eV)
     3       3       --         1.521 au  H             1.00      3 S               1
                        (      41.380 eV)
     4       4       --         0.410 au  H             1.00      1 P:x             1
                        (      11.162 eV)
     5       5       --         0.410 au  H             1.00      1 P:y             1
                        (      11.162 eV)
     6       6       --         0.410 au  H             1.00      1 P:z             1
                        (      11.162 eV)
     7       7       --         2.567 au  H             1.00      1 D:z2            1
                        (      69.838 eV)
     8       8       --         2.567 au  H             1.00      1 D:x2-y2         1
                        (      69.838 eV)
     9       9       --         2.567 au  H             1.00      1 D:xy            1
                        (      69.838 eV)
    10      10       --         2.567 au  H             1.00      1 D:xz            1
                        (      69.838 eV)
    11      11       --         2.567 au  H             1.00      1 D:yz            1
                        (      69.838 eV)
    12      12      1.000      -0.238 au  H             1.00      1 S               2
                        (      -6.484 eV)
    13      13       --         0.077 au  H             1.00      2 S               2
                        (       2.096 eV)
    14      14       --         1.521 au  H             1.00      3 S               2
                        (      41.380 eV)
    15      15       --         0.410 au  H             1.00      1 P:x             2
                        (      11.162 eV)
    16      16       --         0.410 au  H             1.00      1 P:y             2
                        (      11.162 eV)
    17      17       --         0.410 au  H             1.00      1 P:z             2
                        (      11.162 eV)
    18      18       --         2.567 au  H             1.00      1 D:z2            2
                        (      69.838 eV)
    19      19       --         2.567 au  H             1.00      1 D:x2-y2         2
                        (      69.838 eV)
    20      20       --         2.567 au  H             1.00      1 D:xy            2
                        (      69.838 eV)
    21      21       --         2.567 au  H             1.00      1 D:xz            2
                        (      69.838 eV)
    22      22       --         2.567 au  H             1.00      1 D:yz            2
                        (      69.838 eV)
    23      23      1.000      -0.238 au  H             1.00      1 S               3
                        (      -6.484 eV)
    24      24       --         0.077 au  H             1.00      2 S               3
                        (       2.096 eV)
    25      25       --         1.521 au  H             1.00      3 S               3
                        (      41.380 eV)
    26      26       --         0.410 au  H             1.00      1 P:x             3
                        (      11.162 eV)
    27      27       --         0.410 au  H             1.00      1 P:y             3
                        (      11.162 eV)
    28      28       --         0.410 au  H             1.00      1 P:z             3
                        (      11.162 eV)
    29      29       --         2.567 au  H             1.00      1 D:z2            3
                        (      69.838 eV)
    30      30       --         2.567 au  H             1.00      1 D:x2-y2         3
                        (      69.838 eV)
    31      31       --         2.567 au  H             1.00      1 D:xy            3
                        (      69.838 eV)
    32      32       --         2.567 au  H             1.00      1 D:xz            3
                        (      69.838 eV)
    33      33       --         2.567 au  H             1.00      1 D:yz            3
                        (      69.838 eV)
    34      34      1.000      -0.238 au  H             1.00      1 S               4
                        (      -6.484 eV)
    35      35       --         0.077 au  H             1.00      2 S               4
                        (       2.096 eV)
    36      36       --         1.521 au  H             1.00      3 S               4
                        (      41.380 eV)
    37      37       --         0.410 au  H             1.00      1 P:x             4
                        (      11.162 eV)
    38      38       --         0.410 au  H             1.00      1 P:y             4
                        (      11.162 eV)
    39      39       --         0.410 au  H             1.00      1 P:z             4
                        (      11.162 eV)
    40      40       --         2.567 au  H             1.00      1 D:z2            4
                        (      69.838 eV)
    41      41       --         2.567 au  H             1.00      1 D:x2-y2         4
                        (      69.838 eV)
    42      42       --         2.567 au  H             1.00      1 D:xy            4
                        (      69.838 eV)
    43      43       --         2.567 au  H             1.00      1 D:xz            4
                        (      69.838 eV)
    44      44       --         2.567 au  H             1.00      1 D:yz            4
                        (      69.838 eV)
    45      45      2.000     -10.064 au  C             1.00      1 S               5
                        (    -273.865 eV)
    46      46      2.000      -0.507 au  C             1.00      2 S               5
                        (     -13.802 eV)
    47      47       --         0.384 au  C             1.00      3 S               5
                        (      10.456 eV)
    48      48       --         5.458 au  C             1.00      4 S               5
                        (     148.511 eV)
    49      49       --        49.970 au  C             1.00      5 S               5
                        (    1359.766 eV)
    50      50      0.667      -0.189 au  C             1.00      1 P:x             5
                        (      -5.135 eV)
    51      51       --         0.168 au  C             1.00      2 P:x             5
                        (       4.559 eV)
    52      52       --         2.056 au  C             1.00      3 P:x             5
                        (      55.959 eV)
    53      53      0.667      -0.189 au  C             1.00      1 P:y             5
                        (      -5.135 eV)
    54      54       --         0.168 au  C             1.00      2 P:y             5
                        (       4.559 eV)
    55      55       --         2.056 au  C             1.00      3 P:y             5
                        (      55.959 eV)
    56      56      0.667      -0.189 au  C             1.00      1 P:z             5
                        (      -5.135 eV)
    57      57       --         0.168 au  C             1.00      2 P:z             5
                        (       4.559 eV)
    58      58       --         2.056 au  C             1.00      3 P:z             5
                        (      55.959 eV)
    59      59       --         1.235 au  C             1.00      1 D:z2            5
                        (      33.605 eV)
    60      60       --         1.235 au  C             1.00      1 D:x2-y2         5
                        (      33.605 eV)
    61      61       --         1.235 au  C             1.00      1 D:xy            5
                        (      33.605 eV)
    62      62       --         1.235 au  C             1.00      1 D:xz            5
                        (      33.605 eV)
    63      63       --         1.235 au  C             1.00      1 D:yz            5
                        (      33.605 eV)
    64      64       --         4.005 au  C             1.00      1 F:z3            5
                        (     108.969 eV)
    65      65       --         4.005 au  C             1.00      1 F:z             5
                        (     108.969 eV)
    66      66       --         4.005 au  C             1.00      1 F:xyz           5
                        (     108.969 eV)
    67      67       --         4.005 au  C             1.00      1 F:z2x           5
                        (     108.969 eV)
    68      68       --         4.005 au  C             1.00      1 F:z2y           5
                        (     108.969 eV)
    69      69       --         4.005 au  C             1.00      1 F:x             5
                        (     108.969 eV)
    70      70       --         4.005 au  C             1.00      1 F:y             5
                        (     108.969 eV)
    71      71      2.000     -10.064 au  C             1.00      1 S               6
                        (    -273.865 eV)
    72      72      2.000      -0.507 au  C             1.00      2 S               6
                        (     -13.802 eV)
    73      73       --         0.384 au  C             1.00      3 S               6
                        (      10.456 eV)
    74      74       --         5.458 au  C             1.00      4 S               6
                        (     148.511 eV)
    75      75       --        49.970 au  C             1.00      5 S               6
                        (    1359.766 eV)
    76      76      0.667      -0.189 au  C             1.00      1 P:x             6
                        (      -5.135 eV)
    77      77       --         0.168 au  C             1.00      2 P:x             6
                        (       4.559 eV)
    78      78       --         2.056 au  C             1.00      3 P:x             6
                        (      55.959 eV)
    79      79      0.667      -0.189 au  C             1.00      1 P:y             6
                        (      -5.135 eV)
    80      80       --         0.168 au  C             1.00      2 P:y             6
                        (       4.559 eV)
    81      81       --         2.056 au  C             1.00      3 P:y             6
                        (      55.959 eV)
    82      82      0.667      -0.189 au  C             1.00      1 P:z             6
                        (      -5.135 eV)
    83      83       --         0.168 au  C             1.00      2 P:z             6
                        (       4.559 eV)
    84      84       --         2.056 au  C             1.00      3 P:z             6
                        (      55.959 eV)
    85      85       --         1.235 au  C             1.00      1 D:z2            6
                        (      33.605 eV)
    86      86       --         1.235 au  C             1.00      1 D:x2-y2         6
                        (      33.605 eV)
    87      87       --         1.235 au  C             1.00      1 D:xy            6
                        (      33.605 eV)
    88      88       --         1.235 au  C             1.00      1 D:xz            6
                        (      33.605 eV)
    89      89       --         1.235 au  C             1.00      1 D:yz            6
                        (      33.605 eV)
    90      90       --         4.005 au  C             1.00      1 F:z3            6
                        (     108.969 eV)
    91      91       --         4.005 au  C             1.00      1 F:z             6
                        (     108.969 eV)
    92      92       --         4.005 au  C             1.00      1 F:xyz           6
                        (     108.969 eV)
    93      93       --         4.005 au  C             1.00      1 F:z2x           6
                        (     108.969 eV)
    94      94       --         4.005 au  C             1.00      1 F:z2y           6
                        (     108.969 eV)
    95      95       --         4.005 au  C             1.00      1 F:x             6
                        (     108.969 eV)
    96      96       --         4.005 au  C             1.00      1 F:y             6
                        (     108.969 eV)
    97      97      2.000     -10.064 au  C             1.00      1 S               7
                        (    -273.865 eV)
    98      98      2.000      -0.507 au  C             1.00      2 S               7
                        (     -13.802 eV)
    99      99       --         0.384 au  C             1.00      3 S               7
                        (      10.456 eV)
   100     100       --         5.458 au  C             1.00      4 S               7
                        (     148.511 eV)
   101     101       --        49.970 au  C             1.00      5 S               7
                        (    1359.766 eV)
   102     102      0.667      -0.189 au  C             1.00      1 P:x             7
                        (      -5.135 eV)
   103     103       --         0.168 au  C             1.00      2 P:x             7
                        (       4.559 eV)
   104     104       --         2.056 au  C             1.00      3 P:x             7
                        (      55.959 eV)
   105     105      0.667      -0.189 au  C             1.00      1 P:y             7
                        (      -5.135 eV)
   106     106       --         0.168 au  C             1.00      2 P:y             7
                        (       4.559 eV)
   107     107       --         2.056 au  C             1.00      3 P:y             7
                        (      55.959 eV)
   108     108      0.667      -0.189 au  C             1.00      1 P:z             7
                        (      -5.135 eV)
   109     109       --         0.168 au  C             1.00      2 P:z             7
                        (       4.559 eV)
   110     110       --         2.056 au  C             1.00      3 P:z             7
                        (      55.959 eV)
   111     111       --         1.235 au  C             1.00      1 D:z2            7
                        (      33.605 eV)
   112     112       --         1.235 au  C             1.00      1 D:x2-y2         7
                        (      33.605 eV)
   113     113       --         1.235 au  C             1.00      1 D:xy            7
                        (      33.605 eV)
   114     114       --         1.235 au  C             1.00      1 D:xz            7
                        (      33.605 eV)
   115     115       --         1.235 au  C             1.00      1 D:yz            7
                        (      33.605 eV)
   116     116       --         4.005 au  C             1.00      1 F:z3            7
                        (     108.969 eV)
   117     117       --         4.005 au  C             1.00      1 F:z             7
                        (     108.969 eV)
   118     118       --         4.005 au  C             1.00      1 F:xyz           7
                        (     108.969 eV)
   119     119       --         4.005 au  C             1.00      1 F:z2x           7
                        (     108.969 eV)
   120     120       --         4.005 au  C             1.00      1 F:z2y           7
                        (     108.969 eV)
   121     121       --         4.005 au  C             1.00      1 F:x             7
                        (     108.969 eV)
   122     122       --         4.005 au  C             1.00      1 F:y             7
                        (     108.969 eV)
   123     123      2.000     -18.926 au  O             1.00      1 S               8
                        (    -515.001 eV)
   124     124      2.000      -0.887 au  O             1.00      2 S               8
                        (     -24.136 eV)
   125     125       --         0.804 au  O             1.00      3 S               8
                        (      21.890 eV)
   126     126       --        13.488 au  O             1.00      4 S               8
                        (     367.032 eV)
   127     127       --       121.767 au  O             1.00      5 S               8
                        (    3313.451 eV)
   128     128      1.333      -0.329 au  O             1.00      1 P:x             8
                        (      -8.949 eV)
   129     129       --         0.351 au  O             1.00      2 P:x             8
                        (       9.557 eV)
   130     130       --         3.863 au  O             1.00      3 P:x             8
                        (     105.120 eV)
   131     131      1.333      -0.329 au  O             1.00      1 P:y             8
                        (      -8.949 eV)
   132     132       --         0.351 au  O             1.00      2 P:y             8
                        (       9.557 eV)
   133     133       --         3.863 au  O             1.00      3 P:y             8
                        (     105.120 eV)
   134     134      1.333      -0.329 au  O             1.00      1 P:z             8
                        (      -8.949 eV)
   135     135       --         0.351 au  O             1.00      2 P:z             8
                        (       9.557 eV)
   136     136       --         3.863 au  O             1.00      3 P:z             8
                        (     105.120 eV)
   137     137       --         1.072 au  O             1.00      1 D:z2            8
                        (      29.175 eV)
   138     138       --         1.072 au  O             1.00      1 D:x2-y2         8
                        (      29.175 eV)
   139     139       --         1.072 au  O             1.00      1 D:xy            8
                        (      29.175 eV)
   140     140       --         1.072 au  O             1.00      1 D:xz            8
                        (      29.175 eV)
   141     141       --         1.072 au  O             1.00      1 D:yz            8
                        (      29.175 eV)
   142     142       --         3.353 au  O             1.00      1 F:z3            8
                        (      91.230 eV)
   143     143       --         3.353 au  O             1.00      1 F:z             8
                        (      91.230 eV)
   144     144       --         3.353 au  O             1.00      1 F:xyz           8
                        (      91.230 eV)
   145     145       --         3.353 au  O             1.00      1 F:z2x           8
                        (      91.230 eV)
   146     146       --         3.353 au  O             1.00      1 F:z2y           8
                        (      91.230 eV)
   147     147       --         3.353 au  O             1.00      1 F:x             8
                        (      91.230 eV)
   148     148       --         3.353 au  O             1.00      1 F:y             8
                        (      91.230 eV)
   149     149      2.000      -6.653 au  B             1.00      1 S               9
                        (    -181.037 eV)
   150     150      2.000      -0.346 au  B             1.00      2 S               9
                        (      -9.402 eV)
   151     151       --         0.207 au  B             1.00      3 S               9
                        (       5.623 eV)
   152     152       --         2.604 au  B             1.00      4 S               9
                        (      70.869 eV)
   153     153       --        26.790 au  B             1.00      5 S               9
                        (     728.990 eV)
   154     154      0.333      -0.126 au  B             1.00      1 P:x             9
                        (      -3.435 eV)
   155     155       --         0.121 au  B             1.00      2 P:x             9
                        (       3.297 eV)
   156     156       --         1.701 au  B             1.00      3 P:x             9
                        (      46.283 eV)
   157     157      0.333      -0.126 au  B             1.00      1 P:y             9
                        (      -3.435 eV)
   158     158       --         0.121 au  B             1.00      2 P:y             9
                        (       3.297 eV)
   159     159       --         1.701 au  B             1.00      3 P:y             9
                        (      46.283 eV)
   160     160      0.333      -0.126 au  B             1.00      1 P:z             9
                        (      -3.435 eV)
   161     161       --         0.121 au  B             1.00      2 P:z             9
                        (       3.297 eV)
   162     162       --         1.701 au  B             1.00      3 P:z             9
                        (      46.283 eV)
   163     163       --         1.038 au  B             1.00      1 D:z2            9
                        (      28.243 eV)
   164     164       --         1.038 au  B             1.00      1 D:x2-y2         9
                        (      28.243 eV)
   165     165       --         1.038 au  B             1.00      1 D:xy            9
                        (      28.243 eV)
   166     166       --         1.038 au  B             1.00      1 D:xz            9
                        (      28.243 eV)
   167     167       --         1.038 au  B             1.00      1 D:yz            9
                        (      28.243 eV)
   168     168       --         3.345 au  B             1.00      1 F:z3            9
                        (      91.031 eV)
   169     169       --         3.345 au  B             1.00      1 F:z             9
                        (      91.031 eV)
   170     170       --         3.345 au  B             1.00      1 F:xyz           9
                        (      91.031 eV)
   171     171       --         3.345 au  B             1.00      1 F:z2x           9
                        (      91.031 eV)
   172     172       --         3.345 au  B             1.00      1 F:z2y           9
                        (      91.031 eV)
   173     173       --         3.345 au  B             1.00      1 F:x             9
                        (      91.031 eV)
   174     174       --         3.345 au  B             1.00      1 F:y             9
                        (      91.031 eV)
   175     175      2.000     -24.380 au  F             1.00      1 S              10
                        (    -663.424 eV)
   176     176      2.000      -1.107 au  F             1.00      2 S              10
                        (     -30.122 eV)
   177     177       --         0.011 au  F             1.00      3 S              10
                        (       0.309 eV)
   178     178       --         1.586 au  F             1.00      4 S              10
                        (      43.147 eV)
   179     179       --        47.962 au  F             1.00      5 S              10
                        (    1305.109 eV)
   180     180      1.667      -0.407 au  F             1.00      1 P:x            10
                        (     -11.083 eV)
   181     181       --         0.433 au  F             1.00      2 P:x            10
                        (      11.793 eV)
   182     182       --         4.596 au  F             1.00      3 P:x            10
                        (     125.057 eV)
   183     183      1.667      -0.407 au  F             1.00      1 P:y            10
                        (     -11.083 eV)
   184     184       --         0.433 au  F             1.00      2 P:y            10
                        (      11.793 eV)
   185     185       --         4.596 au  F             1.00      3 P:y            10
                        (     125.057 eV)
   186     186      1.667      -0.407 au  F             1.00      1 P:z            10
                        (     -11.083 eV)
   187     187       --         0.433 au  F             1.00      2 P:z            10
                        (      11.793 eV)
   188     188       --         4.596 au  F             1.00      3 P:z            10
                        (     125.057 eV)
   189     189       --         1.123 au  F             1.00      1 D:z2           10
                        (      30.566 eV)
   190     190       --         1.123 au  F             1.00      1 D:x2-y2        10
                        (      30.566 eV)
   191     191       --         1.123 au  F             1.00      1 D:xy           10
                        (      30.566 eV)
   192     192       --         1.123 au  F             1.00      1 D:xz           10
                        (      30.566 eV)
   193     193       --         1.123 au  F             1.00      1 D:yz           10
                        (      30.566 eV)
   194     194       --         3.416 au  F             1.00      1 F:z3           10
                        (      92.960 eV)
   195     195       --         3.416 au  F             1.00      1 F:z            10
                        (      92.960 eV)
   196     196       --         3.416 au  F             1.00      1 F:xyz          10
                        (      92.960 eV)
   197     197       --         3.416 au  F             1.00      1 F:z2x          10
                        (      92.960 eV)
   198     198       --         3.416 au  F             1.00      1 F:z2y          10
                        (      92.960 eV)
   199     199       --         3.416 au  F             1.00      1 F:x            10
                        (      92.960 eV)
   200     200       --         3.416 au  F             1.00      1 F:y            10
                        (      92.960 eV)
   201     201      2.000     -24.380 au  F             1.00      1 S              11
                        (    -663.424 eV)
   202     202      2.000      -1.107 au  F             1.00      2 S              11
                        (     -30.122 eV)
   203     203       --         0.011 au  F             1.00      3 S              11
                        (       0.309 eV)
   204     204       --         1.586 au  F             1.00      4 S              11
                        (      43.147 eV)
   205     205       --        47.962 au  F             1.00      5 S              11
                        (    1305.109 eV)
   206     206      1.667      -0.407 au  F             1.00      1 P:x            11
                        (     -11.083 eV)
   207     207       --         0.433 au  F             1.00      2 P:x            11
                        (      11.793 eV)
   208     208       --         4.596 au  F             1.00      3 P:x            11
                        (     125.057 eV)
   209     209      1.667      -0.407 au  F             1.00      1 P:y            11
                        (     -11.083 eV)
   210     210       --         0.433 au  F             1.00      2 P:y            11
                        (      11.793 eV)
   211     211       --         4.596 au  F             1.00      3 P:y            11
                        (     125.057 eV)
   212     212      1.667      -0.407 au  F             1.00      1 P:z            11
                        (     -11.083 eV)
   213     213       --         0.433 au  F             1.00      2 P:z            11
                        (      11.793 eV)
   214     214       --         4.596 au  F             1.00      3 P:z            11
                        (     125.057 eV)
   215     215       --         1.123 au  F             1.00      1 D:z2           11
                        (      30.566 eV)
   216     216       --         1.123 au  F             1.00      1 D:x2-y2        11
                        (      30.566 eV)
   217     217       --         1.123 au  F             1.00      1 D:xy           11
                        (      30.566 eV)
   218     218       --         1.123 au  F             1.00      1 D:xz           11
                        (      30.566 eV)
   219     219       --         1.123 au  F             1.00      1 D:yz           11
                        (      30.566 eV)
   220     220       --         3.416 au  F             1.00      1 F:z3           11
                        (      92.960 eV)
   221     221       --         3.416 au  F             1.00      1 F:z            11
                        (      92.960 eV)
   222     222       --         3.416 au  F             1.00      1 F:xyz          11
                        (      92.960 eV)
   223     223       --         3.416 au  F             1.00      1 F:z2x          11
                        (      92.960 eV)
   224     224       --         3.416 au  F             1.00      1 F:z2y          11
                        (      92.960 eV)
   225     225       --         3.416 au  F             1.00      1 F:x            11
                        (      92.960 eV)
   226     226       --         3.416 au  F             1.00      1 F:y            11
                        (      92.960 eV)
   227     227      2.000     -24.380 au  F             1.00      1 S              12
                        (    -663.424 eV)
   228     228      2.000      -1.107 au  F             1.00      2 S              12
                        (     -30.122 eV)
   229     229       --         0.011 au  F             1.00      3 S              12
                        (       0.309 eV)
   230     230       --         1.586 au  F             1.00      4 S              12
                        (      43.147 eV)
   231     231       --        47.962 au  F             1.00      5 S              12
                        (    1305.109 eV)
   232     232      1.667      -0.407 au  F             1.00      1 P:x            12
                        (     -11.083 eV)
   233     233       --         0.433 au  F             1.00      2 P:x            12
                        (      11.793 eV)
   234     234       --         4.596 au  F             1.00      3 P:x            12
                        (     125.057 eV)
   235     235      1.667      -0.407 au  F             1.00      1 P:y            12
                        (     -11.083 eV)
   236     236       --         0.433 au  F             1.00      2 P:y            12
                        (      11.793 eV)
   237     237       --         4.596 au  F             1.00      3 P:y            12
                        (     125.057 eV)
   238     238      1.667      -0.407 au  F             1.00      1 P:z            12
                        (     -11.083 eV)
   239     239       --         0.433 au  F             1.00      2 P:z            12
                        (      11.793 eV)
   240     240       --         4.596 au  F             1.00      3 P:z            12
                        (     125.057 eV)
   241     241       --         1.123 au  F             1.00      1 D:z2           12
                        (      30.566 eV)
   242     242       --         1.123 au  F             1.00      1 D:x2-y2        12
                        (      30.566 eV)
   243     243       --         1.123 au  F             1.00      1 D:xy           12
                        (      30.566 eV)
   244     244       --         1.123 au  F             1.00      1 D:xz           12
                        (      30.566 eV)
   245     245       --         1.123 au  F             1.00      1 D:yz           12
                        (      30.566 eV)
   246     246       --         3.416 au  F             1.00      1 F:z3           12
                        (      92.960 eV)
   247     247       --         3.416 au  F             1.00      1 F:z            12
                        (      92.960 eV)
   248     248       --         3.416 au  F             1.00      1 F:xyz          12
                        (      92.960 eV)
   249     249       --         3.416 au  F             1.00      1 F:z2x          12
                        (      92.960 eV)
   250     250       --         3.416 au  F             1.00      1 F:z2y          12
                        (      92.960 eV)
   251     251       --         3.416 au  F             1.00      1 F:x            12
                        (      92.960 eV)
   252     252       --         3.416 au  F             1.00      1 F:y            12
                        (      92.960 eV)



 ================================
 (Slater-type)  F U N C T I O N S  ***  (Basis and Fit)  ***
 ================================
  

 Atom Type    1  (H)
 ==============

 Valence Basis Sets:   5
 -----------------------
   1 S    0.690000
   1 S    0.920000
   1 S    1.580000
   2 P    1.250000
   3 D    2.500000

 Atom Type    2  (C)
 ==============

 Valence Basis Sets:  10
 -----------------------
   1 S    7.680000
   1 S    5.000000
   2 S    1.280000
   2 S    2.100000
   2 S    4.600000
   2 P    0.820000
   2 P    1.480000
   2 P    2.940000
   3 D    2.200000
   4 F    3.300000

 Atom Type    3  (O)
 ==============

 Valence Basis Sets:  10
 -----------------------
   1 S    9.800000
   1 S    6.800000
   2 S    7.580000
   2 S    2.880000
   2 S    1.720000
   2 P    4.080000
   2 P    2.080000
   2 P    1.120000
   3 D    2.000000
   4 F    3.000000

 Atom Type    4  (B)
 ==============

 Valence Basis Sets:  10
 -----------------------
   1 S    6.500000
   1 S    4.080000
   2 S    2.800000
   2 S    1.700000
   2 S    1.040000
   2 P    2.600000
   2 P    1.260000
   2 P    0.680000
   3 D    2.000000
   4 F    3.000000

 Atom Type    5  (F)
 ==============

 Valence Basis Sets:  10
 -----------------------
   1 S   10.880000
   1 S    7.700000
   2 S    3.240000
   2 S    1.940000
   2 S    0.740000
   2 P    4.540000
   2 P    2.300000
   2 P    1.240000
   3 D    2.000000
   4 F    3.000000


 BAS: List of all Elementary Cartesian Basis Functions
 =====================================================

 The numbering in the list below (to the right of the function characteristics) is referred
 to in print-outs of MO eigenvectors and Mulliken populations in the BAS representation
 (as contrasted to the SFO representation).

 Notes:
 1. The functions are characterized by a polynomial prefactor (powers of x,y,z and r) and
    an exponential decay factor alpha.
 2. Since the basis sets are specific for an atom TYPE, the individual functions occur on
    all atoms of that type.
 3. The word 'Core' in the left margin signals that it is a Core Function (CF) : not a
    degree of freedom in the valence set, but only used to ensure orthogonalization of
    the other valence basis functions on the frozen Core Orbitals.


 (power of) X  Y  Z  R     Alpha  on Atom
            ==========     =====     ==========

 H                                    1    2    3    4
                                  ---------------------------------------------------------------------------
            0  0  0  0     0.690      1   13   25   37
            0  0  0  0     0.920      2   14   26   38
            0  0  0  0     1.580      3   15   27   39
            1  0  0  0     1.250      4   16   28   40
            0  1  0  0     1.250      5   17   29   41
            0  0  1  0     1.250      6   18   30   42
            2  0  0  0     2.500      7   19   31   43
            1  1  0  0     2.500      8   20   32   44
            1  0  1  0     2.500      9   21   33   45
            0  2  0  0     2.500     10   22   34   46
            0  1  1  0     2.500     11   23   35   47
            0  0  2  0     2.500     12   24   36   48

 C                                    5    6    7
                                  ---------------------------------------------------------------------------
            0  0  0  0     7.680     49   79  109
            0  0  0  0     5.000     50   80  110
            0  0  0  1     1.280     51   81  111
            0  0  0  1     2.100     52   82  112
            0  0  0  1     4.600     53   83  113
            1  0  0  0     0.820     54   84  114
            0  1  0  0     0.820     55   85  115
            0  0  1  0     0.820     56   86  116
            1  0  0  0     1.480     57   87  117
            0  1  0  0     1.480     58   88  118
            0  0  1  0     1.480     59   89  119
            1  0  0  0     2.940     60   90  120
            0  1  0  0     2.940     61   91  121
            0  0  1  0     2.940     62   92  122
            2  0  0  0     2.200     63   93  123
            1  1  0  0     2.200     64   94  124
            1  0  1  0     2.200     65   95  125
            0  2  0  0     2.200     66   96  126
            0  1  1  0     2.200     67   97  127
            0  0  2  0     2.200     68   98  128
            3  0  0  0     3.300     69   99  129
            2  1  0  0     3.300     70  100  130
            2  0  1  0     3.300     71  101  131
            1  2  0  0     3.300     72  102  132
            1  1  1  0     3.300     73  103  133
            1  0  2  0     3.300     74  104  134
            0  3  0  0     3.300     75  105  135
            0  2  1  0     3.300     76  106  136
            0  1  2  0     3.300     77  107  137
            0  0  3  0     3.300     78  108  138

 O                                    8
                                  ---------------------------------------------------------------------------
            0  0  0  0     9.800    139
            0  0  0  0     6.800    140
            0  0  0  1     7.580    141
            0  0  0  1     2.880    142
            0  0  0  1     1.720    143
            1  0  0  0     4.080    144
            0  1  0  0     4.080    145
            0  0  1  0     4.080    146
            1  0  0  0     2.080    147
            0  1  0  0     2.080    148
            0  0  1  0     2.080    149
            1  0  0  0     1.120    150
            0  1  0  0     1.120    151
            0  0  1  0     1.120    152
            2  0  0  0     2.000    153
            1  1  0  0     2.000    154
            1  0  1  0     2.000    155
            0  2  0  0     2.000    156
            0  1  1  0     2.000    157
            0  0  2  0     2.000    158
            3  0  0  0     3.000    159
            2  1  0  0     3.000    160
            2  0  1  0     3.000    161
            1  2  0  0     3.000    162
            1  1  1  0     3.000    163
            1  0  2  0     3.000    164
            0  3  0  0     3.000    165
            0  2  1  0     3.000    166
            0  1  2  0     3.000    167
            0  0  3  0     3.000    168

 B                                    9
                                  ---------------------------------------------------------------------------
            0  0  0  0     6.500    169
            0  0  0  0     4.080    170
            0  0  0  1     2.800    171
            0  0  0  1     1.700    172
            0  0  0  1     1.040    173
            1  0  0  0     2.600    174
            0  1  0  0     2.600    175
            0  0  1  0     2.600    176
            1  0  0  0     1.260    177
            0  1  0  0     1.260    178
            0  0  1  0     1.260    179
            1  0  0  0     0.680    180
            0  1  0  0     0.680    181
            0  0  1  0     0.680    182
            2  0  0  0     2.000    183
            1  1  0  0     2.000    184
            1  0  1  0     2.000    185
            0  2  0  0     2.000    186
            0  1  1  0     2.000    187
            0  0  2  0     2.000    188
            3  0  0  0     3.000    189
            2  1  0  0     3.000    190
            2  0  1  0     3.000    191
            1  2  0  0     3.000    192
            1  1  1  0     3.000    193
            1  0  2  0     3.000    194
            0  3  0  0     3.000    195
            0  2  1  0     3.000    196
            0  1  2  0     3.000    197
            0  0  3  0     3.000    198

 F                                   10   11   12
                                  ---------------------------------------------------------------------------
            0  0  0  0    10.880    199  229  259
            0  0  0  0     7.700    200  230  260
            0  0  0  1     3.240    201  231  261
            0  0  0  1     1.940    202  232  262
            0  0  0  1     0.740    203  233  263
            1  0  0  0     4.540    204  234  264
            0  1  0  0     4.540    205  235  265
            0  0  1  0     4.540    206  236  266
            1  0  0  0     2.300    207  237  267
            0  1  0  0     2.300    208  238  268
            0  0  1  0     2.300    209  239  269
            1  0  0  0     1.240    210  240  270
            0  1  0  0     1.240    211  241  271
            0  0  1  0     1.240    212  242  272
            2  0  0  0     2.000    213  243  273
            1  1  0  0     2.000    214  244  274
            1  0  1  0     2.000    215  245  275
            0  2  0  0     2.000    216  246  276
            0  1  1  0     2.000    217  247  277
            0  0  2  0     2.000    218  248  278
            3  0  0  0     3.000    219  249  279
            2  1  0  0     3.000    220  250  280
            2  0  1  0     3.000    221  251  281
            1  2  0  0     3.000    222  252  282
            1  1  1  0     3.000    223  253  283
            1  0  2  0     3.000    224  254  284
            0  3  0  0     3.000    225  255  285
            0  2  1  0     3.000    226  256  286
            0  1  2  0     3.000    227  257  287
            0  0  3  0     3.000    228  258  288

 Total number of charge fitting functions (nprimf)       875
 Total number of Cartesian basis functions (naos)        288
 Total number of Cartesian core functions  (ncos)          0

1
 ***************************************************************************************************



                                              ***********************
                                              *  T E C H N I C A L  *
                                              ***********************
  



 =============================================================
 P A R A L L E L I Z A T I O N  and  V E C T O R I Z A T I O N
 =============================================================
  
 Nr of parallel processes:                                4
 Maximum vector length in NumInt loops:                 128



 =====================
 S C F   U P D A T E S
 =====================
  
 Max. nr. of cycles:                                99
 Convergence criterion:                              0.0000010000
   secondary criterion:                              0.0010000000

 Mix parameter (when DIIS does not apply):           0.2000000000
 Mixed ADIIS+SDIIS will be used                  
    Max number of expansion vectors:                10
    Pure ADIIS when Max([F,P]) is above              0.1000000000
    Pure SDIIS when Max([F,P]) is below              0.0010000000
 Automatic ElectronSmearing (in case of problematic SCF convergence) disabled



 =================
 P R E C I S I O N  ***  (General: NumInt, NeglectFunctionTails, ...)  ***
 =================
  

 NumInt:           Target precision:                 8.0000000000
 -------           Initial precision:                8.0000000000
                   Min. precision (optimization):    8.0000000000

 Neglect Functions:          Basis functions:        0.1000000000E-09
 ------------------          Fit functions:          0.1000000000E-09



 ===========================
 L I N E A R   S C A L I N G
 ===========================
  

 Cut-off radii density fit:                        0.1000000000E-11
 Overlap cut-off criterion AO matrix elements:     0.1000000000E-09
 Cut-offs for Coulomb potential and fitted density:0.1000000000E-11
 Cut-off criterion for Coulomb multipole terms:    0.1000000000E-11
 Progressive Convergence parameter:                 0.000000000    

 Number of elements of the density matrix on this node (used, total):     11109     41616



 ===========================================
 Numerical Integration : Fuzzy Cells (Becke)
 ===========================================
  
 Becke grid quality: VERYGOOD       
  
 Lebedev angular grid order:             min:  13 max:  41
 Nr. of radial points:                   min:  64 max:  76

 Total nr. of points:     296302
 Nr. of blocks:             2315
 Block length:               128
[...]
    10     F       0.333495  -0.190039   0.438509
    11     F       0.332300   0.139626  -0.421555
    12     F      -0.461743   0.018308   0.025702
 
 Mode:    17      Frequency (cm-1):      530.1878     Intensity (km/mol):        8.0252
 Index  Atom      ---- Displacements (x/y/z) ----
     1     H      -0.014529   0.087242  -0.367054
     2     C      -0.001089   0.007033  -0.028920
     3     C       0.005547  -0.032696   0.139393
     4     C       0.000936  -0.003625   0.014027
     5     O      -0.001756   0.007527  -0.032206
     6     H       0.016803  -0.103234   0.438224
     7     H      -0.028457   0.160720  -0.686573
     8     H      -0.011924   0.083738  -0.355762
     9     B       0.000058  -0.000028  -0.000014
    10     F      -0.000269  -0.000018   0.000015
    11     F       0.000158  -0.000093   0.000212
    12     F       0.000170   0.000169  -0.000224
 
 Mode:    18      Frequency (cm-1):      654.1498     Intensity (km/mol):      126.2749
 Index  Atom      ---- Displacements (x/y/z) ----
     1     H      -0.015287   0.039227   0.011035
     2     C      -0.006814   0.008616   0.002043
     3     C       0.018471   0.038243   0.008673
     4     C       0.031819  -0.013138  -0.005224
     5     O      -0.029042  -0.011068   0.001178
     6     H      -0.098266   0.014987   0.007602
     7     H       0.030523  -0.080207  -0.020108
     8     H       0.034322  -0.016278  -0.007618
     9     B       0.061937   0.870451   0.332589
    10     F      -0.023763  -0.176137  -0.051732
    11     F      -0.020321  -0.164798  -0.081593
    12     F       0.007765  -0.173218  -0.063384
 
 Mode:    19      Frequency (cm-1):      666.2658     Intensity (km/mol):        7.9870
 Index  Atom      ---- Displacements (x/y/z) ----
     1     H       0.100944  -0.231086  -0.060422
     2     C       0.016756  -0.061004  -0.015077
     3     C      -0.123975  -0.216847  -0.045686
     4     C      -0.144527   0.139672   0.038305
     5     O       0.167676   0.088469   0.014529
     6     H       0.644325  -0.103986  -0.048953
     7     H      -0.220047   0.496977   0.123278
     8     H      -0.189033   0.095394   0.027772
     9     B       0.002731   0.033570   0.012787
    10     F      -0.001142  -0.007061  -0.001625
    11     F      -0.000828  -0.006434  -0.003506
    12     F       0.000397  -0.006812  -0.002537
 
 Mode:    20      Frequency (cm-1):      850.5974     Intensity (km/mol):        0.6157
 Index  Atom      ---- Displacements (x/y/z) ----
     1     H      -0.003462  -0.001237  -0.000510
     2     C      -0.003115  -0.000513   0.000088
     3     C      -0.002524  -0.001041  -0.000021
     4     C       0.005786   0.001804  -0.000048
     5     O      -0.000014   0.001317   0.000697
     6     H       0.006143  -0.000941  -0.000613
     7     H      -0.006634   0.007458   0.001339
     8     H       0.005935   0.000611   0.000183
     9     B      -0.002380   0.047460   0.019692
    10     F       0.346577   0.133192  -0.442506
    11     F       0.224768  -0.213073   0.486542
    12     F      -0.570152   0.050799  -0.056067
 
 Mode:    21      Frequency (cm-1):      907.5865     Intensity (km/mol):       57.8550
 Index  Atom      ---- Displacements (x/y/z) ----
     1     H       0.412798   0.099763   0.010582
     2     C       0.182893  -0.019003  -0.011352
     3     C       0.151318   0.105054   0.019174
     4     C      -0.362722   0.038045   0.022693
     5     O       0.014389  -0.066003  -0.016147
     6     H      -0.061736  -0.009263   0.000569
     7     H       0.334644  -0.348782  -0.098943
     8     H      -0.576780  -0.180048  -0.022271
     9     B       0.001858   0.003795   0.001258
    10     F       0.000661  -0.000399  -0.000789
    11     F       0.000594  -0.000990   0.000673
    12     F      -0.002216  -0.000372  -0.000454
 
 Mode:    22      Frequency (cm-1):      992.2435     Intensity (km/mol):        9.0110
 Index  Atom      ---- Displacements (x/y/z) ----
     1     H      -0.008881   0.062402  -0.262887
     2     C      -0.006408   0.036653  -0.155738
     3     C       0.002591  -0.013809   0.059527
     4     C       0.001326  -0.010535   0.044766
     5     O      -0.000471   0.002590  -0.011479
     6     H       0.020208  -0.110137   0.465277
     7     H       0.032953  -0.182108   0.772959
     8     H      -0.007185   0.042032  -0.180904
     9     B       0.000180   0.000335  -0.000876
    10     F      -0.000202  -0.000046   0.000270
    11     F       0.000141  -0.000162   0.000306
    12     F      -0.000041   0.000022  -0.000052
 
 Mode:    23      Frequency (cm-1):     1001.6640     Intensity (km/mol):       22.1453
 Index  Atom      ---- Displacements (x/y/z) ----
     1     H      -0.022660   0.152882  -0.644712
     2     C       0.001646  -0.011486   0.047757
     3     C       0.001104  -0.003478   0.016639
     4     C       0.003144  -0.020569   0.086881
     5     O      -0.001038   0.005073  -0.022461
     6     H      -0.024846   0.152307  -0.646028
     7     H       0.004520  -0.030367   0.136829
     8     H      -0.010947   0.067212  -0.289432
     9     B      -0.000330  -0.000368   0.001482
    10     F       0.000368   0.000022  -0.000532
    11     F      -0.000222   0.000257  -0.000453
    12     F       0.000059  -0.000038   0.000051
 
 Mode:    24      Frequency (cm-1):     1014.1618     Intensity (km/mol):        7.3512
 Index  Atom      ---- Displacements (x/y/z) ----
     1     H       0.019058  -0.123680   0.521813
     2     C       0.000684  -0.004015   0.016935
     3     C      -0.005392   0.031212  -0.132894
     4     C       0.007341  -0.044721   0.190010
     5     O      -0.001644   0.010379  -0.043540
     6     H       0.004924  -0.027787   0.117435
     7     H      -0.002221   0.012476  -0.053321
     8     H      -0.027493   0.182053  -0.775519
     9     B      -0.000030   0.000262  -0.000177
    10     F      -0.000024  -0.000057  -0.000030
    11     F       0.000055  -0.000051   0.000104
    12     F       0.000011   0.000003  -0.000030
 
 Mode:    25      Frequency (cm-1):     1047.8536     Intensity (km/mol):        3.6108
 Index  Atom      ---- Displacements (x/y/z) ----
     1     H       0.598910   0.082835   0.000128
     2     C      -0.100559  -0.071409  -0.012784
     3     C       0.072443   0.125335   0.026461
     4     C       0.027375  -0.023617  -0.007000
     5     O      -0.042801  -0.043051  -0.008450
     6     H       0.476878  -0.105641  -0.041510
     7     H      -0.325451   0.462306   0.120161
     8     H      -0.059917  -0.117196  -0.024364
     9     B      -0.000256  -0.001085  -0.000344
    10     F      -0.000102   0.000190   0.000207
    11     F      -0.000086   0.000300  -0.000074
    12     F       0.000213   0.000141   0.000076
 
 Mode:    26      Frequency (cm-1):     1285.4931     Intensity (km/mol):        2.6225
 Index  Atom      ---- Displacements (x/y/z) ----
     1     H      -0.817888   0.176897   0.073172
     2     C       0.025229  -0.115444  -0.028207
     3     C       0.017707   0.102342   0.023622
     4     C      -0.002336  -0.001196  -0.000217
     5     O      -0.000174   0.018558   0.004383
     6     H       0.459388  -0.154526  -0.055316
     7     H       0.004869  -0.032969  -0.008128
     8     H      -0.126033  -0.111540  -0.021310
     9     B      -0.002092  -0.000569   0.000019
    10     F       0.000263   0.000187  -0.000314
    11     F       0.000077   0.000025   0.000161
    12     F       0.000820   0.000004   0.000099
 
 Mode:    27      Frequency (cm-1):     1388.9906     Intensity (km/mol):      401.8576
 Index  Atom      ---- Displacements (x/y/z) ----
     1     H       0.000800  -0.001639  -0.009100
     2     C      -0.000706   0.000706   0.001960
     3     C      -0.002053  -0.002614  -0.000110
     4     C       0.007717  -0.002537  -0.001105
     5     O      -0.002020   0.006470   0.004723
     6     H       0.005331   0.005492  -0.021111
     7     H       0.003464  -0.008793  -0.006212
     8     H      -0.047485  -0.058757  -0.021034
     9     B       0.276760   0.294011  -0.819875
    10     F      -0.174509  -0.074855   0.237077
    11     F       0.078543  -0.090689   0.215793
    12     F      -0.063835  -0.004093   0.020837
 
 Mode:    28      Frequency (cm-1):     1392.1383     Intensity (km/mol):        6.5130
 Index  Atom      ---- Displacements (x/y/z) ----
     1     H       0.027192   0.047510   0.009975
     2     C      -0.016742  -0.002168   0.000240
     3     C      -0.018867   0.043028   0.010828
     4     C      -0.069071   0.010041   0.004895
     5     O       0.017407  -0.071287  -0.017345
     6     H       0.274767  -0.028168  -0.018455
     7     H       0.076162  -0.195112  -0.049153
     8     H       0.592202   0.698539   0.142334
     9     B      -0.035288   0.009046  -0.015831
    10     F       0.002439   0.000204  -0.001233
    11     F       0.004909  -0.003889   0.008780
    12     F       0.013092  -0.001423   0.001654
 
 Mode:    29      Frequency (cm-1):     1397.0427     Intensity (km/mol):      405.2891
 Index  Atom      ---- Displacements (x/y/z) ----
     1     H       0.098991   0.011115  -0.000213
     2     C      -0.013801   0.011247   0.003113
     3     C      -0.046111   0.020776   0.006701
     4     C      -0.004139  -0.001231   0.000072
     5     O       0.001918  -0.016258  -0.004830
     6     H       0.301662  -0.017638  -0.014848
     7     H       0.123439  -0.286304  -0.072401
     8     H       0.179562   0.183977   0.037223
     9     B       0.743083  -0.129912   0.202879
    10     F      -0.072697  -0.015335   0.056232
    11     F      -0.086519   0.062794  -0.143379
    12     F      -0.269876   0.027835  -0.029931
 
 Mode:    30      Frequency (cm-1):     1403.8005     Intensity (km/mol):       16.7960
 Index  Atom      ---- Displacements (x/y/z) ----
     1     H       0.318934  -0.023869  -0.018053
     2     C      -0.009792   0.037647   0.009422
     3     C      -0.125029   0.013193   0.008008
     4     C       0.066373  -0.007442  -0.004233
     5     O      -0.010974   0.024606   0.006228
     6     H       0.542888  -0.015603  -0.026521
     7     H       0.289085  -0.615250  -0.157280
     8     H      -0.158058  -0.250559  -0.052923
     9     B      -0.035833   0.003939  -0.006661
    10     F       0.004026   0.001160  -0.003346
    11     F       0.003727  -0.002351   0.005799
    12     F       0.012816  -0.001196   0.001343
 
 Mode:    31      Frequency (cm-1):     1615.1208     Intensity (km/mol):       86.1674
 Index  Atom      ---- Displacements (x/y/z) ----
     1     H       0.318164   0.143042   0.020818
     2     C       0.312397  -0.195066  -0.058617
     3     C      -0.364695   0.160058   0.052146
     4     C       0.112447   0.146307   0.030253
     5     O      -0.038676  -0.112799  -0.025070
     6     H      -0.528511  -0.165291  -0.017459
     7     H       0.070418   0.449306   0.104176
     8     H       0.036731   0.039655   0.007514
     9     B       0.004653  -0.001896  -0.000864
    10     F      -0.000826   0.000051   0.000810
    11     F      -0.000475   0.000486  -0.000360
    12     F      -0.001351   0.000470   0.000032
 
 Mode:    32      Frequency (cm-1):     1729.4674     Intensity (km/mol):      133.8813
 Index  Atom      ---- Displacements (x/y/z) ----
     1     H      -0.353400  -0.107314  -0.011561
     2     C      -0.121384   0.091098   0.026348
     3     C       0.144297  -0.121580  -0.034301
     4     C       0.153831   0.545654   0.122530
     5     O      -0.093889  -0.362794  -0.081718
     6     H       0.195673   0.096126   0.014675
     7     H      -0.010557  -0.230767  -0.054475
     8     H      -0.444461  -0.132390  -0.015806
     9     B       0.000951  -0.004080  -0.001872
    10     F      -0.000393   0.000631   0.000775
    11     F      -0.000164   0.000886   0.000004
    12     F      -0.000080   0.000747   0.000298
 
 Mode:    33      Frequency (cm-1):     2835.1577     Intensity (km/mol):      149.9939
 Index  Atom      ---- Displacements (x/y/z) ----
     1     H       0.006460  -0.040234  -0.009794
     2     C       0.000151   0.000130   0.000026
     3     C      -0.001192   0.002370   0.000608
     4     C       0.062792  -0.051942  -0.014466
     5     O      -0.001145  -0.002177  -0.000478
     6     H      -0.002088   0.005649   0.001420
     7     H       0.002609  -0.001647  -0.000481
     8     H      -0.724268   0.658832   0.180856
     9     B       0.000246   0.000269   0.000119
    10     F      -0.000030  -0.000048  -0.000017
    11     F      -0.000026  -0.000045  -0.000017
    12     F      -0.000076  -0.000028  -0.000021
 
 Mode:    34      Frequency (cm-1):     3102.5374     Intensity (km/mol):        6.5750
 Index  Atom      ---- Displacements (x/y/z) ----
     1     H      -0.038145  -0.404421  -0.094288
     2     C      -0.049157   0.031251   0.009474
     3     C       0.007397   0.031294   0.007121
     4     C      -0.001250   0.001840   0.000478
     5     O       0.000104  -0.000629  -0.000152
     6     H      -0.062052  -0.605748  -0.140573
     7     H       0.600655   0.262116   0.036280
     8     H       0.009806  -0.008655  -0.002374
     9     B       0.000057  -0.000007   0.000009
    10     F      -0.000007   0.000001  -0.000001
    11     F      -0.000006   0.000002  -0.000003
    12     F      -0.000009   0.000005   0.000002
 
 Mode:    35      Frequency (cm-1):     3116.3092     Intensity (km/mol):        9.9244
 Index  Atom      ---- Displacements (x/y/z) ----
     1     H      -0.080829  -0.868242  -0.202359
     2     C       0.021078  -0.026674  -0.007184
     3     C       0.002123   0.077431   0.018250
     4     C      -0.004639   0.001001   0.000402
     5     O       0.000120   0.000143   0.000031
     6     H       0.035867   0.360358   0.083679
     7     H      -0.208070  -0.090347  -0.012484
     8     H       0.030253  -0.020090  -0.005826
     9     B      -0.000060  -0.000073  -0.000034
    10     F       0.000006   0.000010   0.000008
    11     F       0.000005   0.000013   0.000004
    12     F       0.000015   0.000008   0.000005
 
 Mode:    36      Frequency (cm-1):     3200.2814     Intensity (km/mol):        2.2354
 Index  Atom      ---- Displacements (x/y/z) ----
     1     H      -0.007694  -0.100651  -0.023508
     2     C       0.060141   0.077405   0.015732
     3     C       0.000521   0.009805   0.002300
     4     C      -0.000334   0.000199   0.000057
     5     O      -0.000024  -0.000298  -0.000070
     6     H      -0.049800  -0.663979  -0.154811
     7     H      -0.660577  -0.272600  -0.036215
     8     H       0.000003   0.001072   0.000233
     9     B       0.000005  -0.000021   0.000003
    10     F       0.000003   0.000008  -0.000000
    11     F      -0.000001   0.000006  -0.000000
    12     F       0.000003   0.000005   0.000000

PES point character: Geometry corresponds to a local minimum on the PES.




 ============================
 Statistical Thermal Analysis  ***  ideal gas assumed  ***
 ============================
  
 Pressure:                  1.000000 atm.
 Temperature:             298.150000 K



 Moments of Inertia [amu*bohr^2] and principal axis
 ==================================================

         556.0117       2505.1056       2702.5923
 ------------------------------------------------
           0.3864          0.9213          0.0432
           0.8777         -0.3529         -0.3243
           0.2835         -0.1633          0.9450


 The rotational contribution to the molecular entropy includes
 a term, dependent on the symmetry number sigma. The results 
 reported below were computed using sigma = 1, determined from
 the point group symmetry of the input geometry (NOSYM). 
 If this is not the correct symmetry, try symmetrizing the molecule before
 running the calculation (note: linear molecules should be aligned along one
 of the Cartesian axes).
 Contributions from frequencies below 20 1/cm are not included in vibrational sums.
 Their contributions, if any, are reported separately.


     Temp                                                        Transl      Rotat     Vibrat     Total
     ----                                                        ------      -----     ------     -----

     298.15   Entropy (cal/mol-K):                               40.360     29.711     29.316     99.386
              Nuclear Internal Energy (kcal/mol):                 0.889      0.889     48.862     50.640
              Constant Volume Heat Capacity (cal/mol-K):          2.981      2.981     20.406     26.367
          (c) Constant Volume Heat Capacity (cal/mol-K):          2.981      2.981     18.431     24.393

 Contributions from frequencies below 20 1/cm
 Frequency (1/cm):                                   12.627     5.676
 Entropy (cal/mol-K):                                 7.548     9.136
 Nuclear Internal Energy (kcal/mol):                  0.593     0.593
 Constant Volume Heat Capacity (cal/mol-K):           1.987     1.987

       Summary of energy terms
                                                   hartree              eV         kcal/mol           kJ/mol
                                      --------------------     -----------       ----------      -----------
      Energy from Engine:               -2.518603619649556        -68.5347         -1580.45         -6612.59
      Nuclear Internal Energy:           0.080699756225535          2.1960            50.64           211.88
  (c) Nuclear Internal Energy:           0.079711652399558          2.1691            50.02           209.28
      Internal Energy U:                -2.437903863424021        -66.3387         -1529.81         -6400.72
      pV/n = RT:                         0.000944186013486          0.0257             0.59             2.48
      Enthalpy H:                       -2.436959677410535        -66.3130         -1529.22         -6398.24
      -T*S:                             -0.047221672172345         -1.2850           -29.63          -123.98
  (c) -T*S:                             -0.049406974524999         -1.3444           -31.00          -129.72
      Gibbs free energy:                -2.484181349582880        -67.5980         -1558.85         -6522.22
 
 
 
  (c) The properties marked with this symbol have been corrected using 'low vibrational frequency free rotor
      interpolation corrections'. For those terms all positive frequencies are used (also ones below 20 1/cm),
      but the contribution to the partition function of small vibrational frequencies is modified as described
      in the following paper:
      S. Grimme, 'Supramolecular Binding Thermodynamics by Dispersion-Corrected Density Functional Theory'
      (Chem. Eur. J. 2012, 18, 9955-9964)
      Configuration: Dampener Frequency          :   100.000 1/cm
                     Dampener Alpha              :     4.000
                     Averaging Moment of Inertia : 1.000E-44 kg m2

--------------
Atomic charges
--------------
  Index   Atom    Charge
      1      H   -0.2062
      2      C    0.5193
      3      C    0.1645
      4      C    0.6653
      5      O   -0.5077
      6      H   -0.1678
      7      H   -0.2147
      8      H   -0.2531
      9      B    1.5078
     10      F   -0.5034
     11      F   -0.5017
     12      F   -0.5023


Dipole moment vector    (Debye):    -1.83404125   -2.41352418   -0.54556804
              magnitude (Debye):     3.08000824


Final PES point is a local minimum. Geometry optimization successful!


AMS application finished. Exiting.
NORMAL TERMINATION
     Total cpu time:    4870.88
  Total system time:      50.26
 Total elapsed time:    9891.89
 WARNING: total elapsed time is much higher than the (CPU+system) time. 
 Make sure the machine is not oversubscribed and has enough memory, SCM_TMPDIR p
 oints to a fast file system, and the network is fast enough.
