

 Parallel Execution: Process Information
 ==============================================================================
 Rank   Node Name                              NodeID   MyNodeRank  NodeMaster
    0   node120                                   0          0          0
    1   node120                                   0          1         -1
    2   node120                                   0          2         -1
    3   node120                                   0          3         -1
 ==============================================================================


May use up to 122928MB of RAM as shared memory on node 0

 *******************************************************************************
 *                                                                             *
 *  --------------------------------                                           *
 *   Amsterdam Modeling Suite (AMS)              2021.102                      *
 *  --------------------------------                                           *
 *                                               r95042 2021-06-07             *
 *                                                                             *
 *                                                                             *
 *                              =================                              *
 *                              |               |                              *
 *                              |     A M S     |                              *
 *                              |               |                              *
 *                              =================                              *
 *                                                                             *
 *                                                                             *
 *   Online information and documentation:  https://www.scm.com/support/       *
 *   E-mail:  support@scm.com   info@scm.com                                   *
 *                                                                             *
 *   Scientific publications using AMS results must be properly referenced     *
 *   See the User Manuals (or the web site) for recommended citations          *
 *   The terms and conditions of the End User License Agreement apply to       *
 *   the use of AMS, https://www.scm.com/license-terms/                        *
 *                                                                             *
 **********************  x86_64_linux_intel / intelmpi  ************************
 
 Licensed to: VU/FEW (+ SARA) / ALGEMEEN / Amsterdam / THE NETHERLANDS
 SCM User ID: u7668
  
 AMS 2021.102  RunTime: Jan28-2022 10:52:13  ShM Nodes: 1  Procs: 4

 AMS jobname: 33.achiral_catalyst.H_tBu_AlF3.Rsub_cat_complex
 AMS jobid  : 393685737

 Start   directory: /scistor/tc/yhk800/MasterProject/calculations/achiral_catalyst_H_tBu_AlF3/33.achiral_catalyst.H_tBu_AlF3.Rsub_cat_complex/
 Results directory: /scistor/tc/yhk800/MasterProject/calculations/achiral_catalyst_H_tBu_AlF3/33.achiral_catalyst.H_tBu_AlF3.Rsub_cat_complex/
 Scratch directory: /scratch/5502/amstmp_33.achiral_catalyst.H_tBu_AlF3.Rsub_cat_complex_kid0.393685737/


 Communication costs MPI_COMM_WORLD:      0.897 usec per message,   0.0054 usec per 8-byte item
 Communication costs for intra-node:      0.887 usec per message,   0.0036 usec per 8-byte item

 RNG seed: 1104579465 884472190 231777070 405355052 688101990 -209430002 -306606892 -209887095



                      ************************************************************************
                      *  ADF 2021.102  RunTime: Jan28-2022 10:52:14  ShM Nodes: 1  Procs: 4  *
                      ************************************************************************
  
       ***************************
       *  GEOMETRY OPTIMIZATION  *
       ***************************

Optimization Method                    Quasi Newton
Optimization Coordinates               Delocalized Coordinates
Optimize lattice                       F
 
 ------------------------------------------------------
 Convergence criteria (Hartree,Angstrom)
 ------------------------------------------------------
 Maximum gradient               0.001000000000
 Maximum rms gradient           0.000666666667
 Maximum step allowed           0.010000000000
 Maximum rms step allowed       0.006666666667
 Maximum energy change allowe   0.000240000000
 Maximum stress energy allowe   0.000500000000
 
Initial model Hessian                  Automatic Hessian
 
------------------------------------
Quasi-Newton Optimizer Parameters
------------------------------------
Hessian Update Method                  BFGS
Maximum number of steps                  250
First GDIIS cycle                          0
Maximum GDIIS vectors                      0
Trust radius (bohr)                        0.200000
Trust radius varies                        T
Constraints converged at all steps         T
Use projector                              T
 
 Rigid motions settings for: old optimizer
 Atomic rotations (x,y,z):     T T T
 Atomic translations (x,y,z):  T T T
 Tolerance:                   1.000000000000000E-006
 
--------
Geometry
--------
Formula: C7H12AlF3O
Atoms
  Index Symbol   x (angstrom)   y (angstrom)   z (angstrom)
      1      H    -0.62056146    -0.03764738    -0.08023722
      2      C    -0.09659473    -2.02948020    -0.54883449
      3      C     0.18266548    -0.75219647    -0.26512258
      4      C     1.55928918    -0.22013974    -0.18291419
      5      O     1.86635738     0.93365884     0.07180470
      6      H     0.69695300    -2.74612423    -0.73626627
      7      C    -1.53512390    -3.98169459    -1.12156823
      8      C    -1.54987465    -2.53359044    -0.62266085
      9      C    -2.32371837    -1.63885453    -1.59566924
     10      C    -2.16108997    -2.45555144     0.77964353
     11      H    -2.14765732    -1.42687928     1.14159999
     12      H    -2.55099094    -4.37493076    -1.18722103
     13      H    -0.96277866    -4.61120054    -0.43929077
     14      H    -1.07715113    -4.03683810    -2.10978859
     15      H    -3.36175531    -1.96622602    -1.67465053
     16      H    -1.87118027    -1.67785219    -2.58715690
     17      H    -2.31140649    -0.60455404    -1.25008242
     18      H    -3.19455491    -2.80588288     0.76743983
     19      H    -1.59305862    -3.07453987     1.47502332
     20      H     2.32514145    -0.94333367    -0.37095895
     21     Al     1.85103070     2.46611042     0.80757453
     22      F     1.06246720     1.84844950     2.07760404
     23      F     1.02232412     3.06059473    -0.44787207
     24      F     3.46830079     2.48928704     0.79299163
 
Total System Charge             0.00000
 
 
----------------
ADF Engine Input
----------------
 
 NumericalQuality VeryGood
 SCF
 Converge 1.0e-6
 Iterations 99
 End
 SYMMETRY NOSYM
 XC
 GGA OLYP
 End
 basis
 core None
 type TZ2P
 End
 

 Title: *** (NO TITLE) ***

 Using automatic Hessian for delocalized coordinates.
 *** GOStep1 ***

 Energy gradients wrt nuclear displacements
 ==========================================

     Atom      Cartesian (a.u./angstrom)
                 X         Y         Z
 ----------------------------------------
     1 H    -0.007880  0.000407 -0.000388
     2 C     0.029812  0.006687  0.000365
     3 C    -0.033794 -0.046715 -0.010919
     4 C     0.067298  0.019336  0.004373
     5 O    -0.002538  0.152136  0.067507
     6 H    -0.006645  0.002681 -0.000131
     7 C     0.002246 -0.001746 -0.000643
     8 C    -0.029145  0.003808  0.005890
     9 C     0.002140 -0.003124  0.001909
    10 C    -0.000677 -0.002279 -0.005491
    11 H     0.002852 -0.000430 -0.005375
    12 H     0.001750  0.003551  0.001131
    13 H    -0.001109  0.006402 -0.001399
    14 H    -0.000638  0.004245  0.005045
    15 H     0.003631  0.000884  0.000315
    16 H     0.001280 -0.002346  0.005274
    17 H     0.005783 -0.002327  0.004655
    18 H     0.003610  0.001803  0.000181
    19 H     0.000537  0.001456 -0.006272
    20 H    -0.037716  0.025736  0.009567
    21 Al   -0.004879 -0.029577 -0.005647
    22 F     0.041366 -0.011649 -0.089522
    23 F     0.043472 -0.077944  0.043924
    24 F    -0.080755 -0.050993 -0.024350
 ----------------------------------------
 Mulliken charges used for AMS results%charges...
 
----------------------------------------------------------------------
Geometry Convergence after Step   1       (Hartree/Angstrom,Angstrom)
----------------------------------------------------------------------
current energy                               -4.76245793 Hartree
energy change                      -4.76245793     0.00024000    F
constrained gradient max            0.15215179     0.00100000    F
constrained gradient rms            0.03139570     0.00066667    F
gradient max                        0.15215179
gradient rms                        0.03139570
cart. step max                      0.15619526     0.01000000    F
cart. step rms                      0.03944597     0.00666667    F
 
 
--------
Geometry
--------
Formula: C7H12AlF3O
Atoms
  Index Symbol   x (angstrom)   y (angstrom)   z (angstrom)
      1      H    -0.60390480    -0.02188898    -0.08506078
      2      C    -0.11845077    -2.03236155    -0.55431534
      3      C     0.18094748    -0.75357598    -0.27309272
      4      C     1.56291816    -0.25819441    -0.20115980
      5      O     1.89293664     0.89464564     0.05031709
      6      H     0.67527439    -2.75135132    -0.74140420
      7      C    -1.53690974    -4.00103123    -1.12595199
      8      C    -1.56623787    -2.54924400    -0.62854062
      9      C    -2.35422756    -1.66516061    -1.60698507
     10      C    -2.18058098    -2.47506326     0.77743808
     11      H    -2.18131582    -1.44662343     1.14189661
     12      H    -2.54900908    -4.40590460    -1.19129083
     13      H    -0.95852178    -4.62686968    -0.44337645
     14      H    -1.07878971    -4.05650404    -2.11545610
     15      H    -3.38849984    -2.00787329    -1.68293610
     16      H    -1.90429242    -1.70067880    -2.60091564
     17      H    -2.35944648    -0.62777301    -1.27005259
     18      H    -3.21085716    -2.83757329     0.76336179
     19      H    -1.60836142    -3.08677477     1.47755800
     20      H     2.32336029    -1.00232949    -0.39368792
     21     Al     1.90968579     2.46907050     0.79915861
     22      F     1.10816867     1.99832294     2.14696248
     23      F     1.08408256     3.21678999    -0.40048175
     24      F     3.53906402     2.60853085     0.85140247
 
Total System Charge             0.00000
 
 *** GOStep2 ***

 Energy gradients wrt nuclear displacements
 ==========================================

     Atom      Cartesian (a.u./angstrom)
                 X         Y         Z
 ----------------------------------------
     1 H    -0.005247 -0.000176 -0.000401
     2 C     0.026451  0.004794  0.000206
     3 C    -0.028921 -0.035158 -0.007819
     4 C     0.056084  0.022424  0.003960
     5 O    -0.004953  0.091111  0.039885
     6 H    -0.005581  0.001474 -0.000401
     7 C     0.001601 -0.001927 -0.001017
     8 C    -0.026779  0.001400  0.005399
     9 C     0.000947 -0.002353  0.001194
    10 C    -0.001121 -0.001905 -0.004493
    11 H     0.002479 -0.000356 -0.004081
    12 H     0.000972  0.002523  0.000817
    13 H    -0.000464  0.004921 -0.000888
    14 H    -0.000136  0.003347  0.003638
    15 H     0.002251  0.000877  0.000051
    16 H     0.001334 -0.001596  0.003863
    17 H     0.004692 -0.002146  0.003196
    18 H     0.002256  0.001453  0.000505
    19 H     0.000804  0.001077 -0.004603
    20 H    -0.026178  0.015111  0.006409
    21 Al   -0.003555 -0.020751 -0.002477
    22 F     0.024419 -0.007943 -0.052828
    23 F     0.024725 -0.046643  0.024475
    24 F    -0.046078 -0.029559 -0.014591
 ----------------------------------------
 Mulliken charges used for AMS results%charges...

 dE(predicted):    -0.32504E-01, dE(actual):    -0.30465E-01, Trust radius:    0.400000, all in a.u.
 
----------------------------------------------------------------------
Geometry Convergence after Step   2       (Hartree/Angstrom,Angstrom)
----------------------------------------------------------------------
current energy                               -4.79292272 Hartree
energy change                      -0.03046480     0.00024000    F
constrained gradient max            0.09112309     0.00100000    F
constrained gradient rms            0.02003794     0.00066667    F
gradient max                        0.09112309
gradient rms                        0.02003794
cart. step max                      0.21072030     0.01000000    F
cart. step rms                      0.06231513     0.00666667    F
 
 
--------
Geometry
--------
Formula: C7H12AlF3O
Atoms
  Index Symbol   x (angstrom)   y (angstrom)   z (angstrom)
      1      H    -0.56422502     0.05689899    -0.08395556
      2      C    -0.15766149    -1.98851994    -0.57034278
      3      C     0.17811268    -0.71251620    -0.28193725
      4      C     1.56779163    -0.31588652    -0.20594230
      5      O     1.95047778     0.83216053     0.03947999
      6      H     0.64619867    -2.70364349    -0.74836086
      7      C    -1.51238073    -4.00612455    -1.13783149
      8      C    -1.58025401    -2.55003206    -0.63856341
      9      C    -2.43444876    -1.70535678    -1.60963647
     10      C    -2.19244916    -2.51107308     0.77951366
     11      H    -2.25318198    -1.48965003     1.16178210
     12      H    -2.51320064    -4.44272193    -1.19037672
     13      H    -0.91060758    -4.62500501    -0.46546056
     14      H    -1.06981110    -4.05896893    -2.13701165
     15      H    -3.44650720    -2.11603208    -1.66638487
     16      H    -2.00804138    -1.71250635    -2.61652332
     17      H    -2.51296510    -0.66668550    -1.28273846
     18      H    -3.20393740    -2.92702459     0.75781420
     19      H    -1.59799151    -3.10067903     1.48318199
     20      H     2.31608254    -1.09511569    -0.40946608
     21     Al     1.99287265     2.47713116     0.78401774
     22      F     1.06332562     2.19044554     2.13645510
     23      F     1.29480286     3.37571393    -0.43090923
     24      F     3.62503119     2.67577578     1.02658344
 
Total System Charge             0.00000
 
 *** GOStep3 ***

 Energy gradients wrt nuclear displacements
 ==========================================

     Atom      Cartesian (a.u./angstrom)
                 X         Y         Z
 ----------------------------------------
     1 H    -0.001385 -0.000391  0.000129
     2 C     0.017960  0.006001 -0.002284
     3 C    -0.010516 -0.008009 -0.003894
     4 C     0.025260  0.003223  0.007075
     5 O    -0.010259  0.046632  0.016128
     6 H    -0.002744 -0.000382 -0.000235
     7 C     0.000280 -0.000709 -0.000215
     8 C    -0.016198 -0.001690  0.005009
     9 C    -0.000084 -0.001360  0.000218
    10 C    -0.000359 -0.001338 -0.003614
    11 H     0.000705 -0.000360 -0.000844
    12 H     0.000215  0.000560  0.000181
    13 H     0.000015  0.001388 -0.000166
    14 H     0.000074  0.001020  0.001017
    15 H     0.000416  0.000513 -0.000072
    16 H     0.000367 -0.000229  0.000857
    17 H     0.001165 -0.001164  0.000155
    18 H     0.000461  0.000721  0.000522
    19 H     0.000309  0.000301 -0.001009
    20 H    -0.007153  0.001459  0.000367
    21 Al   -0.000689 -0.019085 -0.004536
    22 F     0.009022 -0.003571 -0.016048
    23 F     0.006144 -0.014315  0.007270
    24 F    -0.013004 -0.009216 -0.006012
 ----------------------------------------
 Mulliken charges used for AMS results%charges...

 dE(predicted):    -0.16154E-01, dE(actual):    -0.18220E-01, Trust radius:    0.400000, all in a.u.
 
----------------------------------------------------------------------
Geometry Convergence after Step   3       (Hartree/Angstrom,Angstrom)
----------------------------------------------------------------------
current energy                               -4.81114264 Hartree
energy change                      -0.01821991     0.00024000    F
constrained gradient max            0.04662700     0.00100000    F
constrained gradient rms            0.00873837     0.00066667    F
gradient max                        0.04662700
gradient rms                        0.00873837
cart. step max                      0.21243965     0.01000000    F
cart. step rms                      0.05211151     0.00666667    F
 
 
--------
Geometry
--------
Formula: C7H12AlF3O
Atoms
  Index Symbol   x (angstrom)   y (angstrom)   z (angstrom)
      1      H    -0.54056084     0.08182874    -0.09228548
      2      C    -0.16983122    -1.98627037    -0.55227049
      3      C     0.18180498    -0.70551088    -0.28992897
      4      C     1.56992453    -0.33936734    -0.27385509
      5      O     1.98831592     0.79432738    -0.00384690
      6      H     0.63983609    -2.69483747    -0.74066773
      7      C    -1.51005717    -4.00410420    -1.15524115
      8      C    -1.57702552    -2.55529727    -0.62772624
      9      C    -2.44854616    -1.69306921    -1.57289575
     10      C    -2.18254490    -2.54485685     0.79906692
     11      H    -2.25837028    -1.53152937     1.20158250
     12      H    -2.51124585    -4.44092546    -1.20786281
     13      H    -0.90453877    -4.63961419    -0.50042067
     14      H    -1.07761233    -4.04282137    -2.16056088
     15      H    -3.45549718    -2.11759039    -1.62981964
     16      H    -2.03397859    -1.66998466    -2.58524532
     17      H    -2.54209370    -0.66239672    -1.22198531
     18      H    -3.18873103    -2.97481496     0.76982011
     19      H    -1.58179289    -3.13998126     1.49381532
     20      H     2.31298112    -1.14190405    -0.43624807
     21     Al     1.99855733     2.47731384     0.75522865
     22      F     0.88704988     2.28161070     2.00036828
     23      F     1.49243323     3.44996706    -0.51465712
     24      F     3.58855591     2.68041247     1.23902309
 
Total System Charge             0.00000
 
 *** GOStep4 ***

 Energy gradients wrt nuclear displacements
 ==========================================

     Atom      Cartesian (a.u./angstrom)
                 X         Y         Z
 ----------------------------------------
     1 H    -0.000167 -0.000048 -0.000299
     2 C     0.008092  0.003353  0.005127
     3 C     0.000105 -0.000241  0.005736
     4 C     0.006816  0.003206 -0.020054
     5 O    -0.013326  0.021372  0.014655
     6 H    -0.000959 -0.000524 -0.001388
     7 C     0.000145 -0.000705 -0.000272
     8 C    -0.008128 -0.002777 -0.000207
     9 C     0.000877 -0.000143  0.000106
    10 C     0.001541  0.000807 -0.002665
    11 H    -0.000155  0.000001  0.000588
    12 H     0.000035 -0.000206 -0.000004
    13 H     0.000155 -0.000278  0.000054
    14 H     0.000089 -0.000146 -0.000157
    15 H    -0.000100  0.000091  0.000080
    16 H    -0.000039  0.000193 -0.000257
    17 H     0.000129  0.000433 -0.000276
    18 H    -0.000064  0.000234 -0.000070
    19 H     0.000068 -0.000014  0.000332
    20 H     0.000345 -0.003522  0.007339
    21 Al    0.002481 -0.020873 -0.006035
    22 F     0.001753  0.000020 -0.001981
    23 F     0.000368 -0.000204  0.000351
    24 F    -0.000061 -0.000027 -0.000704
 ----------------------------------------
 Mulliken charges used for AMS results%charges...

 dE(predicted):    -0.31066E-02, dE(actual):    -0.30907E-02, Trust radius:    0.400000, all in a.u.
 
----------------------------------------------------------------------
Geometry Convergence after Step   4       (Hartree/Angstrom,Angstrom)
----------------------------------------------------------------------
current energy                               -4.81423334 Hartree
energy change                      -0.00309071     0.00024000    F
constrained gradient max            0.02136683     0.00100000    F
constrained gradient rms            0.00538277     0.00066667    F
gradient max                        0.02136683
gradient rms                        0.00538277
cart. step max                      0.20921824     0.01000000    F
cart. step rms                      0.06775876     0.00666667    F
 
 
--------
Geometry
--------
Formula: C7H12AlF3O
Atoms
  Index Symbol   x (angstrom)   y (angstrom)   z (angstrom)
      1      H    -0.50716968     0.08381883    -0.04525427
      2      C    -0.17776913    -1.99028737    -0.53935337
      3      C     0.19567970    -0.72044956    -0.24249983
      4      C     1.58736594    -0.40693547    -0.16287579
      5      O     2.04166507     0.72986819     0.04201011
      6      H     0.63397909    -2.69911329    -0.72513432
      7      C    -1.51545893    -3.98157284    -1.21255715
      8      C    -1.57431203    -2.55494036    -0.62446294
      9      C    -2.46623018    -1.65630430    -1.51896182
     10      C    -2.16640667    -2.60763300     0.81197343
     11      H    -2.24736609    -1.61255391     1.25758881
     12      H    -2.51842473    -4.41436698    -1.26981262
     13      H    -0.90377519    -4.64695777    -0.59328907
     14      H    -1.09781331    -3.98177242    -2.22546462
     15      H    -3.46938038    -2.08996401    -1.58087675
     16      H    -2.06761507    -1.58327180    -2.53572043
     17      H    -2.56787363    -0.64323956    -1.12058067
     18      H    -3.16957940    -3.04489656     0.77132147
     19      H    -1.55689796    -3.22761522     1.47728056
     20      H     2.31779398    -1.20537080    -0.40574326
     21     Al     1.99648420     2.50335247     0.67925486
     22      F     0.72239488     2.45454483     1.79115005
     23      F     1.67837594     3.41473502    -0.70424858
     24      F     3.50936615     2.76151004     1.36964343
 
Total System Charge             0.00000
 
 *** GOStep5 ***

 Energy gradients wrt nuclear displacements
 ==========================================

     Atom      Cartesian (a.u./angstrom)
                 X         Y         Z
 ----------------------------------------
     1 H     0.000831  0.000094 -0.000843
     2 C    -0.002721  0.001056 -0.001415
     3 C     0.008001  0.007967 -0.006005
     4 C    -0.005102 -0.010740  0.023117
     5 O    -0.014658  0.008254 -0.005792
     6 H     0.000714  0.000087 -0.002597
     7 C     0.000671 -0.000037  0.000350
     8 C     0.001135 -0.002976  0.003558
     9 C     0.001941  0.000970 -0.000345
    10 C     0.000590  0.001056 -0.001602
    11 H    -0.000587  0.000156  0.001299
    12 H    -0.000195 -0.000404 -0.000098
    13 H     0.000129 -0.001140  0.000120
    14 H     0.000072 -0.000720 -0.000922
    15 H    -0.000373 -0.000547  0.000262
    16 H    -0.000311  0.000371 -0.000921
    17 H    -0.000556  0.001029 -0.000323
    18 H    -0.000676 -0.000096  0.000175
    19 H    -0.000158 -0.000285  0.000947
    20 H     0.004589 -0.001495 -0.007476
    21 Al    0.006324 -0.020886 -0.007033
    22 F    -0.005109  0.003095  0.006018
    23 F    -0.001750  0.009242 -0.005263
    24 F     0.007201  0.005949  0.004788
 ----------------------------------------
 Mulliken charges used for AMS results%charges...

 dE(predicted):    -0.22879E-02, dE(actual):    -0.85475E-03, Trust radius:    0.400000, all in a.u.
 
----------------------------------------------------------------------
Geometry Convergence after Step   5       (Hartree/Angstrom,Angstrom)
----------------------------------------------------------------------
current energy                               -4.81508809 Hartree
energy change                      -0.00085475     0.00024000    F
constrained gradient max            0.02312145     0.00100000    F
constrained gradient rms            0.00542618     0.00066667    F
gradient max                        0.02312145
gradient rms                        0.00542618
cart. step max                      0.20930106     0.01000000    F
cart. step rms                      0.05287504     0.00666667    F
 
 
--------
Geometry
--------
Formula: C7H12AlF3O
Atoms
  Index Symbol   x (angstrom)   y (angstrom)   z (angstrom)
      1      H    -0.48007099     0.08382572    -0.05366492
      2      C    -0.16872039    -1.98984287    -0.55728892
      3      C     0.21655000    -0.72262657    -0.26415217
      4      C     1.61265342    -0.41430735    -0.19628098
      5      O     2.07883639     0.71106182     0.04380628
      6      H     0.63756896    -2.70863434    -0.72702275
      7      C    -1.52736873    -3.96489959    -1.22522409
      8      C    -1.56862106    -2.54533010    -0.62100541
      9      C    -2.48240764    -1.63904623    -1.48492626
     10      C    -2.12910585    -2.61596222     0.82784660
     11      H    -2.19922131    -1.62550088     1.28484061
     12      H    -2.53262006    -4.39415206    -1.26496285
     13      H    -0.90366053    -4.63746740    -0.62647010
     14      H    -1.13183031    -3.95414295    -2.24665641
     15      H    -3.48576240    -2.07389679    -1.53102316
     16      H    -2.10509089    -1.55318329    -2.50854286
     17      H    -2.57725529    -0.63174481    -1.07149280
     18      H    -3.13261825    -3.05338096     0.80446140
     19      H    -1.50398944    -3.24326426     1.47113917
     20      H     2.33728464    -1.22679291    -0.40030917
     21     Al     1.96163267     2.49654891     0.66339266
     22      F     0.54176488     2.46022361     1.58184898
     23      F     1.85284421     3.38984473    -0.76197690
     24      F     3.36624053     2.73325495     1.55705129
 
Total System Charge             0.00000
 
 *** GOStep6 ***

 Energy gradients wrt nuclear displacements
 ==========================================

     Atom      Cartesian (a.u./angstrom)
                 X         Y         Z
 ----------------------------------------
     1 H     0.000620 -0.000479  0.000597
     2 C    -0.004430 -0.000115 -0.005159
     3 C     0.006411  0.005018 -0.001302
     4 C    -0.002036 -0.006932  0.005721
     5 O    -0.014720  0.006796 -0.001069
     6 H     0.000935  0.000077  0.000024
     7 C     0.000354  0.000509  0.000673
     8 C     0.003406 -0.001559  0.003770
     9 C     0.000666  0.000588 -0.001020
    10 C    -0.000098  0.000574 -0.001256
    11 H    -0.000405  0.000040  0.000831
    12 H    -0.000217 -0.000274 -0.000067
    13 H     0.000053 -0.000654  0.000151
    14 H    -0.000028 -0.000389 -0.000638
    15 H    -0.000448 -0.000390  0.000083
    16 H    -0.000304  0.000203 -0.000628
    17 H    -0.000446  0.000457 -0.000195
    18 H    -0.000579 -0.000095  0.000242
    19 H    -0.000114 -0.000221  0.000592
    20 H     0.003841 -0.002174 -0.001205
    21 Al    0.007198 -0.016601 -0.004017
    22 F    -0.005153  0.002219  0.004547
    23 F    -0.000726  0.008103 -0.005756
    24 F     0.006219  0.005297  0.005081
 ----------------------------------------
 Mulliken charges used for AMS results%charges...

 dE(predicted):    -0.10137E-02, dE(actual):    -0.14057E-02, Trust radius:    0.400000, all in a.u.
 
----------------------------------------------------------------------
Geometry Convergence after Step   6       (Hartree/Angstrom,Angstrom)
----------------------------------------------------------------------
current energy                               -4.81649376 Hartree
energy change                      -0.00140567     0.00024000    F
constrained gradient max            0.01660189     0.00100000    F
constrained gradient rms            0.00392723     0.00066667    F
gradient max                        0.01660189
gradient rms                        0.00392723
cart. step max                      0.20112141     0.01000000    F
cart. step rms                      0.04614139     0.00666667    F
 
 
--------
Geometry
--------
Formula: C7H12AlF3O
Atoms
  Index Symbol   x (angstrom)   y (angstrom)   z (angstrom)
      1      H    -0.44868424     0.07852407    -0.04902494
      2      C    -0.15514253    -1.99832349    -0.54556169
      3      C     0.24180260    -0.73414787    -0.25683319
      4      C     1.64237989    -0.43106906    -0.20069135
      5      O     2.11623953     0.68869077     0.04832697
      6      H     0.64315064    -2.72430775    -0.72111704
      7      C    -1.53958695    -3.94271266    -1.24538481
      8      C    -1.56109554    -2.53651799    -0.61089234
      9      C    -2.47684019    -1.60512671    -1.44454151
     10      C    -2.10577572    -2.63407197     0.84272172
     11      H    -2.16119984    -1.65229168     1.31948406
     12      H    -2.54910054    -4.36162774    -1.28427815
     13      H    -0.91591348    -4.63272326    -0.66723225
     14      H    -1.15356761    -3.91270066    -2.26979839
     15      H    -3.48401013    -2.03049300    -1.49078307
     16      H    -2.10793229    -1.49947906    -2.46911846
     17      H    -2.55899739    -0.60718759    -1.00710532
     18      H    -3.11284055    -3.06282434     0.82146475
     19      H    -1.47785268    -3.27984642     1.46432058
     20      H     2.35965044    -1.25204133    -0.38665658
     21     Al     1.91315706     2.48823650     0.62634666
     22      F     0.40132999     2.44260054     1.38072758
     23      F     1.95621710     3.34359428    -0.82257566
     24      F     3.21164501     2.73643057     1.66158967
 
Total System Charge             0.00000
 
 *** GOStep7 ***

 Energy gradients wrt nuclear displacements
 ==========================================

     Atom      Cartesian (a.u./angstrom)
                 X         Y         Z
 ----------------------------------------
     1 H     0.000145 -0.000224  0.000395
     2 C    -0.004917 -0.001410 -0.002673
     3 C     0.004419  0.002739  0.001087
     4 C     0.003458 -0.003691 -0.002081
     5 O    -0.016028  0.004015  0.000528
     6 H     0.000865  0.000550 -0.000540
     7 C     0.000086  0.000510  0.000658
     8 C     0.004073 -0.000726  0.002477
     9 C    -0.000225  0.000347 -0.001402
    10 C    -0.000233  0.000580 -0.000663
    11 H    -0.000245 -0.000088  0.000437
    12 H    -0.000139 -0.000191 -0.000038
    13 H    -0.000024 -0.000273  0.000121
    14 H    -0.000075 -0.000167 -0.000305
    15 H    -0.000350 -0.000200 -0.000029
    16 H    -0.000236  0.000037 -0.000305
    17 H    -0.000194  0.000108 -0.000053
    18 H    -0.000323 -0.000059  0.000072
    19 H    -0.000086 -0.000148  0.000251
    20 H     0.002306 -0.001735  0.001569
    21 Al    0.007153 -0.010957 -0.001546
    22 F    -0.004187  0.000966  0.002884
    23 F     0.000134  0.005893 -0.005121
    24 F     0.004624  0.004126  0.004279
 ----------------------------------------
 Mulliken charges used for AMS results%charges...

 dE(predicted):    -0.21989E-02, dE(actual):    -0.11059E-02, Trust radius:    0.400000, all in a.u.
 
----------------------------------------------------------------------
Geometry Convergence after Step   7       (Hartree/Angstrom,Angstrom)
----------------------------------------------------------------------
current energy                               -4.81759966 Hartree
energy change                      -0.00110589     0.00024000    F
constrained gradient max            0.01602537     0.00100000    F
constrained gradient rms            0.00316926     0.00066667    F
gradient max                        0.01602537
gradient rms                        0.00316926
cart. step max                      0.20212770     0.01000000    F
cart. step rms                      0.04904441     0.00666667    F
 
 
--------
Geometry
--------
Formula: C7H12AlF3O
Atoms
  Index Symbol   x (angstrom)   y (angstrom)   z (angstrom)
      1      H    -0.40477605     0.07294679    -0.04639718
      2      C    -0.13536615    -2.00608632    -0.54122317
      3      C     0.27682229    -0.74693929    -0.25579221
      4      C     1.68304694    -0.45476265    -0.20465858
      5      O     2.16889569     0.65759757     0.05426898
      6      H     0.65134818    -2.74480528    -0.71451503
      7      C    -1.55507197    -3.91665721    -1.25986507
      8      C    -1.54979810    -2.52133187    -0.60245314
      9      C    -2.46394026    -1.56476312    -1.40704309
     10      C    -2.07516465    -2.63584714     0.85747099
     11      H    -2.10919080    -1.66016326     1.34804586
     12      H    -2.57041847    -4.32132165    -1.29337310
     13      H    -0.93325294    -4.62337421    -0.70067047
     14      H    -1.18046790    -3.87370583    -2.28776286
     15      H    -3.47699299    -1.97565858    -1.44855878
     16      H    -2.10516662    -1.44594308    -2.43350757
     17      H    -2.52715887    -0.57430889    -0.95055181
     18      H    -3.08777968    -3.05100628     0.84407784
     19      H    -1.44618907    -3.29934298     1.45866651
     20      H     2.38946206    -1.28414709    -0.38243449
     21     Al     1.83993016     2.46140599     0.59120919
     22      F     0.26013652     2.36254626     1.17859988
     23      F     2.01131876     3.28689913    -0.86099825
     24      F     3.01680648     2.73935317     1.75085280
 
Total System Charge             0.00000
 
 *** GOStep8 ***

 Energy gradients wrt nuclear displacements
 ==========================================

     Atom      Cartesian (a.u./angstrom)
                 X         Y         Z
 ----------------------------------------
     1 H    -0.000293  0.000002  0.000747
     2 C    -0.004809 -0.001622 -0.001959
     3 C     0.001522  0.000220  0.002210
     4 C     0.009492 -0.000742 -0.006479
     5 O    -0.016000  0.000992  0.000875
     6 H     0.000708  0.000752 -0.000250
     7 C     0.000014  0.000338  0.000604
     8 C     0.004142  0.000042  0.001326
     9 C    -0.000911  0.000177 -0.001547
    10 C    -0.000430  0.000574  0.000052
    11 H    -0.000018 -0.000093 -0.000009
    12 H    -0.000018 -0.000033  0.000006
    13 H    -0.000075  0.000107  0.000073
    14 H    -0.000095  0.000046  0.000052
    15 H    -0.000126  0.000018 -0.000058
    16 H    -0.000111 -0.000154  0.000062
    17 H    -0.000005 -0.000222  0.000054
    18 H    -0.000012  0.000022 -0.000063
    19 H    -0.000060 -0.000035 -0.000097
    20 H     0.000400 -0.000849  0.003241
    21 Al    0.005637 -0.004015  0.000967
    22 F    -0.002222 -0.000549  0.001214
    23 F     0.000736  0.002744 -0.003377
    24 F     0.002536  0.002280  0.002356
 ----------------------------------------
 Mulliken charges used for AMS results%charges...

 dE(predicted):    -0.26133E-02, dE(actual):    -0.12226E-02, Trust radius:    0.400000, all in a.u.
 
----------------------------------------------------------------------
Geometry Convergence after Step   8       (Hartree/Angstrom,Angstrom)
----------------------------------------------------------------------
current energy                               -4.81882225 Hartree
energy change                      -0.00122260     0.00024000    F
constrained gradient max            0.01599507     0.00100000    F
constrained gradient rms            0.00277867     0.00066667    F
gradient max                        0.01599507
gradient rms                        0.00277867
cart. step max                      0.20610156     0.01000000    F
cart. step rms                      0.04885821     0.00666667    F
 
 
--------
Geometry
--------
Formula: C7H12AlF3O
Atoms
  Index Symbol   x (angstrom)   y (angstrom)   z (angstrom)
      1      H    -0.36246766     0.07156297    -0.03912131
      2      C    -0.11707209    -2.01151916    -0.52711804
      3      C     0.30957890    -0.75736938    -0.24307298
      4      C     1.72079431    -0.48010745    -0.19136789
      5      O     2.22566754     0.62458805     0.07017996
      6      H     0.65880381    -2.76138593    -0.70074496
      7      C    -1.56679355    -3.88518853    -1.28023216
      8      C    -1.53872557    -2.50556180    -0.59146400
      9      C    -2.44835605    -1.52043897    -1.36432652
     10      C    -2.05172062    -2.64806283     0.87110461
     11      H    -2.06864725    -1.68268761     1.38215560
     12      H    -2.58726645    -4.27643890    -1.31457271
     13      H    -0.94887944    -4.61150556    -0.74252534
     14      H    -1.19961295    -3.82259129    -2.30963572
     15      H    -3.46639085    -1.91814809    -1.40733840
     16      H    -2.09591661    -1.38129639    -2.39028615
     17      H    -2.49602162    -0.54087972    -0.88351825
     18      H    -3.06899750    -3.05132093     0.85817079
     19      H    -1.42426268    -3.33206676     1.45029997
     20      H     2.41438892    -1.32009901    -0.36066767
     21     Al     1.76992152     2.43137849     0.54090933
     22      F     0.14604452     2.27836800     0.97249832
     23      F     2.05255412     3.22618910    -0.90716397
     24      F     2.82040982     2.75516589     1.80122473
 
Total System Charge             0.00000
 
 *** GOStep9 ***

 Energy gradients wrt nuclear displacements
 ==========================================

     Atom      Cartesian (a.u./angstrom)
                 X         Y         Z
 ----------------------------------------
     1 H    -0.000485  0.000387  0.000661
     2 C    -0.004735 -0.001680 -0.000869
     3 C    -0.000567 -0.001628  0.003116
     4 C     0.011525  0.001184 -0.008442
     5 O    -0.012202 -0.001397  0.000939
     6 H     0.000605  0.001005 -0.000703
     7 C    -0.000184  0.000255  0.000638
     8 C     0.004280  0.000536  0.000421
     9 C    -0.001257  0.000043 -0.001634
    10 C    -0.000742  0.000498  0.000704
    11 H     0.000122 -0.000133 -0.000322
    12 H     0.000066  0.000035  0.000025
    13 H    -0.000096  0.000350  0.000046
    14 H    -0.000086  0.000178  0.000279
    15 H     0.000034  0.000153 -0.000058
    16 H    -0.000017 -0.000275  0.000263
    17 H     0.000122 -0.000426  0.000112
    18 H     0.000157  0.000042 -0.000119
    19 H    -0.000059  0.000041 -0.000317
    20 H    -0.000861 -0.000063  0.003899
    21 Al    0.002877  0.001586  0.002378
    22 F    -0.000532 -0.001697  0.000140
    23 F     0.000969  0.000349 -0.001604
    24 F     0.001064  0.000655  0.000444
 ----------------------------------------
 Mulliken charges used for AMS results%charges...

 dE(predicted):    -0.20719E-02, dE(actual):    -0.95278E-03, Trust radius:    0.400000, all in a.u.
 
----------------------------------------------------------------------
Geometry Convergence after Step   9       (Hartree/Angstrom,Angstrom)
----------------------------------------------------------------------
current energy                               -4.81977504 Hartree
energy change                      -0.00095278     0.00024000    F
constrained gradient max            0.01219662     0.00100000    F
constrained gradient rms            0.00254214     0.00066667    F
gradient max                        0.01219662
gradient rms                        0.00254214
cart. step max                      0.20893166     0.01000000    F
cart. step rms                      0.04578484     0.00666667    F
 
 
--------
Geometry
--------
Formula: C7H12AlF3O
Atoms
  Index Symbol   x (angstrom)   y (angstrom)   z (angstrom)
      1      H    -0.34001772     0.07322024    -0.02870425
      2      C    -0.10794272    -2.01472243    -0.50416178
      3      C     0.32604982    -0.76265762    -0.22201847
      4      C     1.73966501    -0.49897378    -0.16090342
      5      O     2.26347894     0.59869868     0.10122803
      6      H     0.66254322    -2.77338319    -0.66329998
      7      C    -1.57153852    -3.85418381    -1.31108145
      8      C    -1.53268890    -2.49671712    -0.57989126
      9      C    -2.44124448    -1.48321753    -1.31540526
     10      C    -2.03830265    -2.68306634     0.88100031
     11      H    -2.04818241    -1.73350667     1.42096463
     12      H    -2.59438688    -4.23840071    -1.35293059
     13      H    -0.95523575    -4.60026923    -0.79924492
     14      H    -1.20849957    -3.76142564    -2.33966720
     15      H    -3.46113790    -1.87494221    -1.36714188
     16      H    -2.09237904    -1.31181469    -2.33767957
     17      H    -2.48278401    -0.51986736    -0.80244754
     18      H    -3.05715624    -3.08197767     0.86097941
     19      H    -1.41027614    -3.38709665     1.43503444
     20      H     2.42309929    -1.34841145    -0.32145028
     21     Al     1.73271400     2.41792349     0.47807396
     22      F     0.07762307     2.25611643     0.76356666
     23      F     2.13501570     3.17328995    -0.96113530
     24      F     2.65861647     2.78596948     1.81970295
 
Total System Charge             0.00000
 
 *** GOStep10 ***

 Energy gradients wrt nuclear displacements
 ==========================================

     Atom      Cartesian (a.u./angstrom)
                 X         Y         Z
 ----------------------------------------
     1 H    -0.000425  0.000535  0.001134
     2 C    -0.004660 -0.001450 -0.001280
     3 C    -0.001314 -0.002274  0.003487
     4 C     0.009248  0.002123 -0.008945
     5 O    -0.006684 -0.003376  0.001547
     6 H     0.000685  0.001045 -0.000504
     7 C    -0.000402  0.000261  0.000779
     8 C     0.004566  0.000217  0.000335
     9 C    -0.001333  0.000301 -0.001750
    10 C    -0.001093  0.000563  0.001019
    11 H     0.000147 -0.000154 -0.000391
    12 H     0.000109  0.000006  0.000004
    13 H    -0.000099  0.000390  0.000054
    14 H    -0.000075  0.000184  0.000288
    15 H     0.000070  0.000128 -0.000036
    16 H     0.000019 -0.000300  0.000270
    17 H     0.000202 -0.000429  0.000157
    18 H     0.000187  0.000041 -0.000124
    19 H    -0.000036  0.000088 -0.000405
    20 H    -0.001114  0.000397  0.003579
    21 Al    0.000725  0.004092  0.002118
    22 F    -0.000217 -0.002145 -0.000220
    23 F     0.000962 -0.000271 -0.000829
    24 F     0.000534  0.000028 -0.000286
 ----------------------------------------
 Mulliken charges used for AMS results%charges...

 dE(predicted):    -0.82278E-03, dE(actual):    -0.48536E-03, Trust radius:    0.400000, all in a.u.
 
----------------------------------------------------------------------
Geometry Convergence after Step  10       (Hartree/Angstrom,Angstrom)
----------------------------------------------------------------------
current energy                               -4.82026040 Hartree
energy change                      -0.00048536     0.00024000    F
constrained gradient max            0.00924737     0.00100000    F
constrained gradient rms            0.00220415     0.00066667    F
gradient max                        0.00924737
gradient rms                        0.00220415
cart. step max                      0.21137431     0.01000000    F
cart. step rms                      0.05490176     0.00666667    F
 
 
--------
Geometry
--------
Formula: C7H12AlF3O
Atoms
  Index Symbol   x (angstrom)   y (angstrom)   z (angstrom)
      1      H    -0.33057064     0.08760793    -0.07288858
      2      C    -0.10292005    -2.01897587    -0.46080186
      3      C     0.33225952    -0.76170290    -0.20553954
      4      C     1.74595804    -0.51428642    -0.10380423
      5      O     2.29253588     0.57793704     0.14609583
      6      H     0.66257422    -2.79046529    -0.57654371
      7      C    -1.56958541    -3.81301332    -1.35826029
      8      C    -1.53022123    -2.49107984    -0.56384664
      9      C    -2.43680472    -1.44204705    -1.24781753
     10      C    -2.03216186    -2.74662346     0.88801520
     11      H    -2.04089879    -1.82290662     1.47121639
     12      H    -2.59301936    -4.19318170    -1.41885775
     13      H    -0.95450291    -4.58326718    -0.88190556
     14      H    -1.20549917    -3.67232404    -2.38102612
     15      H    -3.45697420    -1.82964149    -1.32016899
     16      H    -2.08674208    -1.21985267    -2.25988158
     17      H    -2.47851578    -0.50519083    -0.68795927
     18      H    -3.05091353    -3.14462468     0.85159369
     19      H    -1.40261305    -3.47541709     1.40736342
     20      H     2.41718036    -1.37894109    -0.22970205
     21     Al     1.71158316     2.41246843     0.39500625
     22      F     0.03887024     2.26525448     0.55219235
     23      F     2.22535460     3.10141808    -1.03944234
     24      F     2.52265931     2.83943973     1.79035015
 
Total System Charge             0.00000
 
 *** GOStep11 ***

 Energy gradients wrt nuclear displacements
 ==========================================

     Atom      Cartesian (a.u./angstrom)
                 X         Y         Z
 ----------------------------------------
     1 H    -0.000055  0.000814 -0.000015
     2 C    -0.001800 -0.000892 -0.000618
     3 C    -0.002791 -0.003394  0.004012
     4 C     0.003610  0.001998 -0.006740
     5 O     0.001620 -0.003021  0.002465
     6 H     0.000657  0.001033 -0.001752
     7 C    -0.000620  0.000208  0.000965
     8 C     0.002881 -0.001227  0.000859
     9 C    -0.001150  0.001065 -0.001714
    10 C    -0.001402  0.000687  0.000935
    11 H     0.000148 -0.000153 -0.000388
    12 H     0.000185 -0.000044 -0.000054
    13 H    -0.000032  0.000331  0.000062
    14 H    -0.000013  0.000154  0.000236
    15 H     0.000123 -0.000018 -0.000014
    16 H     0.000128 -0.000245  0.000239
    17 H     0.000470 -0.000295  0.000052
    18 H     0.000217  0.000113 -0.000073
    19 H     0.000065  0.000150 -0.000451
    20 H    -0.001291  0.000952  0.002054
    21 Al   -0.001448  0.005746  0.000931
    22 F     0.000442 -0.001767 -0.000290
    23 F     0.000356 -0.001234  0.000935
    24 F    -0.000302 -0.000960 -0.001638
 ----------------------------------------
 Mulliken charges used for AMS results%charges...

 dE(predicted):    -0.34602E-03, dE(actual):    -0.41332E-03, Trust radius:    0.400000, all in a.u.
 
----------------------------------------------------------------------
Geometry Convergence after Step  11       (Hartree/Angstrom,Angstrom)
----------------------------------------------------------------------
current energy                               -4.82067372 Hartree
energy change                      -0.00041332     0.00024000    F
constrained gradient max            0.00674088     0.00100000    F
constrained gradient rms            0.00166467     0.00066667    F
gradient max                        0.00674088
gradient rms                        0.00166467
cart. step max                      0.21096791     0.01000000    F
cart. step rms                      0.06184309     0.00666667    F
 
 
--------
Geometry
--------
Formula: C7H12AlF3O
Atoms
  Index Symbol   x (angstrom)   y (angstrom)   z (angstrom)
      1      H    -0.33204842     0.10606183    -0.12204111
      2      C    -0.10919502    -2.01768841    -0.40779172
      3      C     0.32639843    -0.75340368    -0.18941544
      4      C     1.73628801    -0.52259990    -0.03311817
      5      O     2.30147598     0.56614048     0.19708741
      6      H     0.65129585    -2.80137761    -0.45412719
      7      C    -1.55727646    -3.76583182    -1.41401430
      8      C    -1.53437405    -2.48867304    -0.54755781
      9      C    -2.44983921    -1.41282859    -1.17267166
     10      C    -2.03366334    -2.83112847     0.88730343
     11      H    -2.05390832    -1.94126091     1.52099746
     12      H    -2.57720033    -4.15083192    -1.49958047
     13      H    -0.93701968    -4.55598872    -0.97848178
     14      H    -1.19076094    -3.56598768    -2.42608125
     15      H    -3.46487128    -1.80764498    -1.27304998
     16      H    -2.09859327    -1.12677268    -2.16825676
     17      H    -2.50716869    -0.51072623    -0.55948790
     18      H    -3.04774348    -3.23834644     0.82710423
     19      H    -1.39660978    -3.58047067     1.36709329
     20      H     2.39594303    -1.40260554    -0.10933597
     21     Al     1.72520989     2.42154174     0.30187621
     22      F     0.04220717     2.32386997     0.34122444
     23      F     2.35265303     3.02532050    -1.12492043
     24      F     2.43583344     2.91181692     1.73063269
 
Total System Charge             0.00000
 
 *** GOStep12 ***

 Energy gradients wrt nuclear displacements
 ==========================================

     Atom      Cartesian (a.u./angstrom)
                 X         Y         Z
 ----------------------------------------
     1 H     0.000386  0.000261  0.000257
     2 C     0.001316 -0.000399 -0.000970
     3 C    -0.002429 -0.002734  0.002840
     4 C    -0.002583  0.001640 -0.003782
     5 O     0.007026 -0.003410  0.003250
     6 H     0.000707  0.000779 -0.001669
     7 C    -0.000845  0.000454  0.001307
     8 C     0.001111 -0.002777  0.000971
     9 C    -0.001258  0.001764 -0.001534
    10 C    -0.001371  0.000937  0.000650
    11 H     0.000142 -0.000113 -0.000245
    12 H     0.000231 -0.000133 -0.000171
    13 H     0.000035  0.000156  0.000102
    14 H     0.000023  0.000069  0.000050
    15 H     0.000038 -0.000134  0.000039
    16 H     0.000211 -0.000188  0.000136
    17 H     0.000344 -0.000218 -0.000163
    18 H     0.000131  0.000079 -0.000060
    19 H     0.000151  0.000148 -0.000303
    20 H    -0.000689  0.000924  0.000271
    21 Al   -0.001893  0.005203 -0.000652
    22 F     0.000274 -0.000297 -0.000108
    23 F    -0.000375 -0.000968  0.001605
    24 F    -0.000681 -0.001044 -0.001824
 ----------------------------------------
 Mulliken charges used for AMS results%charges...

 dE(predicted):    -0.41402E-03, dE(actual):    -0.43064E-03, Trust radius:    0.400000, all in a.u.
 
----------------------------------------------------------------------
Geometry Convergence after Step  12       (Hartree/Angstrom,Angstrom)
----------------------------------------------------------------------
current energy                               -4.82110436 Hartree
energy change                      -0.00043064     0.00024000    F
constrained gradient max            0.00702491     0.00100000    F
constrained gradient rms            0.00161718     0.00066667    F
gradient max                        0.00702491
gradient rms                        0.00161718
cart. step max                      0.19413489     0.01000000    F
cart. step rms                      0.07921804     0.00666667    F
 
 
--------
Geometry
--------
Formula: C7H12AlF3O
Atoms
  Index Symbol   x (angstrom)   y (angstrom)   z (angstrom)
      1      H    -0.32862445     0.13104129    -0.22724293
      2      C    -0.12556705    -2.01100248    -0.32791484
      3      C     0.31628813    -0.73887789    -0.17710883
      4      C     1.71456971    -0.52568819     0.06474050
      5      O     2.29806454     0.56315953     0.24661870
      6      H     0.61960828    -2.80834321    -0.26872580
      7      C    -1.52883045    -3.69725098    -1.48277287
      8      C    -1.54432733    -2.48450402    -0.52550187
      9      C    -2.47413963    -1.38564340    -1.07798134
     10      C    -2.04439770    -2.94353796     0.87561457
     11      H    -2.08918973    -2.10368598     1.57365496
     12      H    -2.54048542    -4.09347434    -1.60821166
     13      H    -0.89826910    -4.50552612    -1.09791594
     14      H    -1.15496025    -3.41812727    -2.47322778
     15      H    -3.47871767    -1.79316838    -1.22279914
     16      H    -2.11873365    -1.01457767    -2.04377293
     17      H    -2.56212076    -0.53457987    -0.39850123
     18      H    -3.04914703    -3.36657529     0.77709031
     19      H    -1.39576058    -3.71310497     1.30590762
     20      H     2.35615180    -1.42352514     0.08107268
     21     Al     1.75783672     2.43056102     0.18688736
     22      F     0.07363632     2.39509976     0.14708955
     23      F     2.46578348     2.91631983    -1.24654798
     24      F     2.40836440     3.00559591     1.61293615
 
Total System Charge             0.00000
 
 *** GOStep13 ***

 Energy gradients wrt nuclear displacements
 ==========================================

     Atom      Cartesian (a.u./angstrom)
                 X         Y         Z
 ----------------------------------------
     1 H     0.000993 -0.000480 -0.000756
     2 C     0.005886  0.000570  0.000537
     3 C    -0.000970 -0.000640  0.001756
     4 C    -0.008462  0.001237  0.001876
     5 O     0.009550 -0.002972  0.002405
     6 H     0.000427  0.000181 -0.002322
     7 C    -0.000990  0.000649  0.001846
     8 C    -0.002884 -0.003873 -0.000302
     9 C    -0.001006  0.001796 -0.000757
    10 C    -0.000454  0.001154  0.000165
    11 H     0.000173 -0.000037 -0.000013
    12 H     0.000260 -0.000145 -0.000330
    13 H     0.000164 -0.000179  0.000067
    14 H     0.000110 -0.000094 -0.000265
    15 H    -0.000012 -0.000195  0.000217
    16 H     0.000383  0.000010  0.000074
    17 H    -0.000264 -0.000085 -0.000579
    18 H     0.000072 -0.000037 -0.000190
    19 H     0.000212  0.000027  0.000127
    20 H     0.000402  0.000000 -0.002137
    21 Al   -0.002114  0.003277 -0.001960
    22 F     0.001006  0.001655 -0.000007
    23 F    -0.001389 -0.000734  0.002338
    24 F    -0.001094 -0.001085 -0.001791
 ----------------------------------------
 Mulliken charges used for AMS results%charges...

 dE(predicted):    -0.61398E-03, dE(actual):    -0.67092E-03, Trust radius:    0.800000, all in a.u.
 
----------------------------------------------------------------------
Geometry Convergence after Step  13       (Hartree/Angstrom,Angstrom)
----------------------------------------------------------------------
current energy                               -4.82177528 Hartree
energy change                      -0.00067092     0.00024000    F
constrained gradient max            0.00954857     0.00100000    F
constrained gradient rms            0.00206268     0.00066667    F
gradient max                        0.00954857
gradient rms                        0.00206268
cart. step max                      0.21135599     0.01000000    F
cart. step rms                      0.08597419     0.00666667    F
 
 
--------
Geometry
--------
Formula: C7H12AlF3O
Atoms
  Index Symbol   x (angstrom)   y (angstrom)   z (angstrom)
      1      H    -0.31749452     0.14313859    -0.31539990
      2      C    -0.14829187    -2.00177469    -0.23881433
      3      C     0.30776029    -0.72800100    -0.15847112
      4      C     1.68881560    -0.52269091     0.16486004
      5      O     2.28692169     0.56621895     0.28985362
      6      H     0.57151881    -2.80564457    -0.06503040
      7      C    -1.49230203    -3.61230199    -1.55027419
      8      C    -1.55507338    -2.47916230    -0.49870882
      9      C    -2.50129495    -1.36299915    -0.97371681
     10      C    -2.05892505    -3.06340186     0.85320607
     11      H    -2.13386134    -2.28506584     1.61742671
     12      H    -2.49286263    -4.01997380    -1.72171304
     13      H    -0.84775429    -4.43426450    -1.22153807
     14      H    -1.11191816    -3.24609456    -2.50938553
     15      H    -3.49348821    -1.77994248    -1.16862339
     16      H    -2.14346233    -0.90290525    -1.89969250
     17      H    -2.62156663    -0.57366224    -0.22712678
     18      H    -3.05207174    -3.50056563     0.70756600
     19      H    -1.39801535    -3.85075828     1.22975801
     20      H     2.30927444    -1.42880630     0.28615387
     21     Al     1.79583493     2.43070320     0.05921279
     22      F     0.11583431     2.44361579    -0.06426644
     23      F     2.58077404     2.79270993    -1.37155267
     24      F     2.38868093     3.10221303     1.46966411
 
Total System Charge             0.00000
 
 *** GOStep14 ***

 Energy gradients wrt nuclear displacements
 ==========================================

     Atom      Cartesian (a.u./angstrom)
                 X         Y         Z
 ----------------------------------------
     1 H     0.000997 -0.001147 -0.000473
     2 C     0.007719  0.001303  0.001154
     3 C     0.001404  0.001809 -0.000675
     4 C    -0.012114  0.001447  0.006028
     5 O     0.009389 -0.002946  0.001223
     6 H    -0.000289 -0.000581 -0.001211
     7 C    -0.001070  0.000877  0.002243
     8 C    -0.005468 -0.003613 -0.003120
     9 C    -0.000147  0.000938  0.000514
    10 C     0.001032  0.001404  0.000601
    11 H     0.000132 -0.000008  0.000198
    12 H     0.000266 -0.000128 -0.000511
    13 H     0.000224 -0.000464 -0.000006
    14 H     0.000174 -0.000222 -0.000614
    15 H    -0.000059 -0.000229  0.000397
    16 H     0.000617  0.000234  0.000036
    17 H    -0.001030  0.000088 -0.000624
    18 H    -0.000029 -0.000261 -0.000466
    19 H     0.000176 -0.000202  0.000593
    20 H     0.001724 -0.001372 -0.003433
    21 Al   -0.002127  0.000614 -0.002600
    22 F     0.001389  0.002956 -0.000169
    23 F    -0.001827  0.000022  0.001834
    24 F    -0.001084 -0.000519 -0.000921
 ----------------------------------------
 Mulliken charges used for AMS results%charges...

 dE(predicted):    -0.88889E-03, dE(actual):    -0.49699E-03, Trust radius:    0.800000, all in a.u.
 
----------------------------------------------------------------------
Geometry Convergence after Step  14       (Hartree/Angstrom,Angstrom)
----------------------------------------------------------------------
current energy                               -4.82227227 Hartree
energy change                      -0.00049699     0.00024000    F
constrained gradient max            0.01211435     0.00100000    F
constrained gradient rms            0.00256137     0.00066667    F
gradient max                        0.01211435
gradient rms                        0.00256137
cart. step max                      0.15809993     0.01000000    F
cart. step rms                      0.06210827     0.00666667    F
 
 
--------
Geometry
--------
Formula: C7H12AlF3O
Atoms
  Index Symbol   x (angstrom)   y (angstrom)   z (angstrom)
      1      H    -0.30971166     0.13842690    -0.36796790
      2      C    -0.16966695    -1.99756361    -0.15873032
      3      C     0.30119332    -0.72682335    -0.13719005
      4      C     1.67087013    -0.51376753     0.22564801
      5      O     2.27090916     0.57863915     0.28473491
      6      H     0.52828385    -2.80006073     0.09306953
      7      C    -1.45225834    -3.54652543    -1.58896150
      8      C    -1.56263540    -2.47883297    -0.47144307
      9      C    -2.51226243    -1.35196257    -0.90328093
     10      C    -2.09026353    -3.15291022     0.82760427
     11      H    -2.19288045    -2.42639424     1.63868821
     12      H    -2.44202586    -3.96088056    -1.80342725
     13      H    -0.79839412    -4.37482099    -1.29696431
     14      H    -1.06069877    -3.11508841    -2.51568857
     15      H    -3.49629835    -1.76761538    -1.13853613
     16      H    -2.14776577    -0.83629699    -1.79692615
     17      H    -2.65266193    -0.60628049    -0.11558736
     18      H    -3.07537079    -3.59002454     0.63421680
     19      H    -1.42954124    -3.95616823     1.16913501
     20      H     2.27876072    -1.41307148     0.43464212
     21     Al     1.82575187     2.43133275    -0.03135425
     22      F     0.14515705     2.47418443    -0.13952246
     23      F     2.60160444     2.71055545    -1.48747388
     24      F     2.44693761     3.16253318     1.33870249
 
Total System Charge             0.00000
 
 *** GOStep15 ***

 Energy gradients wrt nuclear displacements
 ==========================================

     Atom      Cartesian (a.u./angstrom)
                 X         Y         Z
 ----------------------------------------
     1 H     0.000210 -0.001250 -0.000280
     2 C     0.006140  0.002412  0.001981
     3 C     0.003295  0.002805 -0.002658
     4 C    -0.010475  0.001382  0.008228
     5 O     0.005336 -0.001161 -0.001663
     6 H    -0.001087 -0.001083 -0.000783
     7 C    -0.000823  0.000781  0.001952
     8 C    -0.005475 -0.002485 -0.004237
     9 C     0.001732 -0.000502  0.001213
    10 C     0.001622  0.001023  0.000902
    11 H    -0.000138 -0.000105  0.000340
    12 H     0.000081 -0.000078 -0.000438
    13 H     0.000179 -0.000530 -0.000169
    14 H     0.000205 -0.000202 -0.000718
    15 H    -0.000056 -0.000293  0.000189
    16 H     0.000488  0.000534 -0.000077
    17 H    -0.000946  0.000297 -0.000219
    18 H    -0.000255 -0.000400 -0.000289
    19 H    -0.000072 -0.000328  0.000674
    20 H     0.002217 -0.002356 -0.003096
    21 Al   -0.001523 -0.002520 -0.001469
    22 F     0.001499  0.003070 -0.000291
    23 F    -0.001461  0.000554  0.000569
    24 F    -0.000692  0.000436  0.000337
 ----------------------------------------
 Mulliken charges used for AMS results%charges...

 dE(predicted):    -0.26621E-03, dE(actual):    -0.33650E-03, Trust radius:    0.800000, all in a.u.
 
----------------------------------------------------------------------
Geometry Convergence after Step  15       (Hartree/Angstrom,Angstrom)
----------------------------------------------------------------------
current energy                               -4.82260877 Hartree
energy change                      -0.00033650     0.00024000    F
constrained gradient max            0.01047482     0.00100000    F
constrained gradient rms            0.00238117     0.00066667    F
gradient max                        0.01047482
gradient rms                        0.00238117
cart. step max                      0.09619227     0.01000000    F
cart. step rms                      0.03301180     0.00666667    F
 
 
--------
Geometry
--------
Formula: C7H12AlF3O
Atoms
  Index Symbol   x (angstrom)   y (angstrom)   z (angstrom)
      1      H    -0.30093845     0.13372547    -0.37533232
      2      C    -0.17666044    -1.99841180    -0.12527837
      3      C     0.30253049    -0.73063113    -0.12074058
      4      C     1.66929116    -0.51115620     0.25274955
      5      O     2.26275109     0.58520759     0.29004517
      6      H     0.51454240    -2.79812274     0.15343680
      7      C    -1.43630248    -3.50679124    -1.60681818
      8      C    -1.56420606    -2.47670442    -0.45441040
      9      C    -2.51814734    -1.34395412    -0.86091894
     10      C    -2.10418934    -3.19764470     0.81302901
     11      H    -2.21313872    -2.50177701     1.64992128
     12      H    -2.42160167    -3.92318840    -1.83781755
     13      H    -0.77563975    -4.33748293    -1.33856032
     14      H    -1.04517366    -3.04021489    -2.51618664
     15      H    -3.50175497    -1.75610019    -1.10417416
     16      H    -2.15889293    -0.80706939    -1.74394028
     17      H    -2.65649517    -0.61695121    -0.05538733
     18      H    -3.08832518    -3.62601676     0.59729092
     19      H    -1.44617540    -4.01329889     1.12897470
     20      H     2.27143488    -1.40039425     0.51237385
     21     Al     1.83569449     2.42645689    -0.08383737
     22      F     0.15651836     2.45184251    -0.23571473
     23      F     2.65110470     2.67110739    -1.52673777
     24      F     2.42080658     3.19815460     1.28142091
 
Total System Charge             0.00000
 
 *** GOStep16 ***

 Energy gradients wrt nuclear displacements
 ==========================================

     Atom      Cartesian (a.u./angstrom)
                 X         Y         Z
 ----------------------------------------
     1 H    -0.000264 -0.000763 -0.000021
     2 C     0.003236  0.001638 -0.000665
     3 C     0.003266  0.002278 -0.001504
     4 C    -0.005973  0.000700  0.004881
     5 O     0.001899 -0.000370 -0.001468
     6 H    -0.000695 -0.000572 -0.000149
     7 C    -0.000341  0.000923  0.001594
     8 C    -0.002718 -0.001129 -0.002094
     9 C     0.001510 -0.001025  0.000984
    10 C     0.000528  0.000344  0.000642
    11 H    -0.000262 -0.000111  0.000251
    12 H    -0.000053 -0.000023 -0.000197
    13 H     0.000093 -0.000374 -0.000151
    14 H     0.000154 -0.000079 -0.000528
    15 H    -0.000179 -0.000099 -0.000168
    16 H     0.000103  0.000403 -0.000156
    17 H    -0.000526  0.000224  0.000044
    18 H    -0.000393 -0.000377  0.000030
    19 H    -0.000116 -0.000221  0.000309
    20 H     0.001656 -0.001758 -0.001243
    21 Al   -0.000884 -0.003356 -0.000250
    22 F     0.000388  0.001793 -0.000330
    23 F    -0.000360  0.000802 -0.001142
    24 F    -0.000071  0.001154  0.001330
 ----------------------------------------
 Mulliken charges used for AMS results%charges...

 dE(predicted):    -0.15208E-03, dE(actual):    -0.21049E-03, Trust radius:    0.800000, all in a.u.
 
----------------------------------------------------------------------
Geometry Convergence after Step  16       (Hartree/Angstrom,Angstrom)
----------------------------------------------------------------------
current energy                               -4.82281926 Hartree
energy change                      -0.00021049     0.00024000    T
constrained gradient max            0.00597309     0.00100000    F
constrained gradient rms            0.00144633     0.00066667    F
gradient max                        0.00597309
gradient rms                        0.00144633
cart. step max                      0.03752387     0.01000000    F
cart. step rms                      0.01489127     0.00666667    F
 
 
--------
Geometry
--------
Formula: C7H12AlF3O
Atoms
  Index Symbol   x (angstrom)   y (angstrom)   z (angstrom)
      1      H    -0.30167523     0.13068727    -0.36160534
      2      C    -0.18366405    -2.00050461    -0.09553888
      3      C     0.29936750    -0.73447567    -0.10237606
      4      C     1.67374226    -0.51010162     0.24722057
      5      O     2.26214854     0.58924038     0.27028144
      6      H     0.50754762    -2.79769850     0.19096066
      7      C    -1.41993987    -3.48983012    -1.60872319
      8      C    -1.56563032    -2.47577568    -0.44210719
      9      C    -2.51691916    -1.33929152    -0.84833248
     10      C    -2.12253099    -3.21580419     0.80492625
     11      H    -2.23577318    -2.53403567     1.65279168
     12      H    -2.40071898    -3.90881062    -1.85379779
     13      H    -0.75661424    -4.31949143    -1.34489693
     14      H    -1.02313397    -3.00699819    -2.50655301
     15      H    -3.50157620    -1.74774159    -1.09292636
     16      H    -2.15627874    -0.80197498    -1.73017620
     17      H    -2.65105374    -0.61403022    -0.04065674
     18      H    -3.10651858    -3.63454772     0.57246603
     19      H    -1.47055471    -4.03953527     1.11179043
     20      H     2.27834766    -1.39282547     0.51699440
     21     Al     1.83654872     2.42602297    -0.10466606
     22      F     0.15495463     2.42909823    -0.24223308
     23      F     2.64570275     2.66580297    -1.55216055
     24      F     2.43125485     3.20320541     1.25270565
 
Total System Charge             0.00000
 
 *** GOStep17 ***

 Energy gradients wrt nuclear displacements
 ==========================================

     Atom      Cartesian (a.u./angstrom)
                 X         Y         Z
 ----------------------------------------
     1 H    -0.000281 -0.000011  0.000101
     2 C    -0.000144  0.000605  0.000596
     3 C     0.000933  0.000059 -0.000035
     4 C    -0.000906 -0.000493  0.000341
     5 O     0.000033  0.001776 -0.000611
     6 H    -0.000008 -0.000012  0.000120
     7 C    -0.000147  0.000389  0.000529
     8 C    -0.000339 -0.000369 -0.000881
     9 C     0.000697 -0.000501  0.000213
    10 C     0.000099 -0.000004  0.000106
    11 H    -0.000145 -0.000014  0.000050
    12 H    -0.000041 -0.000075 -0.000070
    13 H     0.000011 -0.000087 -0.000070
    14 H     0.000034 -0.000012 -0.000107
    15 H    -0.000113  0.000060 -0.000314
    16 H    -0.000233  0.000179 -0.000115
    17 H     0.000049  0.000070  0.000097
    18 H    -0.000137 -0.000027  0.000038
    19 H    -0.000030 -0.000029 -0.000042
    20 H     0.000359 -0.000270 -0.000219
    21 Al    0.000037 -0.002301  0.000488
    22 F    -0.000239  0.000029 -0.000093
    23 F     0.000271  0.000348 -0.001206
    24 F     0.000240  0.000689  0.001080
 ----------------------------------------
 Mulliken charges used for AMS results%charges...

 dE(predicted):    -0.90045E-04, dE(actual):    -0.78677E-04, Trust radius:    0.800000, all in a.u.
 
----------------------------------------------------------------------
Geometry Convergence after Step  17       (Hartree/Angstrom,Angstrom)
----------------------------------------------------------------------
current energy                               -4.82289794 Hartree
energy change                      -0.00007868     0.00024000    T
constrained gradient max            0.00229796     0.00100000    F
constrained gradient rms            0.00050318     0.00066667    T
gradient max                        0.00229796
gradient rms                        0.00050318
cart. step max                      0.06741297     0.01000000    F
cart. step rms                      0.01503767     0.00666667    F
 
 
--------
Geometry
--------
Formula: C7H12AlF3O
Atoms
  Index Symbol   x (angstrom)   y (angstrom)   z (angstrom)
      1      H    -0.29930683     0.13093320    -0.37649531
      2      C    -0.18339643    -2.00029889    -0.10304518
      3      C     0.29863094    -0.73385801    -0.10914392
      4      C     1.66799005    -0.50781049     0.25968729
      5      O     2.25648374     0.59114700     0.29153982
      6      H     0.50891852    -2.79660120     0.18338828
      7      C    -1.42670548    -3.48305924    -1.61588501
      8      C    -1.56634650    -2.47550311    -0.44242290
      9      C    -2.52374333    -1.33890962    -0.83527244
     10      C    -2.11194384    -3.22371852     0.80452171
     11      H    -2.21918788    -2.54681185     1.65701382
     12      H    -2.40820446    -3.90331958    -1.85563655
     13      H    -0.75911355    -4.31211486    -1.36127192
     14      H    -1.03800983    -2.99410498    -2.51384689
     15      H    -3.50984306    -1.74857734    -1.07145189
     16      H    -2.17186140    -0.79816422    -1.71846259
     17      H    -2.65134687    -0.61690402    -0.02372741
     18      H    -3.09690055    -3.64281817     0.57739400
     19      H    -1.45586733    -4.04783891     1.10141389
     20      H     2.26552689    -1.38866747     0.54935081
     21     Al     1.84242055     2.42564074    -0.11463203
     22      F     0.16625048     2.42502058    -0.30964605
     23      F     2.70211652     2.65162653    -1.53445268
     24      F     2.39047225     3.21529657     1.25447040
 
Total System Charge             0.00000
 
 *** GOStep18 ***

 Energy gradients wrt nuclear displacements
 ==========================================

     Atom      Cartesian (a.u./angstrom)
                 X         Y         Z
 ----------------------------------------
     1 H    -0.000003  0.000029 -0.000130
     2 C    -0.000297 -0.000161 -0.000563
     3 C     0.000272 -0.000164  0.000300
     4 C    -0.000591 -0.000318 -0.000540
     5 O     0.000315  0.001109  0.000111
     6 H     0.000200 -0.000010 -0.000154
     7 C     0.000151  0.000265  0.000315
     8 C    -0.000114  0.000070  0.000251
     9 C     0.000165 -0.000115  0.000169
    10 C    -0.000053 -0.000092  0.000090
    11 H    -0.000033  0.000011 -0.000027
    12 H    -0.000009  0.000002 -0.000002
    13 H    -0.000002 -0.000043 -0.000040
    14 H     0.000008 -0.000020 -0.000051
    15 H    -0.000052  0.000044 -0.000144
    16 H    -0.000082  0.000066 -0.000047
    17 H    -0.000008  0.000022  0.000024
    18 H    -0.000023  0.000004  0.000003
    19 H     0.000022  0.000004 -0.000044
    20 H    -0.000000  0.000188  0.000385
    21 Al    0.000146 -0.001505  0.000435
    22 F    -0.000476 -0.000076 -0.000111
    23 F     0.000301  0.000243 -0.000868
    24 F     0.000165  0.000447  0.000637
 ----------------------------------------
 Mulliken charges used for AMS results%charges...

 dE(predicted):    -0.17635E-04, dE(actual):    -0.12107E-04, Trust radius:    0.800000, all in a.u.
 
----------------------------------------------------------------------
Geometry Convergence after Step  18       (Hartree/Angstrom,Angstrom)
----------------------------------------------------------------------
current energy                               -4.82291005 Hartree
energy change                      -0.00001211     0.00024000    T
constrained gradient max            0.00150699     0.00100000    F
constrained gradient rms            0.00032581     0.00066667    T
gradient max                        0.00150699
gradient rms                        0.00032581
cart. step max                      0.02115106     0.01000000    F
cart. step rms                      0.00668344     0.00666667    F
 
 
--------
Geometry
--------
Formula: C7H12AlF3O
Atoms
  Index Symbol   x (angstrom)   y (angstrom)   z (angstrom)
      1      H    -0.30276216     0.13277823    -0.37156573
      2      C    -0.18316482    -1.99975296    -0.10749772
      3      C     0.29728714    -0.73268647    -0.11134345
      4      C     1.66860292    -0.50798288     0.25105026
      5      O     2.25673693     0.59078641     0.28657058
      6      H     0.51031697    -2.79572922     0.17681393
      7      C    -1.42826936    -3.49111135    -1.61213888
      8      C    -1.56628413    -2.47642159    -0.44465002
      9      C    -2.52339888    -1.34165506    -0.84374016
     10      C    -2.11173351    -3.21664364     0.80718455
     11      H    -2.21842421    -2.53440573     1.65546938
     12      H    -2.41019891    -3.91190921    -1.84909145
     13      H    -0.76131507    -4.31918453    -1.35270785
     14      H    -1.03941532    -3.00789438    -2.51313601
     15      H    -3.50971241    -1.75255106    -1.07672821
     16      H    -2.17127170    -0.80656872    -1.73025243
     17      H    -2.65047152    -0.61475274    -0.03653395
     18      H    -3.09685007    -3.63689919     0.58289521
     19      H    -1.45590098    -4.03911144     1.10917147
     20      H     2.26893294    -1.39102997     0.52819975
     21     Al     1.84277545     2.42926311    -0.10450006
     22      F     0.16576978     2.43345405    -0.29025583
     23      F     2.69574510     2.66282884    -1.52667199
     24      F     2.40003838     3.20776366     1.26684585
 
Total System Charge             0.00000
 
 *** GOStep19 ***

 Energy gradients wrt nuclear displacements
 ==========================================

     Atom      Cartesian (a.u./angstrom)
                 X         Y         Z
 ----------------------------------------
     1 H    -0.000015  0.000018  0.000088
     2 C    -0.000012 -0.000128 -0.000344
     3 C     0.000256  0.000024  0.000081
     4 C    -0.000605 -0.000121 -0.000270
     5 O     0.000188  0.000688  0.000087
     6 H     0.000051  0.000015  0.000088
     7 C     0.000013  0.000129  0.000164
     8 C    -0.000002 -0.000060  0.000062
     9 C     0.000052 -0.000014  0.000066
    10 C    -0.000028  0.000014  0.000026
    11 H    -0.000013 -0.000002 -0.000011
    12 H    -0.000007 -0.000020 -0.000020
    13 H    -0.000003 -0.000027 -0.000017
    14 H    -0.000000 -0.000015 -0.000031
    15 H    -0.000023 -0.000007 -0.000065
    16 H    -0.000039  0.000024 -0.000017
    17 H    -0.000001  0.000010  0.000002
    18 H    -0.000009  0.000003 -0.000003
    19 H     0.000011  0.000010 -0.000024
    20 H     0.000073  0.000102  0.000088
    21 Al    0.000267 -0.001158  0.000300
    22 F    -0.000378  0.000064 -0.000085
    23 F     0.000148  0.000181 -0.000512
    24 F     0.000077  0.000271  0.000345
 ----------------------------------------
 Mulliken charges used for AMS results%charges...

 dE(predicted):    -0.47980E-05, dE(actual):    -0.63478E-05, Trust radius:    0.800000, all in a.u.
 
----------------------------------------------------------------------
Geometry Convergence after Step  19       (Hartree/Angstrom,Angstrom)
----------------------------------------------------------------------
current energy                               -4.82291640 Hartree
energy change                      -0.00000635     0.00024000    T
constrained gradient max            0.00115917     0.00100000    F
constrained gradient rms            0.00021933     0.00066667    T
gradient max                        0.00115917
gradient rms                        0.00021933
cart. step max                      0.00281252     0.01000000    T
cart. step rms                      0.00099192     0.00666667    T
 
 
--------
Geometry
--------
Formula: C7H12AlF3O
Atoms
  Index Symbol   x (angstrom)   y (angstrom)   z (angstrom)
      1      H    -0.30294703     0.13330851    -0.37354679
      2      C    -0.18415974    -1.99894397    -0.10599683
      3      C     0.29653552    -0.73201279    -0.11162041
      4      C     1.66832682    -0.50775165     0.24996544
      5      O     2.25668798     0.59076110     0.28534580
      6      H     0.50917743    -2.79472022     0.17908797
      7      C    -1.42737833    -3.49078586    -1.61195643
      8      C    -1.56672690    -2.47639662    -0.44417274
      9      C    -2.52453727    -1.34230791    -0.84354693
     10      C    -2.11217028    -3.21737393     0.80719989
     11      H    -2.21950035    -2.53545615     1.65566950
     12      H    -2.40888277    -3.91228844    -1.84934549
     13      H    -0.75979461    -4.31826976    -1.35232679
     14      H    -1.03851812    -3.00690338    -2.51256686
     15      H    -3.51066642    -1.75388099    -1.07595221
     16      H    -2.17263496    -0.80752514    -1.73030939
     17      H    -2.65181805    -0.61516601    -0.03660784
     18      H    -3.09694444    -3.63817767     0.58249288
     19      H    -1.45598454    -4.03953627     1.10926968
     20      H     2.26853751    -1.39142666     0.52538723
     21     Al     1.84372268     2.43033632    -0.10450416
     22      F     0.16699538     2.43550818    -0.29062056
     23      F     2.69815553     2.66307439    -1.52544292
     24      F     2.40155753     3.20651908     1.26748520
 
Total System Charge             0.00000
 
 *** GOStep20 ***

 Energy gradients wrt nuclear displacements
 ==========================================

     Atom      Cartesian (a.u./angstrom)
                 X         Y         Z
 ----------------------------------------
     1 H     0.000037  0.000001 -0.000014
     2 C    -0.000023 -0.000082  0.000062
     3 C     0.000051  0.000077  0.000056
     4 C    -0.000332 -0.000074 -0.000123
     5 O     0.000112  0.000555  0.000074
     6 H     0.000008  0.000004  0.000011
     7 C    -0.000036  0.000014  0.000027
     8 C     0.000073  0.000010 -0.000070
     9 C    -0.000042  0.000020 -0.000002
    10 C     0.000026  0.000013  0.000022
    11 H     0.000007 -0.000002 -0.000009
    12 H    -0.000000 -0.000012 -0.000016
    13 H     0.000001 -0.000002  0.000004
    14 H    -0.000004 -0.000004 -0.000004
    15 H     0.000003 -0.000013  0.000003
    16 H     0.000012 -0.000004  0.000004
    17 H    -0.000013 -0.000012 -0.000011
    18 H     0.000011  0.000006 -0.000014
    19 H    -0.000001  0.000003  0.000000
    20 H     0.000042  0.000049 -0.000047
    21 Al    0.000258 -0.000699  0.000161
    22 F    -0.000231  0.000036 -0.000036
    23 F     0.000026  0.000055 -0.000146
    24 F     0.000015  0.000060  0.000068
 ----------------------------------------
 Mulliken charges used for AMS results%charges...

 dE(predicted):    -0.11601E-05, dE(actual):    -0.11821E-05, Trust radius:    0.800000, all in a.u.
 
---------------------------------------------------------
Geometry Convergence after Step  20       ** CONVERGED **
---------------------------------------------------------
current energy                               -4.82291758 Hartree
energy change                      -0.00000118     0.00024000    T
constrained gradient max            0.00069979     0.00100000    T
constrained gradient rms            0.00012782     0.00066667    T
gradient max                        0.00069979
[...]
 Index  Atom      ---- Displacements (x/y/z) ----
     1     H      -0.000058   0.000025   0.000163
     2     C       0.000011  -0.000017  -0.000015
     3     C       0.000011  -0.000002  -0.000021
     4     C       0.000002   0.000002  -0.000034
     5     O      -0.000001   0.000001   0.000005
     6     H      -0.000218   0.000195   0.000267
     7     C      -0.002466   0.024857   0.023626
     8     C       0.000207  -0.000085  -0.000717
     9     C       0.000246  -0.000039  -0.001171
    10     C      -0.011379  -0.018978   0.025643
    11     H       0.033281  -0.245880  -0.286712
    12     H      -0.374960  -0.150348  -0.080511
    13     H       0.266888  -0.322494   0.114178
    14     H       0.136875   0.181413  -0.310552
    15     H       0.001348   0.000549   0.000012
    16     H      -0.002676  -0.005648   0.008476
    17     H      -0.001497   0.005519   0.004997
    18     H       0.364660   0.150107   0.095122
    19     H      -0.264505   0.318284  -0.108934
    20     H       0.000034  -0.000072   0.000090
    21    Al      -0.000002   0.000000   0.000007
    22     F       0.000002  -0.000000  -0.000003
    23     F       0.000001  -0.000001  -0.000004
    24     F       0.000001  -0.000000  -0.000003
 
 Mode:    63      Frequency (cm-1):     2999.2563     Intensity (km/mol):       20.8214
 Index  Atom      ---- Displacements (x/y/z) ----
     1     H      -0.002025   0.001830  -0.000775
     2     C       0.000980  -0.002414   0.000548
     3     C       0.000692   0.000089   0.000186
     4     C      -0.000859   0.000794  -0.000338
     5     O       0.000075   0.000105   0.000009
     6     H      -0.020058   0.024801  -0.008447
     7     C      -0.001775   0.021518   0.022999
     8     C       0.000539  -0.000319   0.000188
     9     C      -0.011716   0.013006  -0.004883
    10     C       0.011819   0.016452  -0.024853
    11     H      -0.032727   0.237296   0.279847
    12     H      -0.344576  -0.139355  -0.074885
    13     H       0.235066  -0.284056   0.100255
    14     H       0.129156   0.169064  -0.293439
    15     H       0.192756   0.087656   0.044591
    16     H      -0.076008  -0.101379   0.175247
    17     H       0.019778  -0.138970  -0.162744
    18     H      -0.346418  -0.143364  -0.089204
    19     H       0.240258  -0.289249   0.099286
    20     H       0.007307  -0.010470   0.003316
    21    Al      -0.000015  -0.000043   0.000003
    22     F       0.000010   0.000017   0.000001
    23     F       0.000010   0.000011  -0.000010
    24     F       0.000007   0.000014   0.000009
 
 Mode:    64      Frequency (cm-1):     3008.3781     Intensity (km/mol):        7.9804
 Index  Atom      ---- Displacements (x/y/z) ----
     1     H       0.006119  -0.007905   0.002578
     2     C       0.001152  -0.003211   0.000684
     3     C      -0.000131   0.001038  -0.000151
     4     C      -0.000067  -0.000096  -0.000007
     5     O       0.000055   0.000119   0.000003
     6     H      -0.023575   0.030417  -0.010060
     7     C      -0.001519   0.009701   0.008943
     8     C      -0.000265   0.000689  -0.000144
     9     C       0.028122  -0.034937   0.012217
    10     C       0.003914   0.007535  -0.010238
    11     H      -0.013059   0.090732   0.108058
    12     H      -0.134594  -0.054567  -0.029851
    13     H       0.101535  -0.124003   0.041426
    14     H       0.050141   0.065273  -0.114891
    15     H      -0.458415  -0.206431  -0.106244
    16     H       0.187460   0.259069  -0.443209
    17     H      -0.053831   0.353183   0.407956
    18     H      -0.133650  -0.055184  -0.033805
    19     H       0.101060  -0.123831   0.044027
    20     H      -0.001615   0.001491  -0.000641
    21    Al       0.000025  -0.000048   0.000011
    22     F      -0.000032   0.000012  -0.000008
    23     F      -0.000002   0.000014  -0.000007
    24     F      -0.000003   0.000014   0.000002
 
 Mode:    65      Frequency (cm-1):     3072.4713     Intensity (km/mol):        1.4148
 Index  Atom      ---- Displacements (x/y/z) ----
     1     H      -0.018985   0.025441  -0.008228
     2     C      -0.047625   0.059384  -0.020115
     3     C      -0.000357  -0.005136   0.000474
     4     C      -0.002281   0.001403  -0.000815
     5     O       0.000383   0.000264   0.000075
     6     H       0.579418  -0.675579   0.239414
     7     C       0.017879  -0.010590   0.013268
     8     C       0.000868   0.001193   0.000114
     9     C      -0.002459  -0.005021  -0.000012
    10     C       0.020973  -0.011813   0.000333
    11     H      -0.004648   0.061398   0.077295
    12     H      -0.136740  -0.063668  -0.029858
    13     H      -0.117116   0.143458  -0.048108
    14     H       0.040201   0.044009  -0.079881
    15     H       0.024380   0.011813   0.005595
    16     H       0.012631   0.019352  -0.033010
    17     H      -0.005012   0.025378   0.028699
    18     H      -0.132139  -0.062467  -0.032058
    19     H      -0.113625   0.139423  -0.049251
    20     H       0.020577  -0.022842   0.008549
    21    Al      -0.000041  -0.000044   0.000000
    22     F       0.000023   0.000037   0.000003
    23     F       0.000014   0.000006  -0.000012
    24     F       0.000011   0.000010   0.000012
 
 Mode:    66      Frequency (cm-1):     3075.4041     Intensity (km/mol):        0.0565
 Index  Atom      ---- Displacements (x/y/z) ----
     1     H       0.000359  -0.000316  -0.000472
     2     C       0.000381  -0.000460   0.000101
     3     C      -0.000038   0.000059   0.000116
     4     C      -0.000001  -0.000004   0.000070
     5     O       0.000003  -0.000003  -0.000020
     6     H      -0.004274   0.005098  -0.002548
     7     C       0.055894  -0.023057   0.026351
     8     C      -0.000008  -0.000009   0.000069
     9     C       0.000412  -0.000292  -0.001839
    10     C      -0.059305   0.024551  -0.011587
    11     H      -0.004041  -0.073223  -0.098640
    12     H      -0.403865  -0.179352  -0.087141
    13     H      -0.321408   0.403026  -0.132970
    14     H       0.058651   0.050677  -0.093799
    15     H       0.000879   0.000522   0.000869
    16     H      -0.003757  -0.005382   0.009981
    17     H      -0.001822   0.008283   0.009991
    18     H       0.394717   0.178788   0.098758
    19     H       0.316366  -0.397607   0.138308
    20     H      -0.000129   0.000158  -0.000152
    21    Al       0.000001  -0.000000  -0.000001
    22     F      -0.000000  -0.000000  -0.000000
    23     F      -0.000001   0.000000   0.000000
    24     F      -0.000000  -0.000000   0.000000
 
 Mode:    67      Frequency (cm-1):     3079.9127     Intensity (km/mol):       19.9069
 Index  Atom      ---- Displacements (x/y/z) ----
     1     H      -0.012530   0.014785  -0.005174
     2     C      -0.015215   0.018701  -0.006392
     3     C       0.000573  -0.002127   0.000398
     4     C      -0.000850   0.000469  -0.000298
     5     O       0.000135   0.000089   0.000027
     6     H       0.186180  -0.213699   0.076551
     7     C      -0.054337   0.001045  -0.004857
     8     C      -0.001207   0.001010  -0.000472
     9     C       0.032579   0.028730   0.003501
    10     C      -0.049102   0.001332  -0.022890
    11     H      -0.022264   0.077363   0.087592
    12     H       0.413108   0.177014   0.095794
    13     H       0.197959  -0.259290   0.084896
    14     H       0.040385   0.067888  -0.121560
    15     H      -0.345619  -0.148848  -0.081569
    16     H      -0.062012  -0.092795   0.170070
    17     H       0.026228  -0.105717  -0.127757
    18     H       0.404027   0.174737   0.096441
    19     H       0.207240  -0.269929   0.090280
    20     H       0.007680  -0.008386   0.003167
    21    Al      -0.000041  -0.000003  -0.000007
    22     F       0.000037   0.000011   0.000008
    23     F       0.000013  -0.000001  -0.000004
    24     F       0.000010   0.000001   0.000008
 
 Mode:    68      Frequency (cm-1):     3081.5923     Intensity (km/mol):        3.4340
 Index  Atom      ---- Displacements (x/y/z) ----
     1     H      -0.000442   0.000579  -0.000317
     2     C      -0.001658   0.002067  -0.000786
     3     C      -0.000043  -0.000150   0.000089
     4     C      -0.000079   0.000060  -0.000027
     5     O       0.000013   0.000002  -0.000004
     6     H       0.021087  -0.023968   0.007963
     7     C       0.029262   0.042904  -0.036053
     8     C      -0.000067   0.000138  -0.000409
     9     C      -0.013269   0.001924   0.037220
    10     C      -0.016522  -0.041146  -0.033670
    11     H      -0.049232   0.301309   0.366456
    12     H      -0.286389  -0.110989  -0.074334
    13     H       0.135864  -0.147090   0.045306
    14     H      -0.197862  -0.253024   0.460347
    15     H       0.027209   0.013691   0.016227
    16     H       0.105293   0.153449  -0.249435
    17     H       0.026037  -0.190691  -0.208729
    18     H       0.311680   0.122947   0.070439
    19     H      -0.065925   0.065539  -0.033632
    20     H       0.000748  -0.000841   0.000316
    21    Al      -0.000000   0.000000  -0.000007
    22     F       0.000002   0.000000   0.000002
    23     F      -0.000000   0.000001   0.000003
    24     F      -0.000000  -0.000001   0.000003
 
 Mode:    69      Frequency (cm-1):     3082.1970     Intensity (km/mol):       25.4303
 Index  Atom      ---- Displacements (x/y/z) ----
     1     H      -0.002008   0.002830  -0.000876
     2     C      -0.011821   0.014637  -0.004973
     3     C      -0.000294  -0.001066   0.000026
     4     C      -0.000515   0.000417  -0.000196
     5     O       0.000071   0.000010   0.000019
     6     H       0.147522  -0.168464   0.060639
     7     C      -0.007546   0.037706  -0.034269
     8     C      -0.001046   0.001535  -0.000404
     9     C      -0.027606  -0.026983  -0.008026
    10     C      -0.019518   0.054002   0.024521
    11     H       0.043820  -0.324941  -0.400207
    12     H       0.000896   0.011508  -0.008210
    13     H       0.240148  -0.285824   0.090387
    14     H      -0.147964  -0.178674   0.325128
    15     H       0.319832   0.136027   0.074323
    16     H       0.041301   0.060997  -0.118104
    17     H      -0.026709   0.118094   0.141508
    18     H      -0.068166  -0.012166  -0.009658
    19     H       0.259083  -0.309509   0.120395
    20     H       0.004954  -0.005574   0.002066
    21    Al      -0.000010   0.000010  -0.000003
    22     F       0.000006  -0.000003   0.000001
    23     F       0.000002  -0.000004   0.000002
    24     F       0.000002  -0.000004  -0.000000
 
 Mode:    70      Frequency (cm-1):     3086.6172     Intensity (km/mol):       25.1804
 Index  Atom      ---- Displacements (x/y/z) ----
     1     H      -0.001989   0.002393  -0.001154
     2     C      -0.000291   0.000327  -0.000014
     3     C       0.000074  -0.000287   0.000226
     4     C      -0.000026  -0.000026  -0.000033
     5     O       0.000007   0.000014   0.000013
     6     H       0.002371  -0.002847   0.000407
     7     C       0.022238   0.023886  -0.019768
     8     C       0.000936   0.000184  -0.001554
     9     C       0.034544   0.002722  -0.075065
    10     C       0.000790  -0.013938  -0.008724
    11     H      -0.014433   0.096871   0.120932
    12     H      -0.201466  -0.079635  -0.051914
    13     H       0.052347  -0.052992   0.016130
    14     H      -0.118360  -0.150488   0.276928
    15     H      -0.135537  -0.061748  -0.051945
    16     H      -0.227813  -0.337934   0.552331
    17     H      -0.050201   0.366440   0.397558
    18     H       0.045752   0.014870   0.010283
    19     H      -0.044710   0.051748  -0.020415
    20     H       0.000212  -0.000112  -0.000056
    21    Al      -0.000003  -0.000010  -0.000015
    22     F      -0.000000   0.000006   0.000013
    23     F       0.000002   0.000005   0.000006
    24     F       0.000001   0.000004   0.000008
 
 Mode:    71      Frequency (cm-1):     3087.1513     Intensity (km/mol):       32.5399
 Index  Atom      ---- Displacements (x/y/z) ----
     1     H       0.007807  -0.008854   0.003081
     2     C       0.001023  -0.001224   0.000455
     3     C      -0.000464   0.001108  -0.000207
     4     C       0.000141   0.000085   0.000023
     5     O      -0.000041  -0.000052  -0.000002
     6     H      -0.008669   0.010879  -0.003818
     7     C      -0.026791  -0.016370   0.012067
     8     C      -0.001616  -0.001383  -0.000776
     9     C      -0.044248  -0.048831  -0.029939
    10     C      -0.019917  -0.030538  -0.028324
    11     H      -0.039362   0.233472   0.284584
    12     H       0.237801   0.099432   0.060490
    13     H       0.000741  -0.011505   0.005488
    14     H       0.084924   0.112867  -0.205204
    15     H       0.557650   0.234921   0.125643
    16     H       0.032953   0.051687  -0.112407
    17     H      -0.060115   0.299635   0.344988
    18     H       0.301705   0.121983   0.066250
    19     H      -0.019996   0.012605  -0.012664
    20     H      -0.000794   0.000506  -0.000316
    21    Al       0.000032   0.000031  -0.000002
    22     F      -0.000027  -0.000023  -0.000001
    23     F      -0.000012  -0.000010   0.000011
    24     F      -0.000011  -0.000013  -0.000008
 
 Mode:    72      Frequency (cm-1):     3173.3834     Intensity (km/mol):       12.7115
 Index  Atom      ---- Displacements (x/y/z) ----
     1     H      -0.560380   0.785283  -0.243063
     2     C       0.003096   0.002033   0.000644
     3     C       0.047377  -0.070274   0.021024
     4     C      -0.001089  -0.001780  -0.000095
     5     O       0.000225   0.000102   0.000046
     6     H      -0.022277   0.033261  -0.010135
     7     C       0.000088  -0.000136   0.000048
     8     C       0.000264  -0.000205   0.000102
     9     C      -0.000656  -0.001138  -0.000024
    10     C       0.000087  -0.000131   0.000037
    11     H      -0.000085   0.000185   0.000335
    12     H      -0.000563  -0.000201  -0.000130
    13     H      -0.000922   0.001071  -0.000438
    14     H       0.000139   0.000134  -0.000422
    15     H       0.006425   0.003620   0.001391
    16     H       0.004548   0.006394  -0.009733
    17     H      -0.000700   0.008290   0.008807
    18     H      -0.000549  -0.000203  -0.000135
    19     H      -0.000924   0.001044  -0.000324
    20     H      -0.015139   0.015564  -0.006260
    21    Al      -0.000196   0.000159  -0.000032
    22     F       0.000266  -0.000350   0.000062
    23     F       0.000045  -0.000031  -0.000018
    24     F       0.000044  -0.000013   0.000030

PES point character: Geometry corresponds to a local minimum on the PES.




 ============================
 Statistical Thermal Analysis  ***  ideal gas assumed  ***
 ============================
  
 Pressure:                  1.000000 atm.
 Temperature:             298.150000 K



 Moments of Inertia [amu*bohr^2] and principal axis
 ==================================================

        1071.6034       6203.4903       6320.2191
 ------------------------------------------------
           0.5785          0.7673         -0.2767
           0.8134         -0.5679          0.1257
           0.0607          0.2978          0.9527


 The rotational contribution to the molecular entropy includes
 a term, dependent on the symmetry number sigma. The results 
 reported below were computed using sigma = 1, determined from
 the point group symmetry of the input geometry (NOSYM). 
 If this is not the correct symmetry, try symmetrizing the molecule before
 running the calculation (note: linear molecules should be aligned along one
 of the Cartesian axes).
 Contributions from frequencies below 20 1/cm are not included in vibrational sums.
 Their contributions, if any, are reported separately.


     Temp                                                        Transl      Rotat     Vibrat     Total
     ----                                                        ------      -----     ------     -----

     298.15   Entropy (cal/mol-K):                               41.725     32.108     46.722    120.554
              Nuclear Internal Energy (kcal/mol):                 0.889      0.889    120.752    122.529
              Constant Volume Heat Capacity (cal/mol-K):          2.981      2.981     45.926     51.887
          (c) Constant Volume Heat Capacity (cal/mol-K):          2.981      2.981     43.622     49.583

 Contributions from frequencies below 20 1/cm
 Frequency (1/cm):                                    5.168
 Entropy (cal/mol-K):                                 9.323
 Nuclear Internal Energy (kcal/mol):                  0.593
 Constant Volume Heat Capacity (cal/mol-K):           1.987

       Summary of energy terms
                                                   hartree              eV         kcal/mol           kJ/mol
                                      --------------------     -----------       ----------      -----------
      Energy from Engine:               -4.822917578059902       -131.2383         -3026.43        -12662.57
      Nuclear Internal Energy:           0.195263141159301          5.3134           122.53           512.66
  (c) Nuclear Internal Energy:           0.194027771875783          5.2798           121.75           509.42
      Internal Energy U:                -4.627654436900600       -125.9249         -2903.90        -12149.91
      pV/n = RT:                         0.000944186013486          0.0257             0.59             2.48
      Enthalpy H:                       -4.626710250887114       -125.8992         -2903.30        -12147.43
      -T*S:                             -0.057279297910427         -1.5586           -35.94          -150.39
  (c) -T*S:                             -0.058300658765805         -1.5864           -36.58          -153.07
      Gibbs free energy:                -4.683989548797541       -127.4578         -2939.25        -12297.81
 
 
 
  (c) The properties marked with this symbol have been corrected using 'low vibrational frequency free rotor
      interpolation corrections'. For those terms all positive frequencies are used (also ones below 20 1/cm),
      but the contribution to the partition function of small vibrational frequencies is modified as described
      in the following paper:
      S. Grimme, 'Supramolecular Binding Thermodynamics by Dispersion-Corrected Density Functional Theory'
      (Chem. Eur. J. 2012, 18, 9955-9964)
      Configuration: Dampener Frequency          :   100.000 1/cm
                     Dampener Alpha              :     4.000
                     Averaging Moment of Inertia : 1.000E-44 kg m2

--------------
Atomic charges
--------------
  Index   Atom    Charge
      1      H   -0.1039
      2      C    0.4155
      3      C    0.1628
      4      C    0.7213
      5      O   -0.5807
      6      H   -0.2076
      7      C    0.7214
      8      C   -0.0579
      9      C    0.7298
     10      C    0.7215
     11      H   -0.2233
     12      H   -0.2221
     13      H   -0.2404
     14      H   -0.2224
     15      H   -0.2521
     16      H   -0.2333
     17      H   -0.2307
     18      H   -0.2216
     19      H   -0.2400
     20      H   -0.2583
     21     Al    1.7300
     22      F   -0.6499
     23      F   -0.6301
     24      F   -0.6278


Dipole moment vector    (Debye):    -4.19706984   -9.95277683    0.16072536
              magnitude (Debye):    10.80273088


Final PES point is a local minimum. Geometry optimization successful!


AMS application finished. Exiting.
NORMAL TERMINATION
     Total cpu time:   44908.85
  Total system time:     208.81
 Total elapsed time:   90724.89
 WARNING: total elapsed time is much higher than the (CPU+system) time. 
 Make sure the machine is not oversubscribed and has enough memory, SCM_TMPDIR p
 oints to a fast file system, and the network is fast enough.
