

 Parallel Execution: Process Information
 ==============================================================================
 Rank   Node Name                              NodeID   MyNodeRank  NodeMaster
    0   DESKTOP-1M8FOJT                           0          0          0
    1   DESKTOP-1M8FOJT                           0          1         -1
    2   DESKTOP-1M8FOJT                           0          2         -1
    3   DESKTOP-1M8FOJT                           0          3         -1
 ==============================================================================


May use up to 4096MB of RAM as shared memory on node 0

 *******************************************************************************
 *                                                                             *
 *  --------------------------------                                           *
 *   Amsterdam Modeling Suite (AMS)              2021.106                      *
 *  --------------------------------                                           *
 *                                               r99350 2021-12-03             *
 *                                                                             *
 *                                                                             *
 *                              =================                              *
 *                              |               |                              *
 *                              |     A M S     |                              *
 *                              |               |                              *
 *                              =================                              *
 *                                                                             *
 *                                                                             *
 *   Online information and documentation:  https://www.scm.com/support/       *
 *   E-mail:  support@scm.com   info@scm.com                                   *
 *                                                                             *
 *   Scientific publications using AMS results must be properly referenced     *
 *   See the User Manuals (or the web site) for recommended citations          *
 *   The terms and conditions of the End User License Agreement apply to       *
 *   the use of AMS, https://www.scm.com/license-terms/                        *
 *                                                                             *
 *********************  x86_64_windows_amdZen / intelmpi  **********************
 
 Licensed to: Mr. Yuman Hordijk / SCM / Amsterdam / Netherlands 2021-10-04 09:39:26
 SCM User ID: u24430
  
 AMS 2021.106  RunTime: Jan26-2022 14:14:17  ShM Nodes: 1  Procs: 4

 AMS jobname: ams
 AMS jobid  : 1208984790

 Start   directory: Z:/SCMTMP/user/
 Results directory: Z:/SCMTMP/user/ams.results/
 Scratch directory: Z:/SCMTMP/amstmp_ams_kid0.1208984790/


 Communication costs MPI_COMM_WORLD:      1.780 usec per message,   0.0053 usec per 8-byte item
 Communication costs for intra-node:      1.749 usec per message,   0.0052 usec per 8-byte item

 RNG seed: -1134016479 952064566 -592029259 1054721095 1493465285 -1201976069 532331385 670523727
       ***************************
       *  GEOMETRY OPTIMIZATION  *
       ***************************

Optimization Method                    Quasi Newton
Optimization Coordinates               Delocalized Coordinates
Optimize lattice                       F
 
 ------------------------------------------------------
 Convergence criteria (Hartree,Angstrom)
 ------------------------------------------------------
 Maximum gradient               0.001000000000
 Maximum rms gradient           0.000666666667
 Maximum step allowed           0.010000000000
 Maximum rms step allowed       0.006666666667
 Maximum energy change allowe   0.000180000000
 Maximum stress energy allowe   0.000500000000
 
Initial model Hessian                  Automatic Hessian
 
------------------------------------
Quasi-Newton Optimizer Parameters
------------------------------------
Hessian Update Method                  BFGS
Maximum number of steps                  250
First GDIIS cycle                          0
Maximum GDIIS vectors                      0
Trust radius (bohr)                        0.200000
Trust radius varies                        T
Constraints converged at all steps         T
Use projector                              T
 
 Rigid motions settings for: old optimizer
 Atomic rotations (x,y,z):     T T T
 Atomic translations (x,y,z):  T T T
 Tolerance:                   1.000000000000000E-006
 
--------
Geometry
--------
Formula: C9H8O
Atoms
  Index Symbol   x (angstrom)   y (angstrom)   z (angstrom)
      1      C    -5.39256695    -0.31527136    -0.00681793
      2      C    -4.23234423    -0.99614311    -0.01466782
      3      C    -2.93957913    -0.31050528    -0.00054570
      4      O    -1.87800688    -0.88183790    -0.00507472
      5      H    -4.19102831    -2.07970562    -0.03110502
      6      H    -3.01063759     0.79932419     0.01207062
      7      C    -5.66471822     1.19228478    -0.16432399
      8      C    -5.11747564     2.10181776     0.74921497
      9      C    -5.36496658     3.47277014     0.60598094
     10      C    -6.15970006     3.93418940    -0.45079206
     11      C    -6.70694260     3.02465641    -1.36433096
     12      C    -6.45945168     1.65370408    -1.22109694
     13      H    -4.51027015     1.74927645     1.55662820
     14      H    -4.94685325     4.16768673     1.30395814
     15      H    -6.34879222     4.98164723    -0.56022815
     16      H    -7.31414808     3.37719769    -2.17174421
     17      H    -6.87756505     0.95878750    -1.91907415
     18      H    -6.27430059    -0.92323559     0.13219749
 
Total System Charge             0.00000
Bonding info available!
 
 
-------------------------
DFTB Engine configuration
-------------------------
DFTB Resources dir                     Z:/AMS2021.106/atomicdata/DFTB/GFN1-xTB
 
SCC convergence enabled.
Maximum SCC cycles                       500
SCC charge convergence                   0.000000010000
SCC charge mixing                        0.150000000000
DIIS max dimension                       20
DIIS maximum coeff.                     10.000000000000
Adaptive SCC charge mixing             T
Adaptive SCC mixing strategy              3
Spin polarization                      F
Orbital-dependent SCC                  T
Orbital fill strategy                  Fermi
Fermi temperature (kelvin)                     300.0000
  ... kT (Hartree)                               0.0010
Use of symmetry                        T
Radial function extrapolation method   Auto

 Settings for Grimme D3 dispersion correction

      damping                        BJ
      s6                          1.000
      s8                          2.400
      a1                          0.630
      a2                          5.000

 Other (technical) parameters

      alpha                      14.000
      version                         4
 

---------------------
Periodic DFTB options
---------------------
 kpoints config
 grid method with params
Assume insulator                        F
Ewald tolerance                    1.00E-10
Ewald range factor                  2.00

 BZStruct config
 ---------------
 Enabled        T
 Automatic      T
 CalcFatBands   T
 useSymmetry    T
 deltaK          0.100000000000000     
 
 Using automatic Hessian for delocalized coordinates.
 
----------------------------------------------------------------------
Geometry Convergence after Step   1       (Hartree/Angstrom,Angstrom)
----------------------------------------------------------------------
current energy                              -27.96241556 Hartree
energy change                     -27.96241556     0.00018000    F
constrained gradient max            0.04716791     0.00100000    F
constrained gradient rms            0.01636687     0.00066667    F
gradient max                        0.04716791
gradient rms                        0.01636687
cart. step max                      0.11588287     0.01000000    F
cart. step rms                      0.03378693     0.00666667    F
 
 
--------
Geometry
--------
Formula: C9H8O
Atoms
  Index Symbol   x (angstrom)   y (angstrom)   z (angstrom)
      1      C    -5.42242869    -0.29863636     0.00715887
      2      C    -4.25186436    -0.94745703     0.00008612
      3      C    -2.95166967    -0.26854525    -0.06286668
      4      O    -1.89369868    -0.84627950    -0.05048491
      5      H    -4.21184682    -2.02977204     0.03385166
      6      H    -3.01155686     0.84009907    -0.10381225
      7      C    -5.66151554     1.17883422    -0.14167826
      8      C    -5.13175619     2.08486737     0.77587790
      9      C    -5.37124207     3.44502552     0.62126351
     10      C    -6.13531789     3.90052131    -0.44718168
     11      C    -6.66427543     2.99481224    -1.36016144
     12      C    -6.43133236     1.63376100    -1.20814497
     13      H    -4.54497990     1.73172940     1.60887619
     14      H    -4.96385267     4.14675987     1.33165372
     15      H    -6.31948555     4.95643061    -0.56686514
     16      H    -7.25764530     3.34800097    -2.18847112
     17      H    -6.84191572     0.93191319    -1.91706046
     18      H    -6.32296353    -0.89542107     0.11820765
 
Total System Charge             0.00000
Bonding info available!
 

 dE(predicted):    -0.50120E-02, dE(actual):    -0.56214E-02, Trust radius:    0.400000, all in a.u.
 
----------------------------------------------------------------------
Geometry Convergence after Step   2       (Hartree/Angstrom,Angstrom)
----------------------------------------------------------------------
current energy                              -27.96803700 Hartree
energy change                      -0.00562143     0.00018000    F
constrained gradient max            0.03625476     0.00100000    F
constrained gradient rms            0.00771998     0.00066667    F
gradient max                        0.03625476
gradient rms                        0.00771998
cart. step max                      0.21217721     0.01000000    F
cart. step rms                      0.04146276     0.00666667    F
 
 
--------
Geometry
--------
Formula: C9H8O
Atoms
  Index Symbol   x (angstrom)   y (angstrom)   z (angstrom)
      1      C    -5.44264248    -0.29874838     0.00010019
      2      C    -4.25622398    -0.91393449     0.05004173
      3      C    -2.96305456    -0.22705558    -0.07553180
      4      O    -1.90481113    -0.80130910    -0.05224525
      5      H    -4.20103028    -1.98918953     0.17961400
      6      H    -3.03440001     0.85474320    -0.31598945
      7      C    -5.66408446     1.15753975    -0.13685984
      8      C    -5.14063000     2.05908978     0.78855289
      9      C    -5.37104154     3.41883929     0.63822924
     10      C    -6.11527011     3.88561969    -0.43634581
     11      C    -6.63937738     2.98917233    -1.35745973
     12      C    -6.42449155     1.62747124    -1.20557335
     13      H    -4.57025827     1.69618244     1.63479973
     14      H    -4.96685298     4.11645847     1.36182473
     15      H    -6.29041586     4.94820836    -0.55399556
     16      H    -7.22136083     3.35167536    -2.19632631
     17      H    -6.83335432     0.92930185    -1.92618510
     18      H    -6.35004750    -0.89742118     0.05359839
 
Total System Charge             0.00000
Bonding info available!
 

 dE(predicted):    -0.20775E-02, dE(actual):    -0.13910E-02, Trust radius:    0.400000, all in a.u.
 
----------------------------------------------------------------------
Geometry Convergence after Step   3       (Hartree/Angstrom,Angstrom)
----------------------------------------------------------------------
current energy                              -27.96942796 Hartree
energy change                      -0.00139096     0.00018000    F
constrained gradient max            0.02039642     0.00100000    F
constrained gradient rms            0.00443252     0.00066667    F
gradient max                        0.02039642
gradient rms                        0.00443252
cart. step max                      0.17655624     0.01000000    F
cart. step rms                      0.04684035     0.00666667    F
 
 
--------
Geometry
--------
Formula: C9H8O
Atoms
  Index Symbol   x (angstrom)   y (angstrom)   z (angstrom)
      1      C    -5.46334588    -0.30830139    -0.04667126
      2      C    -4.26101695    -0.88560483     0.06329585
      3      C    -2.97665490    -0.18730960    -0.09462950
      4      O    -1.91576868    -0.71265885     0.12431100
      5      H    -4.18917473    -1.95486913     0.23881779
      6      H    -3.05946735     0.90341756    -0.28412789
      7      C    -5.66828249     1.12611430    -0.16683947
      8      C    -5.10127102     2.02050599     0.74209637
      9      C    -5.32124998     3.38283229     0.61184055
     10      C    -6.09594951     3.87010462    -0.43039925
     11      C    -6.66550651     2.98828562    -1.33715845
     12      C    -6.46656272     1.62366615    -1.20103173
     13      H    -4.50555775     1.64133845     1.56931599
     14      H    -4.88004448     4.07043638     1.33023157
     15      H    -6.26066781     4.94032421    -0.53375768
     16      H    -7.27493268     3.36603699    -2.15569305
     17      H    -6.91333619     0.93449105    -1.91418465
     18      H    -6.37055760    -0.91216631    -0.06516744
 
Total System Charge             0.00000
Bonding info available!
 

 dE(predicted):    -0.17299E-02, dE(actual):     0.84946E-03, Trust radius:    0.100000, all in a.u.
 
----------------------------------------------------------------------
Geometry Convergence after Step   4       (Hartree/Angstrom,Angstrom)
----------------------------------------------------------------------
current energy                              -27.96857850 Hartree
energy change                       0.00084946     0.00018000    F
constrained gradient max            0.03653762     0.00100000    F
constrained gradient rms            0.00705310     0.00066667    F
gradient max                        0.03653762
gradient rms                        0.00705310
cart. step max                      0.04047185     0.01000000    F
cart. step rms                      0.01286979     0.00666667    F
 
 
--------
Geometry
--------
Formula: C9H8O
Atoms
  Index Symbol   x (angstrom)   y (angstrom)   z (angstrom)
      1      C    -5.45126333    -0.30757379    -0.04848900
      2      C    -4.25390560    -0.89992126     0.06852773
      3      C    -2.96296649    -0.21056324    -0.06421341
      4      O    -1.90199277    -0.75313071     0.11997735
      5      H    -4.19078422    -1.97186094     0.22914566
      6      H    -3.03259124     0.87538943    -0.28409256
      7      C    -5.66764007     1.13857161    -0.17191259
      8      C    -5.10300426     2.03478210     0.73814140
      9      C    -5.32948190     3.39711289     0.61066769
     10      C    -6.10983850     3.88162659    -0.42990269
     11      C    -6.67786979     2.99702035    -1.33718761
     12      C    -6.47085168     1.63301648    -1.20357683
     13      H    -4.50607377     1.65843253     1.56235558
     14      H    -4.89159489     4.08423763     1.32738479
     15      H    -6.28007538     4.94836958    -0.53113681
     16      H    -7.28998610     3.37160716    -2.15134964
     17      H    -6.91499536     0.94398552    -1.91461193
     18      H    -6.35443189    -0.91445844    -0.06947843
 
Total System Charge             0.00000
Bonding info available!
 

 dE(predicted):    -0.12692E-02, dE(actual):    -0.12849E-02, Trust radius:    0.200000, all in a.u.
 
----------------------------------------------------------------------
Geometry Convergence after Step   5       (Hartree/Angstrom,Angstrom)
----------------------------------------------------------------------
current energy                              -27.96986342 Hartree
energy change                      -0.00128492     0.00018000    F
constrained gradient max            0.02063793     0.00100000    F
constrained gradient rms            0.00333376     0.00066667    F
gradient max                        0.02063793
gradient rms                        0.00333376
cart. step max                      0.10252205     0.01000000    F
cart. step rms                      0.03566305     0.00666667    F
 
 
--------
Geometry
--------
Formula: C9H8O
Atoms
  Index Symbol   x (angstrom)   y (angstrom)   z (angstrom)
      1      C    -5.44921582    -0.30730284    -0.08339470
      2      C    -4.25460598    -0.89563729     0.06222439
      3      C    -2.96530630    -0.19357953     0.03830864
      4      O    -1.90918476    -0.74713530     0.20998971
      5      H    -4.19032820    -1.97479378     0.16075735
      6      H    -3.02637219     0.89153070    -0.18684517
      7      C    -5.66579840     1.13612374    -0.19840057
      8      C    -5.06975968     2.02775062     0.69526105
      9      C    -5.29664869     3.38932504     0.57936485
     10      C    -6.11167123     3.87762139    -0.43083551
     11      C    -6.71230163     2.99707773    -1.31980402
     12      C    -6.50089572     1.63461227    -1.20055879
     13      H    -4.44692554     1.64751676     1.49853972
     14      H    -4.83334951     4.07312735     1.28316859
     15      H    -6.28399415     4.94486795    -0.52263213
     16      H    -7.35298766     3.37491426    -2.11003540
     17      H    -6.97078693     0.94805035    -1.89776357
     18      H    -6.34921484    -0.91742592    -0.12709571
 
Total System Charge             0.00000
Bonding info available!
 

 dE(predicted):    -0.83505E-03, dE(actual):    -0.51695E-03, Trust radius:    0.200000, all in a.u.
 
----------------------------------------------------------------------
Geometry Convergence after Step   6       (Hartree/Angstrom,Angstrom)
----------------------------------------------------------------------
current energy                              -27.97038036 Hartree
energy change                      -0.00051695     0.00018000    F
constrained gradient max            0.00360630     0.00100000    F
constrained gradient rms            0.00159158     0.00066667    F
gradient max                        0.00360630
gradient rms                        0.00159158
cart. step max                      0.06765936     0.01000000    F
cart. step rms                      0.02322540     0.00666667    F
 
 
--------
Geometry
--------
Formula: C9H8O
Atoms
  Index Symbol   x (angstrom)   y (angstrom)   z (angstrom)
      1      C    -5.43052665    -0.29849046    -0.09708897
      2      C    -4.24472510    -0.90232406     0.07589270
      3      C    -2.94142096    -0.22890602     0.04981786
      4      O    -1.90236326    -0.79779836     0.27005907
      5      H    -4.19707716    -1.98260877     0.17299958
      6      H    -2.96936606     0.83792795    -0.25450453
      7      C    -5.65607158     1.14824573    -0.20602995
      8      C    -5.06746775     2.04487157     0.69091973
      9      C    -5.30228902     3.40680075     0.57647079
     10      C    -6.12711833     3.89135719    -0.42959102
     11      C    -6.73266068     3.00581830    -1.31262824
     12      C    -6.51045309     1.64350411    -1.19555893
     13      H    -4.46022839     1.66782432     1.50574271
     14      H    -4.84563988     4.09149855     1.28178670
     15      H    -6.30938055     4.95594133    -0.51746079
     16      H    -7.38505347     3.37904908    -2.09364940
     17      H    -6.98265216     0.95492891    -1.88734338
     18      H    -6.32485311    -0.91099662    -0.17958521
 
Total System Charge             0.00000
Bonding info available!
 

 dE(predicted):    -0.28982E-03, dE(actual):    -0.21289E-03, Trust radius:    0.200000, all in a.u.
 
----------------------------------------------------------------------
Geometry Convergence after Step   7       (Hartree/Angstrom,Angstrom)
----------------------------------------------------------------------
current energy                              -27.97059325 Hartree
energy change                      -0.00021289     0.00018000    F
constrained gradient max            0.00475574     0.00100000    F
constrained gradient rms            0.00119854     0.00066667    F
gradient max                        0.00475574
gradient rms                        0.00119854
cart. step max                      0.11634142     0.01000000    F
cart. step rms                      0.02869086     0.00666667    F
 
 
--------
Geometry
--------
Formula: C9H8O
Atoms
  Index Symbol   x (angstrom)   y (angstrom)   z (angstrom)
      1      C    -5.42648715    -0.30070802    -0.13643108
      2      C    -4.24260765    -0.90194854     0.06544961
      3      C    -2.93997022    -0.22645741     0.09244641
      4      O    -1.91179220    -0.78514642     0.38640049
      5      H    -4.19588627    -1.98178047     0.16946288
      6      H    -2.95479313     0.83715461    -0.22451110
      7      C    -5.66059693     1.14509295    -0.22227483
      8      C    -5.04552798     2.03891667     0.66067410
      9      C    -5.28188182     3.40174490     0.55805427
     10      C    -6.13232406     3.89152674    -0.42428530
     11      C    -6.76200177     3.01007768    -1.29486269
     12      C    -6.53881922     1.64675648    -1.18863019
     13      H    -4.40826303     1.65954029     1.45113098
     14      H    -4.80034676     4.08379107     1.24934836
     15      H    -6.31224118     4.95706329    -0.50579914
     16      H    -7.43447773     3.38732428    -2.05680980
     17      H    -7.02805163     0.96188932    -1.87231735
     18      H    -6.31327850    -0.91819391    -0.25679693
 
Total System Charge             0.00000
Bonding info available!
 

 dE(predicted):    -0.14299E-03, dE(actual):    -0.18338E-03, Trust radius:    0.200000, all in a.u.
 
----------------------------------------------------------------------
Geometry Convergence after Step   8       (Hartree/Angstrom,Angstrom)
----------------------------------------------------------------------
current energy                              -27.97077663 Hartree
energy change                      -0.00018338     0.00018000    F
constrained gradient max            0.00319414     0.00100000    F
constrained gradient rms            0.00094358     0.00066667    F
gradient max                        0.00319414
gradient rms                        0.00094358
cart. step max                      0.12946850     0.01000000    F
cart. step rms                      0.03154078     0.00666667    F
 
 
--------
Geometry
--------
Formula: C9H8O
Atoms
  Index Symbol   x (angstrom)   y (angstrom)   z (angstrom)
      1      C    -5.41909671    -0.29641142    -0.17353371
      2      C    -4.24181628    -0.89957028     0.05954026
      3      C    -2.93873542    -0.22996314     0.14393802
      4      O    -1.93337519    -0.78299075     0.51586899
      5      H    -4.19933978    -1.98174358     0.13916034
      6      H    -2.92938762     0.82740100    -0.19394017
      7      C    -5.65225026     1.14505369    -0.24366053
      8      C    -5.01300947     2.03852307     0.62267725
      9      C    -5.25732710     3.40010619     0.53252850
     10      C    -6.13946368     3.89075003    -0.42055498
     11      C    -6.79389158     3.01076850    -1.27354060
     12      C    -6.56262672     1.64858681    -1.17981473
     13      H    -4.35734990     1.65919311     1.39853981
     14      H    -4.76076740     4.08106117     1.21498692
     15      H    -6.32674632     4.95631491    -0.49107175
     16      H    -7.49185787     3.38889234    -2.01254703
     17      H    -7.07288318     0.96444202    -1.84958150
     18      H    -6.29942275    -0.91377017    -0.33874640
 
Total System Charge             0.00000
Bonding info available!
 

 dE(predicted):    -0.82035E-04, dE(actual):    -0.74706E-04, Trust radius:    0.400000, all in a.u.
 
----------------------------------------------------------------------
Geometry Convergence after Step   9       (Hartree/Angstrom,Angstrom)
----------------------------------------------------------------------
current energy                              -27.97085134 Hartree
energy change                      -0.00007471     0.00018000    T
constrained gradient max            0.00227065     0.00100000    F
constrained gradient rms            0.00052689     0.00066667    T
gradient max                        0.00227065
gradient rms                        0.00052689
cart. step max                      0.02692437     0.01000000    F
cart. step rms                      0.00559469     0.00666667    T
 
 
--------
Geometry
--------
Formula: C9H8O
Atoms
  Index Symbol   x (angstrom)   y (angstrom)   z (angstrom)
      1      C    -5.41548260    -0.29481990    -0.18224218
      2      C    -4.24012845    -0.89934611     0.05509002
      3      C    -2.93686669    -0.23224556     0.14889891
      4      O    -1.93892313    -0.78204830     0.54279336
      5      H    -4.20040041    -1.98131851     0.13794981
      6      H    -2.91864033     0.81773297    -0.21145079
      7      C    -5.65223341     1.14590793    -0.24479343
      8      C    -5.01353261     2.03897222     0.62227637
      9      C    -5.25707497     3.40055380     0.53183289
     10      C    -6.14115805     3.89132509    -0.41934301
     11      C    -6.79809637     3.01134070    -1.27048869
     12      C    -6.56594026     1.64942644    -1.17783743
     13      H    -4.35520547     1.66081117     1.39607491
     14      H    -4.75677073     4.08173768     1.21098302
     15      H    -6.32813429     4.95676140    -0.48964470
     16      H    -7.49844250     3.38943978    -2.00692168
     17      H    -7.07699224     0.96565676    -1.84710640
     18      H    -6.29532472    -0.91324405    -0.34582226
 
Total System Charge             0.00000
Bonding info available!
 

 dE(predicted):    -0.16754E-04, dE(actual):    -0.16132E-04, Trust radius:    0.400000, all in a.u.
 
----------------------------------------------------------------------
Geometry Convergence after Step  10       (Hartree/Angstrom,Angstrom)
----------------------------------------------------------------------
current energy                              -27.97086747 Hartree
energy change                      -0.00001613     0.00018000    T
constrained gradient max            0.00104594     0.00100000    F
constrained gradient rms            0.00024280     0.00066667    T
gradient max                        0.00104594
gradient rms                        0.00024280
cart. step max                      0.00809863     0.01000000    T
cart. step rms                      0.00201112     0.00666667    T
 
 
--------
Geometry
--------
Formula: C9H8O
Atoms
  Index Symbol   x (angstrom)   y (angstrom)   z (angstrom)
      1      C    -5.41674668    -0.29531351    -0.17777640
      2      C    -4.24059027    -0.90026260     0.05374860
      3      C    -2.93816233    -0.23146057     0.14680738
      4      O    -1.93951279    -0.77810972     0.54360781
      5      H    -4.20007307    -1.98238336     0.13383445
      6      H    -2.92155900     0.81672848    -0.21954942
      7      C    -5.65253410     1.14575838    -0.24207716
      8      C    -5.01389087     2.03920442     0.62437857
      9      C    -5.25755668     3.40083903     0.53306604
     10      C    -6.14041677     3.89126333    -0.41948062
     11      C    -6.79611297     3.01085774    -1.27132626
     12      C    -6.56417384     1.64893435    -1.17750254
     13      H    -4.35654239     1.66190841     1.39925244
     14      H    -4.75870360     4.08228231     1.21283466
     15      H    -6.32704670     4.95659499    -0.49061508
     16      H    -7.49524463     3.38867842    -2.00886530
     17      H    -7.07425654     0.96495401    -1.84709966
     18      H    -6.29622398    -0.91383061    -0.34298881
 
Total System Charge             0.00000
Bonding info available!
 

 dE(predicted):    -0.39894E-05, dE(actual):    -0.42151E-05, Trust radius:    0.400000, all in a.u.
 
---------------------------------------------------------
Geometry Convergence after Step  11       ** CONVERGED **
---------------------------------------------------------
current energy                              -27.97087168 Hartree
energy change                      -0.00000422     0.00018000    T
constrained gradient max            0.00032678     0.00100000    T
constrained gradient rms            0.00011165     0.00066667    T
gradient max                        0.00032678
gradient rms                        0.00011165
cart. step max                      0.00649322     0.01000000    T
cart. step rms                      0.00166675     0.00666667    T
 
Geometry optimization converged

Optimized geometry:
 
--------
Geometry
--------
Formula: C9H8O
Atoms
  Index Symbol   x (angstrom)   y (angstrom)   z (angstrom)
      1      C    -5.41674668    -0.29531351    -0.17777640
      2      C    -4.24059027    -0.90026260     0.05374860
      3      C    -2.93816233    -0.23146057     0.14680738
      4      O    -1.93951279    -0.77810972     0.54360781
      5      H    -4.20007307    -1.98238336     0.13383445
      6      H    -2.92155900     0.81672848    -0.21954942
      7      C    -5.65253410     1.14575838    -0.24207716
      8      C    -5.01389087     2.03920442     0.62437857
      9      C    -5.25755668     3.40083903     0.53306604
     10      C    -6.14041677     3.89126333    -0.41948062
     11      C    -6.79611297     3.01085774    -1.27132626
     12      C    -6.56417384     1.64893435    -1.17750254
     13      H    -4.35654239     1.66190841     1.39925244
     14      H    -4.75870360     4.08228231     1.21283466
     15      H    -6.32704670     4.95659499    -0.49061508
     16      H    -7.49524463     3.38867842    -2.00886530
     17      H    -7.07425654     0.96495401    -1.84709966
     18      H    -6.29622398    -0.91383061    -0.34298881
 
Total System Charge             0.00000
Bonding info available!
 
Performing a single point calculation on the final geometry ...

Estimated upper bound for memory consumption:    0.293 MiB

Number of basis functions:           56
 applying a finite electronic temperature kT  0.000950                                                                                                           
    Cycle:   1, MaxQDiff:   0.000000007432, PartialEnergy:     -28.4092276763, Used mix:   0.150 nvec:    0
 Evaluation was successful


    =====================
     CALCULATION RESULTS
    =====================

Energy (hartree)           -27.97087168

Gradients (hartree/bohr)
  Index   Atom            d/dx            d/dy            d/dz
      1      C    0.0001027041    0.0001030924    0.0000767528
      2      C    0.0000219769    0.0000576122   -0.0000162461
      3      C   -0.0001729259    0.0000635741    0.0000062382
      4      O   -0.0000026277   -0.0000749877   -0.0000581317
      5      H    0.0000319412   -0.0000098880    0.0000345103
      6      H    0.0000614021   -0.0000894801    0.0000050204
      7      C   -0.0001172088   -0.0001576365    0.0000138005
      8      C    0.0000514503    0.0001471816    0.0000656722
      9      C    0.0000260744   -0.0000552193    0.0000716349
     10      C   -0.0000398299    0.0000292977   -0.0000402460
     11      C   -0.0000175220    0.0000455708   -0.0000252815
     12      C    0.0000130664   -0.0000330866   -0.0000250760
     13      H   -0.0000339637    0.0000256223   -0.0000293262
     14      H   -0.0000057440   -0.0000206238   -0.0000247910
     15      H    0.0000158252   -0.0000240063   -0.0000110574
     16      H   -0.0000014036   -0.0000134622    0.0000304280
     17      H    0.0000165521    0.0000165626    0.0000037071
     18      H    0.0000502328   -0.0000101233   -0.0000776086

-----------
Bond orders
-----------

Description: Mayer bond orders
Only bonds with bond orders > 0.200 are printed.

 Index  Atom    Index  Atom    BondOrder
     1     C        2     C        1.792
     1     C        7     C        1.089
     1     C       18     H        0.964
     2     C        3     C        1.072
     2     C        5     H        0.963
     3     C        4     O        1.799
     3     C        6     H        0.937
     7     C        8     C        1.377
     7     C       12     C        1.374
     8     C        9     C        1.452
     8     C       13     H        0.969
     9     C       10     C        1.438
     9     C       14     H        0.972
    10     C       11     C        1.429
    10     C       15     H        0.973
    11     C       12     C        1.462
    11     C       16     H        0.972
    12     C       17     H        0.972


--------------
Atomic charges
--------------
  Index   Atom    Charge
      1      C    0.0025
      2      C   -0.0786
      3      C    0.3825
      4      O   -0.4794
      5      H    0.0615
      6      H    0.0064
      7      C    0.0009
      8      C   -0.0313
      9      C   -0.0220
     10      C   -0.0221
     11      C   -0.0229
     12      C   -0.0291
     13      H    0.0390
     14      H    0.0382
     15      H    0.0366
     16      H    0.0364
     17      H    0.0358
     18      H    0.0457


Dipole moment vector    (Debye):    -3.83337446    1.99477917   -1.12002783
              magnitude (Debye):     4.46411985

 
--------------------
Energy Decomposition
--------------------
Total Energy (hartree)               -27.97087168
Total Energy (eV)                   -761.12614487
Electronic Energy (hartree)          -28.45861481
Coulomb Energy (hartree)               0.04938714
Repulsion Energy (hartree)             0.44741772
Dispersion Energy (hartree)           -0.00906173
 
----------------------
Gradient Decomposition
----------------------
Total Gradients (hartree/bohr)
  Index   Atom            d/dx            d/dy            d/dz
      1      C    0.0001027041    0.0001030924    0.0000767528
      2      C    0.0000219769    0.0000576122   -0.0000162461
      3      C   -0.0001729259    0.0000635741    0.0000062382
      4      O   -0.0000026277   -0.0000749877   -0.0000581317
      5      H    0.0000319412   -0.0000098880    0.0000345103
      6      H    0.0000614021   -0.0000894801    0.0000050204
      7      C   -0.0001172088   -0.0001576365    0.0000138005
      8      C    0.0000514503    0.0001471816    0.0000656722
      9      C    0.0000260744   -0.0000552193    0.0000716349
     10      C   -0.0000398299    0.0000292977   -0.0000402460
     11      C   -0.0000175220    0.0000455708   -0.0000252815
     12      C    0.0000130664   -0.0000330866   -0.0000250760
     13      H   -0.0000339637    0.0000256223   -0.0000293262
     14      H   -0.0000057440   -0.0000206238   -0.0000247910
     15      H    0.0000158252   -0.0000240063   -0.0000110574
     16      H   -0.0000014036   -0.0000134622    0.0000304280
     17      H    0.0000165521    0.0000165626    0.0000037071
     18      H    0.0000502328   -0.0000101233   -0.0000776086
 
Total Gradients (eV/angstrom)
  Index   Atom            d/dx            d/dy            d/dz
      1      C    0.0052812545    0.0053012223    0.0039467887
      2      C    0.0011300998    0.0029625369   -0.0008354095
      3      C   -0.0088922055    0.0032691138    0.0003207814
      4      O   -0.0001351237   -0.0038560202   -0.0029892518
      5      H    0.0016424833   -0.0005084593    0.0017745887
      6      H    0.0031574209   -0.0046012517    0.0002581602
      7      C   -0.0060271198   -0.0081059955    0.0007096493
      8      C    0.0026456789    0.0075683831    0.0033770022
      9      C    0.0013408013   -0.0028394885    0.0036836134
     10      C   -0.0020481337    0.0015065466   -0.0020695328
     11      C   -0.0009010149    0.0023433451   -0.0013000278
     12      C    0.0006719037   -0.0017013802   -0.0012894572
     13      H   -0.0017464824    0.0013175522   -0.0015080118
     14      H   -0.0002953663   -0.0010605197   -0.0012748034
     15      H    0.0008137628   -0.0012344523   -0.0005685931
     16      H   -0.0000721765   -0.0006922540    0.0015646725
     17      H    0.0008511438    0.0008516820    0.0001906277
     18      H    0.0025830737   -0.0005205607   -0.0039907965
 
Electronic Gradients (hartree/bohr)
  Index   Atom            d/dx            d/dy            d/dz
      1      C   -0.0640985093    0.0378717369   -0.0121887161
      2      C    0.0684530994   -0.0279567916    0.0161942986
      3      C   -0.0631302429    0.0427264520   -0.0251556583
      4      O    0.1219980041   -0.0670524789    0.0485961645
      5      H    0.0030301632   -0.0702396913    0.0053749239
      6      H    0.0009390422    0.0551437084   -0.0192807702
      7      C    0.0086708730   -0.0357427966    0.0016843781
      8      C    0.0250251739   -0.0199248653    0.0218614484
      9      C    0.0189062690    0.0273717656    0.0252167659
     10      C   -0.0066315881    0.0405378094   -0.0041267460
     11      C   -0.0261710225    0.0176921525   -0.0279704050
     12      C   -0.0155107324   -0.0310641559   -0.0184423013
     13      H    0.0432204326   -0.0247621805    0.0510361664
     14      H    0.0327781304    0.0447086411    0.0446227371
     15      H   -0.0122552759    0.0700619237   -0.0046891389
     16      H   -0.0458683073    0.0247733073   -0.0483610127
     17      H   -0.0333278462   -0.0446916425   -0.0437920914
     18      H   -0.0560276632   -0.0394528943   -0.0105800429
 
Coulomb Gradients (hartree/bohr)
  Index   Atom            d/dx            d/dy            d/dz
      1      C   -0.0000761332   -0.0000238268   -0.0000252966
      2      C    0.0002384752   -0.0005016888    0.0001919554
      3      C   -0.0144919843    0.0080836039   -0.0056079477
      4      O    0.0146445100   -0.0078126652    0.0056672384
      5      H   -0.0003919125    0.0002801039   -0.0001618106
      6      H   -0.0000825056   -0.0000691273    0.0000147491
      7      C    0.0000309094   -0.0000914590    0.0000027107
      8      C    0.0000448340    0.0000113578    0.0000767309
      9      C    0.0000443323    0.0000706882    0.0000605115
     10      C   -0.0000118078    0.0000905264   -0.0000032918
     11      C   -0.0000547711    0.0000438516   -0.0000573831
     12      C   -0.0000419603   -0.0000191239   -0.0000484150
     13      H   -0.0000583804   -0.0000362997   -0.0001709018
     14      H   -0.0000548225   -0.0000629876   -0.0000683432
     15      H    0.0000106781   -0.0000884667    0.0000043407
     16      H    0.0000522580   -0.0000360728    0.0000570837
     17      H    0.0000559948    0.0000091280    0.0000742165
     18      H    0.0001422860    0.0001524581   -0.0000061472
 
Repulsion Gradients (hartree/bohr)
  Index   Atom            d/dx            d/dy            d/dz
      1      C    0.0642886978   -0.0376768904    0.0122926507
      2      C   -0.0687243732    0.0286253428   -0.0164175473
      3      C    0.0773469577   -0.0506619474    0.0307585455
      4      O   -0.1367489513    0.0748509180   -0.0543342669
      5      H   -0.0026234239    0.0700115090   -0.0051819631
      6      H   -0.0008754650   -0.0551262192    0.0192668533
      7      C   -0.0087828127    0.0356362886   -0.0016669600
      8      C   -0.0249651142    0.0200118342   -0.0218554972
      9      C   -0.0188807858   -0.0275870171   -0.0252110200
     10      C    0.0066321823   -0.0406463775    0.0040933953
     11      C    0.0262455621   -0.0177499625    0.0280159598
     12      C    0.0156088996    0.0310045101    0.0184652425
     13      H   -0.0432153062    0.0248045032   -0.0509413534
     14      H   -0.0327429248   -0.0447278145   -0.0446175866
     15      H    0.0122725103   -0.0700547651    0.0046777576
     16      H    0.0458544007   -0.0247806660    0.0483734447
     17      H    0.0333419186    0.0447091171    0.0437685890
     18      H    0.0559680280    0.0393576366    0.0105137561
 
Dispersion Gradients (hartree/bohr)
  Index   Atom            d/dx            d/dy            d/dz
      1      C   -0.0000113512   -0.0000679273   -0.0000018852
      2      C    0.0000547756   -0.0001092502    0.0000150471
      3      C    0.0001023436   -0.0000845344    0.0000112987
      4      O    0.0001038094   -0.0000607616    0.0000127323
      5      H    0.0000171144   -0.0000618095    0.0000033600
      6      H    0.0000803305   -0.0000378420    0.0000041883
      7      C   -0.0000361785    0.0000403305   -0.0000063284
      8      C   -0.0000534435    0.0000488549   -0.0000170099
      9      C   -0.0000437411    0.0000893441    0.0000053775
     10      C   -0.0000286162    0.0000473393   -0.0000036035
     11      C   -0.0000372905    0.0000595292   -0.0000134532
     12      C   -0.0000431405    0.0000456831    0.0000003979
     13      H    0.0000192904    0.0000195994    0.0000467626
     14      H    0.0000138729    0.0000615372    0.0000384017
     15      H   -0.0000120873    0.0000573017   -0.0000040168
     16      H   -0.0000397550    0.0000299693   -0.0000390876
     17      H   -0.0000535151   -0.0000100400   -0.0000470070
     18      H   -0.0000324180   -0.0000673237   -0.0000051747
 
----------------
Mulliken Charges
----------------
  Index   Atom          Charge      Population
      1      C    0.0025078120        3.997492
      2      C   -0.0785600708        4.078560
      3      C    0.3825132326        3.617487
      4      O   -0.4794134361        6.479413
      5      H    0.0615130166        0.938487
      6      H    0.0063514490        0.993649
      7      C    0.0008784321        3.999122
      8      C   -0.0313462076        4.031346
      9      C   -0.0220349990        4.022035
     10      C   -0.0220734212        4.022073
     11      C   -0.0228639311        4.022864
     12      C   -0.0291210642        4.029121
     13      H    0.0390003109        0.961000
     14      H    0.0381583671        0.961842
     15      H    0.0366126149        0.963387
     16      H    0.0364092118        0.963591
     17      H    0.0357598625        0.964240
     18      H    0.0457088206        0.954291
         Total    0.0000000000       50.000000
 
----------------------
Mulliken Shell Charges
----------------------
  Index   Atom      L          Charge      Population
      1      C      0    0.9194522859        1.080548
      2      C      1   -0.9169444740        2.916944
      3      C      0    0.9229032381        1.077097
      4      C      1   -1.0014633089        3.001463
      5      C      0    0.9651076157        1.034892
      6      C      1   -0.5825943831        2.582594
      7      O      0    0.2714460441        1.728554
      8      O      1   -0.7508594802        4.750859
      9      H      0    0.0691437730        0.930856
     10      H      0   -0.0076307565        0.007631
     11      H      0    0.0236715555        0.976328
     12      H      0   -0.0173201065        0.017320
     13      C      0    0.9214950845        1.078505
     14      C      1   -0.9206166524        2.920617
     15      C      0    0.9351309791        1.064869
     16      C      1   -0.9664771867        2.966477
     17      C      0    0.9413959276        1.058604
     18      C      1   -0.9634309266        2.963431
     19      C      0    0.9391462789        1.060854
     20      C      1   -0.9612197001        2.961220
     21      C      0    0.9414430772        1.058557
     22      C      1   -0.9643070083        2.964307
     23      C      0    0.9379219144        1.062078
     24      C      1   -0.9670429786        2.967043
     25      H      0    0.0483364159        0.951664
     26      H      0   -0.0093361050        0.009336
     27      H      0    0.0460195991        0.953980
     28      H      0   -0.0078612320        0.007861
     29      H      0    0.0445391187        0.955461
     30      H      0   -0.0079265038        0.007927
     31      H      0    0.0443519172        0.955648
     32      H      0   -0.0079427054        0.007943
     33      H      0    0.0427348211        0.957265
     34      H      0   -0.0069749586        0.006975
     35      H      0    0.0548905401        0.945109
     36      H      0   -0.0091817195        0.009182
                Total    0.0000000000       50.000000
 
 
--------
Orbitals
--------
Index of HOMO                   25
Fermi Energy (hartree)           -0.39309218
Orbitals
   Index  Energy (hartree)       Energy (eV)        Occupation  Degeneracy
       1       -0.78523331      -21.36728544        2.00000000           1
       2       -0.68916432      -18.75311537        2.00000000           1
       3       -0.68261766      -18.57497164        2.00000000           1
       4       -0.66689415      -18.14711303        2.00000000           1
       5       -0.66290985      -18.03869487        2.00000000           1
       6       -0.65119984      -17.72004927        2.00000000           1
       7       -0.63474927      -17.27240647        2.00000000           1
       8       -0.63117045      -17.17502188        2.00000000           1
       9       -0.62146089      -16.91081115        2.00000000           1
      10       -0.59795782      -16.27126008        2.00000000           1
      11       -0.58418701      -15.89653728        2.00000000           1
      12       -0.57697566      -15.70030649        2.00000000           1
      13       -0.57108720      -15.54007353        2.00000000           1
      14       -0.55546364      -15.11493472        2.00000000           1
      15       -0.55110009      -14.99619650        2.00000000           1
      16       -0.54210560      -14.75144389        2.00000000           1
      17       -0.53746207      -14.62508698        2.00000000           1
      18       -0.52599215      -14.31297457        2.00000000           1
      19       -0.52322136      -14.23757759        2.00000000           1
      20       -0.48901419      -13.30675324        2.00000000           1
      21       -0.48539169      -13.20817992        2.00000000           1
      22       -0.47824572      -13.01372813        2.00000000           1
      23       -0.45655970      -12.42362168        2.00000000           1
      24       -0.44673545      -12.15629003        2.00000000           1
      25       -0.43727716      -11.89891696        2.00000000           1
      26       -0.33124744       -9.01370139        0.00000000           1
      27       -0.27752868       -7.55193959        0.00000000           1
      28       -0.27039774       -7.35789690        0.00000000           1
      29       -0.21113820       -5.74536272        0.00000000           1
      30       -0.14623438       -3.97924008        0.00000000           1
      31       -0.12725214       -3.46270686        0.00000000           1
      32       -0.11467014       -3.12033320        0.00000000           1
      33       -0.11354784       -3.08979396        0.00000000           1
      34       -0.11079373       -3.01485091        0.00000000           1
      35       -0.09797153       -2.66594101        0.00000000           1
      36       -0.09238916       -2.51403692        0.00000000           1
      37       -0.08041080       -2.18808907        0.00000000           1
      38       -0.07536626       -2.05082027        0.00000000           1
      39        0.10242833        2.78721669        0.00000000           1
      40        0.14771754        4.01959871        0.00000000           1
      41        0.20037441        5.45246501        0.00000000           1
      42        0.20164057        5.48691922        0.00000000           1
      43        0.20521515        5.58418832        0.00000000           1
      44        0.22322314        6.07421064        0.00000000           1
      45        0.23353402        6.35478389        0.00000000           1
      46        0.24730773        6.72958568        0.00000000           1
      47        0.31206817        8.49180685        0.00000000           1
      48        0.36499050        9.93189683        0.00000000           1
      49        0.40275049       10.95939855        0.00000000           1
      50        0.42167957       11.47448506        0.00000000           1
      51        0.42623514       11.59844839        0.00000000           1
      52        0.44732410       12.17230823        0.00000000           1
      53        0.49719918       13.52947812        0.00000000           1
      54        0.55019216       14.97149037        0.00000000           1
      55        0.64483358       17.54681445        0.00000000           1
      56        0.71885564       19.56105716        0.00000000           1
 

AMS application finished. Exiting.
NORMAL TERMINATION
     Total cpu time:       3.91
  Total system time:       2.67
 Total elapsed time:       7.37
NORMAL TERMINATION
