

 Parallel Execution: Process Information
 ==============================================================================
 Rank   Node Name                              NodeID   MyNodeRank  NodeMaster
    0   DESKTOP-1M8FOJT                           0          0          0
    1   DESKTOP-1M8FOJT                           0          1         -1
    2   DESKTOP-1M8FOJT                           0          2         -1
    3   DESKTOP-1M8FOJT                           0          3         -1
 ==============================================================================


May use up to 4096MB of RAM as shared memory on node 0

 *******************************************************************************
 *                                                                             *
 *  --------------------------------                                           *
 *   Amsterdam Modeling Suite (AMS)              2021.106                      *
 *  --------------------------------                                           *
 *                                               r99350 2021-12-03             *
 *                                                                             *
 *                                                                             *
 *                              =================                              *
 *                              |               |                              *
 *                              |     A M S     |                              *
 *                              |               |                              *
 *                              =================                              *
 *                                                                             *
 *                                                                             *
 *   Online information and documentation:  https://www.scm.com/support/       *
 *   E-mail:  support@scm.com   info@scm.com                                   *
 *                                                                             *
 *   Scientific publications using AMS results must be properly referenced     *
 *   See the User Manuals (or the web site) for recommended citations          *
 *   The terms and conditions of the End User License Agreement apply to       *
 *   the use of AMS, https://www.scm.com/license-terms/                        *
 *                                                                             *
 *********************  x86_64_windows_amdZen / intelmpi  **********************
 
 Licensed to: Mr. Yuman Hordijk / SCM / Amsterdam / Netherlands 2021-10-04 09:39:26
 SCM User ID: u24430
  
 AMS 2021.106  RunTime: Jan26-2022 14:26:51  ShM Nodes: 1  Procs: 4

 AMS jobname: ams
 AMS jobid  : 2095819341

 Start   directory: D:/Users/Yuman/Desktop/MasterProject/manual_calculations/substrate_conformers/tmp..1912.0.noindex/
 Results directory: D:/Users/Yuman/Desktop/MasterProject/manual_calculations/substrate_conformers/RPh_4.results/
 Scratch directory: Z:/SCMTMP/amstmp_ams_kid0.2095819341/


 Communication costs MPI_COMM_WORLD:      5.837 usec per message,   0.0112 usec per 8-byte item
 Communication costs for intra-node:      3.082 usec per message,   0.0065 usec per 8-byte item

 RNG seed: -86448378 -1549776189 2098003716 587502168 1998316125 1759744876 -1172947246 1861587071



                      ************************************************************************
                      *  ADF 2021.106  RunTime: Jan26-2022 14:26:51  ShM Nodes: 1  Procs: 4  *
                      ************************************************************************
  
       ***************************
       *  GEOMETRY OPTIMIZATION  *
       ***************************

Optimization Method                    Quasi Newton
Optimization Coordinates               Delocalized Coordinates
Optimize lattice                       F
 
 ------------------------------------------------------
 Convergence criteria (Hartree,Angstrom)
 ------------------------------------------------------
 Maximum gradient               0.001000000000
 Maximum rms gradient           0.000666666667
 Maximum step allowed           0.010000000000
 Maximum rms step allowed       0.006666666667
 Maximum energy change allowe   0.000180000000
 Maximum stress energy allowe   0.000500000000
 
Initial model Hessian                  Automatic Hessian
 
------------------------------------
Quasi-Newton Optimizer Parameters
------------------------------------
Hessian Update Method                  BFGS
Maximum number of steps                  250
First GDIIS cycle                          0
Maximum GDIIS vectors                      0
Trust radius (bohr)                        0.200000
Trust radius varies                        T
Constraints converged at all steps         T
Use projector                              T
 
 Rigid motions settings for: old optimizer
 Atomic rotations (x,y,z):     T T T
 Atomic translations (x,y,z):  T T T
 Tolerance:                   1.000000000000000E-006
 
--------
Geometry
--------
Formula: C9H8O
Atoms
  Index Symbol   x (angstrom)   y (angstrom)   z (angstrom)
      1      C    -5.41674668    -0.29531351    -0.17777640
      2      C    -4.24059027    -0.90026260     0.05374860
      3      C    -2.93816232    -0.23146057     0.14680738
      4      O    -1.93951279    -0.77810972     0.54360781
      5      H    -4.20007307    -1.98238336     0.13383445
      6      H    -2.92155900     0.81672848    -0.21954942
      7      C    -5.65253410     1.14575838    -0.24207716
      8      C    -5.01389087     2.03920442     0.62437857
      9      C    -5.25755668     3.40083903     0.53306604
     10      C    -6.14041677     3.89126333    -0.41948062
     11      C    -6.79611297     3.01085774    -1.27132626
     12      C    -6.56417383     1.64893435    -1.17750254
     13      H    -4.35654239     1.66190841     1.39925244
     14      H    -4.75870360     4.08228231     1.21283466
     15      H    -6.32704670     4.95659499    -0.49061508
     16      H    -7.49524463     3.38867842    -2.00886530
     17      H    -7.07425654     0.96495401    -1.84709966
     18      H    -6.29622398    -0.91383061    -0.34298881
 
Total System Charge             0.00000
Bonding info available!
 
 
----------------
ADF Engine Input
----------------
 
 Basis
 Type TZ2P
 Core None
 End
 XC
 GGA OLYP
 End
 

 Title: *** (NO TITLE) ***

 Using automatic Hessian for delocalized coordinates.
 *** GOStep1 ***

 Energy gradients wrt nuclear displacements
 ==========================================

     Atom      Cartesian (a.u./angstrom)
                 X         Y         Z
 ----------------------------------------
     1 C     0.007168 -0.007308  0.003466
     2 C    -0.006200  0.011090 -0.002664
     3 C     0.033431 -0.015405  0.014906
     4 O    -0.048082  0.021886 -0.016945
     5 H     0.000592  0.004353 -0.001189
     6 H    -0.004959 -0.001582  0.000941
     7 C     0.002344  0.008751 -0.000407
     8 C    -0.000623 -0.003785 -0.006569
     9 C    -0.003880 -0.004664 -0.004031
    10 C     0.001060 -0.008000  0.000753
    11 C     0.005837 -0.002415  0.006475
    12 C     0.004207  0.000601  0.002330
    13 H     0.000733 -0.000257 -0.001677
    14 H    -0.001319 -0.003044 -0.002971
    15 H     0.001502 -0.004903  0.000213
    16 H     0.003181 -0.001860  0.003457
    17 H     0.002948  0.002192  0.002307
    18 H     0.002057  0.004351  0.001604
 ----------------------------------------
 Mulliken charges used for AMS results%charges...
 
----------------------------------------------------------------------
Geometry Convergence after Step   1       (Hartree/Angstrom,Angstrom)
----------------------------------------------------------------------
current energy                               -4.10831356 Hartree
energy change                      -4.10831356     0.00018000    F
constrained gradient max            0.04804197     0.00100000    F
constrained gradient rms            0.01006681     0.00066667    F
gradient max                        0.04804197
gradient rms                        0.01006681
cart. step max                      0.21205312     0.01000000    F
cart. step rms                      0.06016427     0.00666667    F
 
 
--------
Geometry
--------
Formula: C9H8O
Atoms
  Index Symbol   x (angstrom)   y (angstrom)   z (angstrom)
      1      C    -5.37549751    -0.26009533    -0.17083719
      2      C    -4.21747069    -0.92028776     0.06005830
      3      C    -2.85813240    -0.35906094     0.12766715
      4      O    -1.88628374    -0.99016284     0.51585089
      5      H    -4.24580202    -2.00361197     0.15005626
      6      H    -2.75087681     0.67351886    -0.26852454
      7      C    -5.62624449     1.18527888    -0.23765664
      8      C    -5.03363310     2.10575261     0.64161955
      9      C    -5.31781381     3.46366240     0.54571832
     10      C    -6.20381445     3.93038434    -0.42088370
     11      C    -6.82376917     3.02657605    -1.28042031
     12      C    -6.54913331     1.66886026    -1.18052378
     13      H    -4.38504132     1.75072641     1.43454600
     14      H    -4.85396610     4.15984882     1.23777102
     15      H    -6.42616142     4.99073163    -0.49168085
     16      H    -7.53061231     3.38150249    -2.02457743
     17      H    -7.04014440     0.96989610    -1.85128605
     18      H    -6.26495017    -0.86687650    -0.33664829
 
Total System Charge             0.00000
Bonding info available!
 
 *** GOStep2 ***

 Energy gradients wrt nuclear displacements
 ==========================================

     Atom      Cartesian (a.u./angstrom)
                 X         Y         Z
 ----------------------------------------
     1 C    -0.002343 -0.004137  0.000827
     2 C    -0.001350  0.002753 -0.001628
     3 C     0.005821 -0.000589  0.002705
     4 O    -0.005372  0.002093 -0.001506
     5 H     0.001661  0.002850 -0.000425
     6 H    -0.002642 -0.002906 -0.002734
     7 C     0.000086  0.003642 -0.000390
     8 C    -0.001746 -0.000362 -0.001114
     9 C    -0.000753 -0.000946 -0.001535
    10 C     0.000343 -0.003243 -0.000272
    11 C     0.002440  0.000507  0.002547
    12 C     0.002103 -0.000559  0.001755
    13 H    -0.002444  0.000854 -0.000370
    14 H    -0.000655 -0.001443 -0.001748
    15 H     0.000697 -0.002485  0.000211
    16 H     0.001588 -0.000653  0.001924
    17 H     0.001490  0.001081  0.001645
    18 H     0.001077  0.003543  0.000107
 ----------------------------------------
 Mulliken charges used for AMS results%charges...

 dE(predicted):    -0.40492E-02, dE(actual):    -0.16305E-02, Trust radius:    0.200000, all in a.u.
 
----------------------------------------------------------------------
Geometry Convergence after Step   2       (Hartree/Angstrom,Angstrom)
----------------------------------------------------------------------
current energy                               -4.10994410 Hartree
energy change                      -0.00163054     0.00018000    F
constrained gradient max            0.00585401     0.00100000    F
constrained gradient rms            0.00212801     0.00066667    F
gradient max                        0.00585401
gradient rms                        0.00212801
cart. step max                      0.20750479     0.01000000    F
cart. step rms                      0.05475631     0.00666667    F
 
 
--------
Geometry
--------
Formula: C9H8O
Atoms
  Index Symbol   x (angstrom)   y (angstrom)   z (angstrom)
      1      C    -5.34353796    -0.24534750    -0.21556800
      2      C    -4.20135247    -0.93695028     0.03096129
      3      C    -2.82992806    -0.42162070     0.20206494
      4      O    -1.89184334    -1.10785808     0.60287334
      5      H    -4.26322193    -2.02416456     0.07021798
      6      H    -2.67623740     0.64844333    -0.06101976
      7      C    -5.60674256     1.20271508    -0.27284640
      8      C    -4.99097746     2.13608861     0.58314208
      9      C    -5.30826841     3.49203027     0.50928632
     10      C    -6.24818673     3.94922284    -0.41559627
     11      C    -6.88500579     3.03565864    -1.25889708
     12      C    -6.57675250     1.68028701    -1.17930435
     13      H    -4.28990188     1.79167000     1.33695016
     14      H    -4.82723684     4.19417944     1.18640064
     15      H    -6.49626980     5.00708064    -0.46796364
     16      H    -7.63175092     3.38019773    -1.97127599
     17      H    -7.08885759     0.97607465    -1.83153647
     18      H    -6.23327557    -0.85106361    -0.39764007
 
Total System Charge             0.00000
Bonding info available!
 
 *** GOStep3 ***

 Energy gradients wrt nuclear displacements
 ==========================================

     Atom      Cartesian (a.u./angstrom)
                 X         Y         Z
 ----------------------------------------
     1 C    -0.002981 -0.002941  0.000227
     2 C    -0.002329  0.000183  0.000819
     3 C    -0.002782  0.003713 -0.009775
     4 O     0.010276 -0.006025  0.007700
     5 H     0.001304 -0.000115 -0.001416
     6 H    -0.002139  0.001548  0.001031
     7 C    -0.000201  0.000394 -0.001137
     8 C     0.000229 -0.001839  0.001703
     9 C     0.000174  0.001993  0.000894
    10 C    -0.000136  0.001390  0.000139
    11 C    -0.001466  0.001031 -0.000917
    12 C     0.000965 -0.000093 -0.001837
    13 H     0.000203 -0.000595 -0.000067
    14 H     0.000194  0.000151 -0.000100
    15 H     0.000088  0.000219 -0.000067
    16 H    -0.000345  0.000286  0.000160
    17 H    -0.000145 -0.000133  0.000322
    18 H    -0.000908  0.000833  0.002321
 ----------------------------------------
 Mulliken charges used for AMS results%charges...

 dE(predicted):    -0.94364E-03, dE(actual):     0.75017E-04, Trust radius:    0.050000, all in a.u.
 
----------------------------------------------------------------------
Geometry Convergence after Step   3       (Hartree/Angstrom,Angstrom)
----------------------------------------------------------------------
current energy                               -4.10986908 Hartree
energy change                       0.00007502     0.00018000    T
constrained gradient max            0.01022826     0.00100000    F
constrained gradient rms            0.00266760     0.00066667    F
gradient max                        0.01022826
gradient rms                        0.00266760
cart. step max                      0.03651771     0.01000000    F
cart. step rms                      0.01072365     0.00666667    F
 
 
--------
Geometry
--------
Formula: C9H8O
Atoms
  Index Symbol   x (angstrom)   y (angstrom)   z (angstrom)
      1      C    -5.33358573    -0.23667458    -0.21998655
      2      C    -4.19899113    -0.93738365     0.03096997
      3      C    -2.82553062    -0.43777138     0.21799118
      4      O    -1.89941662    -1.14437579     0.59770970
      5      H    -4.27345319    -2.02440679     0.06300616
      6      H    -2.64920791     0.62916046    -0.04289390
      7      C    -5.59946688     1.21039622    -0.27378425
      8      C    -4.98599043     2.14824025     0.57924820
      9      C    -5.31279614     3.50143501     0.50616305
     10      C    -6.25953070     3.95217932    -0.41501711
     11      C    -6.89308895     3.03420667    -1.25596038
     12      C    -6.57611576     1.68137862    -1.17671558
     13      H    -4.27929242     1.80960664     1.33060661
     14      H    -4.83415916     4.20694426     1.18188145
     15      H    -6.51545833     5.00846819    -0.46617847
     16      H    -7.64480189     3.37318149    -1.96609291
     17      H    -7.08668994     0.97385497    -1.82704924
     18      H    -6.22177142    -0.84179641    -0.41364920
 
Total System Charge             0.00000
Bonding info available!
 
 *** GOStep4 ***

 Energy gradients wrt nuclear displacements
 ==========================================

     Atom      Cartesian (a.u./angstrom)
                 X         Y         Z
 ----------------------------------------
     1 C    -0.000564 -0.001963  0.000522
     2 C    -0.000801 -0.000503 -0.001071
     3 C     0.001534  0.001026 -0.000452
     4 O     0.001043 -0.000456  0.001376
     5 H     0.000472 -0.000634 -0.001291
     6 H    -0.000267 -0.000020 -0.000793
     7 C    -0.000025  0.000515 -0.001008
     8 C    -0.000051 -0.000737  0.001716
     9 C     0.000169  0.001165  0.000646
    10 C    -0.000004  0.001055  0.000226
    11 C    -0.001088  0.000192 -0.000708
    12 C     0.000819  0.000143 -0.001614
    13 H     0.000169 -0.000444  0.000144
    14 H     0.000321  0.000267  0.000128
    15 H    -0.000019  0.000477 -0.000070
    16 H    -0.000496  0.000195 -0.000073
    17 H    -0.000398 -0.000279 -0.000036
    18 H    -0.000817  0.000001  0.002359
 ----------------------------------------
 Mulliken charges used for AMS results%charges...

 dE(predicted):    -0.21632E-03, dE(actual):    -0.93194E-04, Trust radius:    0.050000, all in a.u.
 
----------------------------------------------------------------------
Geometry Convergence after Step   4       (Hartree/Angstrom,Angstrom)
----------------------------------------------------------------------
current energy                               -4.10996228 Hartree
energy change                      -0.00009319     0.00018000    T
constrained gradient max            0.00229628     0.00100000    F
constrained gradient rms            0.00081987     0.00066667    F
gradient max                        0.00229628
gradient rms                        0.00081987
cart. step max                      0.03002959     0.01000000    F
cart. step rms                      0.00993156     0.00666667    F
 
 
--------
Geometry
--------
Formula: C9H8O
Atoms
  Index Symbol   x (angstrom)   y (angstrom)   z (angstrom)
      1      C    -5.32591146    -0.22917824    -0.22762990
      2      C    -4.19779623    -0.93672527     0.02900428
      3      C    -2.82333872    -0.45039546     0.22989615
      4      O    -1.90682054    -1.17059814     0.60302809
      5      H    -4.28151964    -2.02302367     0.05514384
      6      H    -2.63432703     0.61858481    -0.01286430
      7      C    -5.59334132     1.21618067    -0.27602694
      8      C    -4.97856315     2.15702857     0.57179735
      9      C    -5.31277814     3.50737795     0.50025677
     10      C    -6.26768622     3.95272856    -0.41418675
     11      C    -6.90134973     3.03179568    -1.25036295
     12      C    -6.57804795     1.68140177    -1.17194954
     13      H    -4.26497756     1.82356950     1.31872117
     14      H    -4.83387884     4.21546996     1.17289724
     15      H    -6.52989560     5.00738858    -0.46346454
     16      H    -7.65887291     3.36637690    -1.95611669
     17      H    -7.08900044     0.97123886    -1.81888633
     18      H    -6.21124174    -0.83257752    -0.43900822
 
Total System Charge             0.00000
Bonding info available!
 
 *** GOStep5 ***

 Energy gradients wrt nuclear displacements
 ==========================================

     Atom      Cartesian (a.u./angstrom)
                 X         Y         Z
 ----------------------------------------
     1 C     0.000807 -0.001229  0.001225
     2 C    -0.000812  0.000054 -0.001373
     3 C     0.002897 -0.001010 -0.000154
     4 O    -0.002491  0.001814 -0.000014
     5 H     0.000021 -0.000335 -0.000834
     6 H     0.000193 -0.000248 -0.000518
     7 C     0.000076  0.001274 -0.000727
     8 C    -0.000747  0.000041  0.000982
     9 C    -0.000201  0.000080 -0.000068
    10 C     0.000183 -0.000007  0.000272
    11 C    -0.000074 -0.000372  0.000132
    12 C     0.000992  0.000194 -0.000766
    13 H     0.000044 -0.000204  0.000099
    14 H     0.000215  0.000124  0.000070
    15 H    -0.000024  0.000227 -0.000015
    16 H    -0.000280  0.000006  0.000037
    17 H    -0.000295 -0.000154 -0.000055
    18 H    -0.000505 -0.000253  0.001707
 ----------------------------------------
 Mulliken charges used for AMS results%charges...

 dE(predicted):    -0.10369E-03, dE(actual):    -0.74768E-05, Trust radius:    0.020000, all in a.u.
 
----------------------------------------------------------------------
Geometry Convergence after Step   5       (Hartree/Angstrom,Angstrom)
----------------------------------------------------------------------
current energy                               -4.10996975 Hartree
energy change                      -0.00000748     0.00018000    T
constrained gradient max            0.00286761     0.00100000    F
constrained gradient rms            0.00080879     0.00066667    F
gradient max                        0.00286761
gradient rms                        0.00080879
cart. step max                      0.01373137     0.01000000    F
cart. step rms                      0.00380521     0.00666667    T
 
 
--------
Geometry
--------
Formula: C9H8O
Atoms
  Index Symbol   x (angstrom)   y (angstrom)   z (angstrom)
      1      C    -5.32414959    -0.22751870    -0.23164146
      2      C    -4.19727396    -0.93635085     0.02849539
      3      C    -2.82367305    -0.45264926     0.23770251
      4      O    -1.90750345    -1.17700039     0.60738289
      5      H    -4.28206760    -2.02247247     0.05118843
      6      H    -2.63247088     0.61734587     0.00086706
      7      C    -5.59216330     1.21701407    -0.27813488
      8      C    -4.97541515     2.15834410     0.56743917
      9      C    -5.31121159     3.50814942     0.49717392
     10      C    -6.26967978     3.95277233    -0.41377960
     11      C    -6.90504910     3.03158361    -1.24791677
     12      C    -6.58021724     1.68157293    -1.17062390
     13      H    -4.25865975     1.82607009     1.31172842
     14      H    -4.83082170     4.21657156     1.16824161
     15      H    -6.53315682     5.00705183    -0.46178730
     16      H    -7.66511502     3.36551637    -1.95107918
     17      H    -7.09248621     0.97106490    -1.81589440
     18      H    -6.20823301    -0.83042192    -0.44911319
 
Total System Charge             0.00000
Bonding info available!
 
 *** GOStep6 ***

 Energy gradients wrt nuclear displacements
 ==========================================

     Atom      Cartesian (a.u./angstrom)
                 X         Y         Z
 ----------------------------------------
     1 C     0.000403 -0.000687  0.001189
     2 C    -0.000549  0.000056 -0.001735
     3 C     0.000550  0.000309  0.000088
     4 O    -0.000209  0.000112  0.000491
     5 H     0.000057 -0.000115 -0.000777
     6 H     0.000132 -0.000049 -0.000825
     7 C     0.000231  0.001068 -0.000679
     8 C    -0.000890 -0.000108  0.000733
     9 C    -0.000261 -0.000068 -0.000152
    10 C     0.000122 -0.000158  0.000190
    11 C     0.000046 -0.000219  0.000277
    12 C     0.001006  0.000120 -0.000683
    13 H     0.000086 -0.000165  0.000020
    14 H     0.000149  0.000045 -0.000007
    15 H    -0.000003  0.000075 -0.000004
    16 H    -0.000181 -0.000019  0.000119
    17 H    -0.000196 -0.000045  0.000047
    18 H    -0.000492 -0.000151  0.001710
 ----------------------------------------
 Mulliken charges used for AMS results%charges...

 dE(predicted):    -0.39210E-04, dE(actual):     0.42351E-05, Trust radius:    0.020000, all in a.u.
 
----------------------------------------------------------------------
Geometry Convergence after Step   6       (Hartree/Angstrom,Angstrom)
----------------------------------------------------------------------
current energy                               -4.10996552 Hartree
energy change                       0.00000424     0.00018000    T
constrained gradient max            0.00168822     0.00100000    F
constrained gradient rms            0.00053266     0.00066667    T
gradient max                        0.00168822
gradient rms                        0.00053266
cart. step max                      0.01435122     0.01000000    F
cart. step rms                      0.00393876     0.00666667    T
 
 
--------
Geometry
--------
Formula: C9H8O
Atoms
  Index Symbol   x (angstrom)   y (angstrom)   z (angstrom)
      1      C    -5.32194130    -0.22604395    -0.23576167
      2      C    -4.19632499    -0.93647046     0.02787851
      3      C    -2.82331730    -0.45593499     0.24446037
      4      O    -1.90903801    -1.18382731     0.61217124
      5      H    -4.28243881    -2.02247923     0.04719180
      6      H    -2.62955586     0.61518085     0.01521828
      7      C    -5.59094245     1.21785601    -0.28011553
      8      C    -4.97235613     2.16012188     0.56329196
      9      C    -5.30978262     3.50954327     0.49414744
     10      C    -6.27193493     3.95331571    -0.41348347
     11      C    -6.90915039     3.03156195    -1.24548195
     12      C    -6.58263621     1.68182206    -1.16915637
     13      H    -4.25256757     1.82923857     1.30514758
     14      H    -4.82791380     4.21843330     1.16358648
     15      H    -6.53670125     5.00727046    -0.46036443
     16      H    -7.67187720     3.36470922    -1.94606505
     17      H    -7.09624996     0.97084829    -1.81271398
     18      H    -6.20461845    -0.82850212    -0.45970251
 
Total System Charge             0.00000
Bonding info available!
 
 *** GOStep7 ***

 Energy gradients wrt nuclear displacements
 ==========================================

     Atom      Cartesian (a.u./angstrom)
                 X         Y         Z
 ----------------------------------------
     1 C    -0.000109 -0.000191  0.001121
     2 C     0.000146 -0.000104 -0.001639
     3 C     0.000158  0.000106  0.000074
     4 O    -0.000150  0.000128  0.000428
     5 H     0.000100 -0.000014 -0.000690
     6 H     0.000138 -0.000064 -0.000758
     7 C     0.000349  0.000596 -0.000639
     8 C    -0.000841 -0.000179  0.000711
     9 C    -0.000164 -0.000019 -0.000057
    10 C     0.000036 -0.000078  0.000119
    11 C    -0.000029 -0.000048  0.000216
    12 C     0.000874  0.000027 -0.000708
    13 H     0.000095 -0.000105 -0.000035
    14 H     0.000113  0.000022 -0.000038
    15 H     0.000002  0.000012  0.000014
    16 H    -0.000138 -0.000015  0.000147
    17 H    -0.000135  0.000005  0.000107
    18 H    -0.000445 -0.000079  0.001625
 ----------------------------------------
 Mulliken charges used for AMS results%charges...

 dE(predicted):    -0.33066E-04, dE(actual):     0.41696E-05, Trust radius:    0.020000, all in a.u.
 
----------------------------------------------------------------------
Geometry Convergence after Step   7       (Hartree/Angstrom,Angstrom)
----------------------------------------------------------------------
current energy                               -4.10996135 Hartree
energy change                       0.00000417     0.00018000    T
constrained gradient max            0.00159164     0.00100000    F
constrained gradient rms            0.00046379     0.00066667    T
gradient max                        0.00159164
gradient rms                        0.00046379
cart. step max                      0.01401857     0.01000000    F
cart. step rms                      0.00382986     0.00666667    T
 
 
--------
Geometry
--------
Formula: C9H8O
Atoms
  Index Symbol   x (angstrom)   y (angstrom)   z (angstrom)
      1      C    -5.31990262    -0.22492400    -0.23997024
      2      C    -4.19557971    -0.93653348     0.02733677
      3      C    -2.82319388    -0.45854354     0.25124445
      4      O    -1.91058130    -1.18955814     0.61713553
      5      H    -4.28267296    -2.02251071     0.04326516
      6      H    -2.62738741     0.61363530     0.02923685
      7      C    -5.58989290     1.21851144    -0.28213782
      8      C    -4.96931861     2.16161866     0.55919397
      9      C    -5.30808976     3.51071767     0.49115374
     10      C    -6.27381403     3.95376622    -0.41317924
     11      C    -6.91310743     3.03149879    -1.24299828
     12      C    -6.58515788     1.68201408    -1.16770696
     13      H    -4.24664640     1.83193272     1.29867249
     14      H    -4.82457510     4.22000014     1.15895504
     15      H    -6.53963060     5.00748987    -0.45899831
     16      H    -7.67848286     3.36397602    -1.94097970
     17      H    -7.10026998     0.97063015    -1.80957777
     18      H    -6.20104379    -0.82707770    -0.47039696
 
Total System Charge             0.00000
Bonding info available!
 
 *** GOStep8 ***

 Energy gradients wrt nuclear displacements
 ==========================================

     Atom      Cartesian (a.u./angstrom)
                 X         Y         Z
 ----------------------------------------
     1 C    -0.000346 -0.000022  0.001075
     2 C     0.000451 -0.000085 -0.001587
     3 C    -0.000067  0.000051  0.000090
     4 O    -0.000100  0.000126  0.000362
     5 H     0.000104  0.000005 -0.000612
     6 H     0.000123 -0.000081 -0.000695
     7 C     0.000431  0.000229 -0.000644
     8 C    -0.000743 -0.000163  0.000729
     9 C    -0.000074  0.000023  0.000035
    10 C    -0.000003 -0.000008  0.000089
    11 C    -0.000096 -0.000002  0.000155
    12 C     0.000726  0.000031 -0.000730
    13 H     0.000119 -0.000063 -0.000073
    14 H     0.000095  0.000014 -0.000046
    15 H     0.000003 -0.000004  0.000032
    16 H    -0.000121 -0.000016  0.000154
    17 H    -0.000109  0.000011  0.000127
    18 H    -0.000394 -0.000049  0.001539
 ----------------------------------------
 Mulliken charges used for AMS results%charges...

 dE(predicted):    -0.30416E-04, dE(actual):     0.25125E-05, Trust radius:    0.020000, all in a.u.
 
----------------------------------------------------------------------
Geometry Convergence after Step   8       (Hartree/Angstrom,Angstrom)
----------------------------------------------------------------------
current energy                               -4.10995884 Hartree
energy change                       0.00000251     0.00018000    T
constrained gradient max            0.00153912     0.00100000    F
constrained gradient rms            0.00043792     0.00066667    T
gradient max                        0.00153912
gradient rms                        0.00043792
cart. step max                      0.01391423     0.01000000    F
cart. step rms                      0.00384656     0.00666667    T
 
 
--------
Geometry
--------
Formula: C9H8O
Atoms
  Index Symbol   x (angstrom)   y (angstrom)   z (angstrom)
      1      C    -5.31768327    -0.22367194    -0.24411305
      2      C    -4.19485764    -0.93662166     0.02678281
      3      C    -2.82280830    -0.46151620     0.25789937
      4      O    -1.91213924    -1.19594373     0.62190488
      5      H    -4.28313082    -2.02256880     0.03913142
      6      H    -2.62469111     0.61164066     0.04315107
      7      C    -5.58878741     1.21941488    -0.28398457
      8      C    -4.96639383     2.16339259     0.55526382
      9      C    -5.30661743     3.51211077     0.48817286
     10      C    -6.27584047     3.95428145    -0.41293220
     11      C    -6.91706975     3.03137616    -1.24049364
     12      C    -6.58756962     1.68223557    -1.16612422
     13      H    -4.24094055     1.83493743     1.29247994
     14      H    -4.82154395     4.22188073     1.15431626
     15      H    -6.54279036     5.00776508    -0.45782965
     16      H    -7.68509924     3.36304464    -1.93593880
     17      H    -7.10408713     0.97033905    -1.80631287
     18      H    -6.19729708    -0.82545317    -0.48112472
 
Total System Charge             0.00000
Bonding info available!
 
 *** GOStep9 ***

 Energy gradients wrt nuclear displacements
 ==========================================

     Atom      Cartesian (a.u./angstrom)
                 X         Y         Z
 ----------------------------------------
     1 C    -0.000404  0.000011  0.001036
     2 C     0.000509 -0.000047 -0.001531
     3 C    -0.000100  0.000031  0.000099
     4 O    -0.000103  0.000139  0.000292
     5 H     0.000088 -0.000008 -0.000540
     6 H     0.000113 -0.000094 -0.000631
     7 C     0.000448  0.000082 -0.000638
     8 C    -0.000677 -0.000118  0.000716
     9 C    -0.000034  0.000016  0.000056
    10 C    -0.000015  0.000004  0.000076
    11 C    -0.000098 -0.000018  0.000140
    12 C     0.000631  0.000085 -0.000680
    13 H     0.000137 -0.000036 -0.000094
    14 H     0.000088  0.000013 -0.000044
    15 H    -0.000004  0.000002  0.000044
    16 H    -0.000116 -0.000013  0.000146
    17 H    -0.000104 -0.000004  0.000124
    18 H    -0.000360 -0.000045  0.001433
 ----------------------------------------
 Mulliken charges used for AMS results%charges...

 dE(predicted):    -0.27927E-04, dE(actual):     0.71281E-05, Trust radius:    0.020000, all in a.u.
 
----------------------------------------------------------------------
Geometry Convergence after Step   9       (Hartree/Angstrom,Angstrom)
----------------------------------------------------------------------
current energy                               -4.10995171 Hartree
energy change                       0.00000713     0.00018000    T
constrained gradient max            0.00148404     0.00100000    F
constrained gradient rms            0.00041453     0.00066667    T
gradient max                        0.00148404
gradient rms                        0.00041453
cart. step max                      0.01375200     0.01000000    F
cart. step rms                      0.00384540     0.00666667    T
 
 
--------
Geometry
--------
Formula: C9H8O
Atoms
  Index Symbol   x (angstrom)   y (angstrom)   z (angstrom)
      1      C    -5.31540274    -0.22237383    -0.24825805
      2      C    -4.19413770    -0.93669982     0.02624845
      3      C    -2.82231905    -0.46459004     0.26451682
      4      O    -1.91368433    -1.20249578     0.62672406
      5      H    -4.28358340    -2.02259735     0.03498392
      6      H    -2.62184050     0.60947350     0.05690307
      7      C    -5.58769637     1.22041115    -0.28580000
      8      C    -4.96354380     2.16521482     0.55136504
      9      C    -5.30521984     3.51354803     0.48518692
     10      C    -6.27788833     3.95481283    -0.41270439
     11      C    -6.92104300     3.03124992    -1.23796036
     12      C    -6.58996358     1.68246413    -1.16450422
     13      H    -4.23538761     1.83794923     1.28636375
     14      H    -4.81860016     4.22381765     1.14966383
     15      H    -6.54595609     5.00805251    -0.45673834
     16      H    -7.69172935     3.36208526    -1.93085498
     17      H    -7.10787065     0.97004785    -1.80300332
     18      H    -6.19348072    -0.82372655    -0.49188347
 
Total System Charge             0.00000
Bonding info available!
 
 *** GOStep10 ***

 Energy gradients wrt nuclear displacements
 ==========================================

     Atom      Cartesian (a.u./angstrom)
                 X         Y         Z
 ----------------------------------------
     1 C    -0.000420 -0.000004  0.000999
     2 C     0.000471 -0.000035 -0.001475
     3 C    -0.000076  0.000054  0.000106
     4 O    -0.000062  0.000110  0.000248
     5 H     0.000079 -0.000012 -0.000472
     6 H     0.000101 -0.000087 -0.000570
     7 C     0.000432  0.000062 -0.000620
     8 C    -0.000637 -0.000103  0.000670
     9 C    -0.000021  0.000005  0.000044
    10 C    -0.000014 -0.000001  0.000066
    11 C    -0.000087 -0.000026  0.000140
    12 C     0.000567  0.000113 -0.000608
    13 H     0.000146 -0.000023 -0.000111
    14 H     0.000084  0.000011 -0.000045
    15 H    -0.000010  0.000003  0.000050
    16 H    -0.000111 -0.000010  0.000137
    17 H    -0.000101 -0.000015  0.000117
    18 H    -0.000342 -0.000040  0.001322
 ----------------------------------------
 Mulliken charges used for AMS results%charges...

 dE(predicted):    -0.25601E-04, dE(actual):     0.10058E-04, Trust radius:    0.020000, all in a.u.
 
----------------------------------------------------------------------
Geometry Convergence after Step  10       (Hartree/Angstrom,Angstrom)
----------------------------------------------------------------------
current energy                               -4.10994165 Hartree
energy change                       0.00001006     0.00018000    T
constrained gradient max            0.00142970     0.00100000    F
constrained gradient rms            0.00038920     0.00066667    T
gradient max                        0.00142970
gradient rms                        0.00038920
cart. step max                      0.01346484     0.01000000    F
cart. step rms                      0.00382694     0.00666667    T
 
 
--------
Geometry
--------
Formula: C9H8O
Atoms
  Index Symbol   x (angstrom)   y (angstrom)   z (angstrom)
      1      C    -5.31304349    -0.22102210    -0.25239884
      2      C    -4.19343459    -0.93679020     0.02574845
      3      C    -2.82182601    -0.46777112     0.27104674
      4      O    -1.91530528    -1.20916325     0.63154116
      5      H    -4.28407205    -2.02261679     0.03085506
      6      H    -2.61894113     0.60711016     0.07036791
      7      C    -5.58655434     1.22147717    -0.28756488
      8      C    -4.96071359     2.16711416     0.54753347
      9      C    -5.30389394     3.51505716     0.48224054
     10      C    -6.27996883     3.95535671    -0.41248102
     11      C    -6.92499141     3.03109574    -1.23542098
     12      C    -6.59228086     1.68267625    -1.16285617
     13      H    -4.22992628     1.84104502     1.28037748
     14      H    -4.81578896     4.22586171     1.14505387
     15      H    -6.54917342     5.00834061    -0.45570503
     16      H    -7.69832973     3.36104565    -1.92577025
     17      H    -7.11154025     0.96972294    -1.79965572
     18      H    -6.18956305    -0.82189632    -0.50266306
 
Total System Charge             0.00000
Bonding info available!
 
 *** GOStep11 ***

 Energy gradients wrt nuclear displacements
 ==========================================

     Atom      Cartesian (a.u./angstrom)
                 X         Y         Z
 ----------------------------------------
     1 C    -0.000391 -0.000038  0.000962
     2 C     0.000392 -0.000027 -0.001408
     3 C    -0.000020  0.000068  0.000112
     4 O    -0.000050  0.000091  0.000203
     5 H     0.000071 -0.000010 -0.000408
     6 H     0.000088 -0.000081 -0.000520
     7 C     0.000403  0.000090 -0.000588
     8 C    -0.000594 -0.000100  0.000615
     9 C    -0.000018  0.000004  0.000027
    10 C    -0.000009 -0.000005  0.000060
    11 C    -0.000077 -0.000028  0.000136
    12 C     0.000512  0.000105 -0.000535
    13 H     0.000149 -0.000013 -0.000118
    14 H     0.000081  0.000010 -0.000044
    15 H    -0.000015  0.000000  0.000053
    16 H    -0.000105 -0.000010  0.000131
    17 H    -0.000096 -0.000018  0.000113
    18 H    -0.000322 -0.000036  0.001208
 ----------------------------------------
 Mulliken charges used for AMS results%charges...

 dE(predicted):    -0.23268E-04, dE(actual):     0.12009E-04, Trust radius:    0.020000, all in a.u.
 
----------------------------------------------------------------------
Geometry Convergence after Step  11       (Hartree/Angstrom,Angstrom)
----------------------------------------------------------------------
current energy                               -4.10992964 Hartree
energy change                       0.00001201     0.00018000    T
constrained gradient max            0.00136604     0.00100000    F
constrained gradient rms            0.00036136     0.00066667    T
gradient max                        0.00136604
gradient rms                        0.00036136
cart. step max                      0.01331766     0.01000000    F
cart. step rms                      0.00380124     0.00666667    T
 
 
--------
Geometry
--------
Formula: C9H8O
Atoms
  Index Symbol   x (angstrom)   y (angstrom)   z (angstrom)
      1      C    -5.31068466    -0.21969310    -0.25656920
      2      C    -4.19273967    -0.93688102     0.02526740
      3      C    -2.82142584    -0.47087639     0.27754783
      4      O    -1.91696901    -1.21562676     0.63643115
      5      H    -4.28447264    -2.02262656     0.02673549
      6      H    -2.61624115     0.60477957     0.08368557
      7      C    -5.58542632     1.22251000    -0.28933250
      8      C    -4.95790026     2.16896172     0.54371812
      9      C    -5.30253844     3.51652943     0.47930160
     10      C    -6.28198758     3.95588117    -0.41225680
     11      C    -6.92891045     3.03093413    -1.23285800
     12      C    -6.59459258     1.68287031    -1.16120043
     13      H    -4.22453408     1.84406074     1.27443129
     14      H    -4.81293485     4.22786881     1.14043235
     15      H    -6.55227318     5.00861892    -0.45470020
     16      H    -7.70489016     3.36001215    -1.92064203
     17      H    -7.11522478     0.96940122    -1.79628863
     18      H    -6.18560158    -0.82008083    -0.51345430
 
Total System Charge             0.00000
Bonding info available!
 
 *** GOStep12 ***

 Energy gradients wrt nuclear displacements
 ==========================================

     Atom      Cartesian (a.u./angstrom)
                 X         Y         Z
 ----------------------------------------
     1 C    -0.000375 -0.000059  0.000905
     2 C     0.000339 -0.000031 -0.001315
     3 C     0.000006  0.000064  0.000094
     4 O    -0.000030  0.000066  0.000164
     5 H     0.000069 -0.000001 -0.000347
     6 H     0.000072 -0.000066 -0.000471
     7 C     0.000370  0.000109 -0.000554
     8 C    -0.000539 -0.000101  0.000562
     9 C    -0.000015  0.000012  0.000016
    10 C    -0.000008 -0.000006  0.000055
    11 C    -0.000072 -0.000016  0.000128
    12 C     0.000458  0.000083 -0.000466
    13 H     0.000152 -0.000005 -0.000121
    14 H     0.000078  0.000010 -0.000045
    15 H    -0.000019 -0.000004  0.000055
    16 H    -0.000097 -0.000011  0.000129
    17 H    -0.000090 -0.000017  0.000114
    18 H    -0.000298 -0.000026  0.001095
 ----------------------------------------
 Mulliken charges used for AMS results%charges...

 dE(predicted):    -0.21116E-04, dE(actual):     0.13032E-04, Trust radius:    0.020000, all in a.u.
 
----------------------------------------------------------------------
Geometry Convergence after Step  12       (Hartree/Angstrom,Angstrom)
----------------------------------------------------------------------
current energy                               -4.10991661 Hartree
energy change                       0.00001303     0.00018000    T
constrained gradient max            0.00127501     0.00100000    F
constrained gradient rms            0.00033139     0.00066667    T
gradient max                        0.00127501
gradient rms                        0.00033139
cart. step max                      0.01315837     0.01000000    F
cart. step rms                      0.00376843     0.00666667    T
 
 
--------
Geometry
--------
Formula: C9H8O
Atoms
  Index Symbol   x (angstrom)   y (angstrom)   z (angstrom)
      1      C    -5.30835881    -0.21842638    -0.26078290
      2      C    -4.19205041    -0.93692967     0.02480673
      3      C    -2.82115027    -0.47376582     0.28407323
      4      O    -1.91868724    -1.22168878     0.64148490
      5      H    -4.28474449    -2.02259601     0.02263228
      6      H    -2.61378662     0.60260883     0.09684394
      7      C    -5.58438096     1.22345725    -0.29112962
      8      C    -4.95513276     2.17067174     0.53989087
      9      C    -5.30109686     3.51788894     0.47635598
     10      C    -6.28387615     3.95636671    -0.41202863
     11      C    -6.93280177     3.03077460    -1.23025549
     12      C    -6.59696692     1.68304294    -1.15954773
     13      H    -4.21924002     1.84686138     1.26847342
     14      H    -4.80991706     4.22972434     1.13578052
     15      H    -6.55512446     5.00888771    -0.45371229
     16      H    -7.71140984     3.35904262    -1.91544080
     17      H    -7.11903190     0.96910839    -1.79292392
     18      H    -6.18159066    -0.81838531    -0.52427175
 
Total System Charge             0.00000
Bonding info available!
 
 *** GOStep13 ***

 Energy gradients wrt nuclear displacements
 ==========================================

     Atom      Cartesian (a.u./angstrom)
                 X         Y         Z
 ----------------------------------------
     1 C    -0.000344 -0.000073  0.000845
     2 C     0.000304 -0.000027 -0.001207
     3 C     0.000011  0.000054  0.000091
     4 O    -0.000026  0.000055  0.000112
     5 H     0.000066  0.000002 -0.000289
     6 H     0.000061 -0.000051 -0.000426
     7 C     0.000343  0.000119 -0.000520
     8 C    -0.000487 -0.000100  0.000508
     9 C    -0.000007  0.000014  0.000008
    10 C    -0.000004 -0.000007  0.000051
    11 C    -0.000070 -0.000009  0.000118
    12 C     0.000398  0.000063 -0.000403
    13 H     0.000153  0.000000 -0.000123
    14 H     0.000077  0.000011 -0.000047
    15 H    -0.000022 -0.000007  0.000055
    16 H    -0.000092 -0.000012  0.000127
    17 H    -0.000087 -0.000014  0.000115
    18 H    -0.000274 -0.000019  0.000986
 ----------------------------------------
 Mulliken charges used for AMS results%charges...

 dE(predicted):    -0.18942E-04, dE(actual):     0.13400E-04, Trust radius:    0.020000, all in a.u.
 
----------------------------------------------------------------------
Geometry Convergence after Step  13       (Hartree/Angstrom,Angstrom)
----------------------------------------------------------------------
current energy                               -4.10990321 Hartree
energy change                       0.00001340     0.00018000    T
constrained gradient max            0.00116995     0.00100000    F
constrained gradient rms            0.00030115     0.00066667    T
gradient max                        0.00116995
gradient rms                        0.00030115
cart. step max                      0.01307661     0.01000000    F
cart. step rms                      0.00378355     0.00666667    T
 
 
--------
Geometry
--------
Formula: C9H8O
Atoms
  Index Symbol   x (angstrom)   y (angstrom)   z (angstrom)
      1      C    -5.30599707    -0.21714162    -0.26504873
      2      C    -4.19134796    -0.93696928     0.02430596
      3      C    -2.82090409    -0.47667514     0.29059927
      4      O    -1.92047789    -1.22771036     0.64673988
      5      H    -4.28501230    -2.02254561     0.01843597
      6      H    -2.61133848     0.60035272     0.10992055
      7      C    -5.58333376     1.22440317    -0.29292255
      8      C    -4.95236598     2.17239436     0.53605325
      9      C    -5.29965135     3.51926035     0.47339740
     10      C    -6.28576301     3.95685632    -0.41179571
     11      C    -6.93670847     3.03060193    -1.22760656
     12      C    -6.59934338     1.68321017    -1.15786721
     13      H    -4.21396588     1.84967338     1.26250835
     14      H    -4.80688276     4.23160063     1.13109046
     15      H    -6.55795039     5.00916630    -0.45274686
     16      H    -7.71796177     3.35804670    -1.91016278
     17      H    -7.12285240     0.96880476    -1.78951214
     18      H    -6.17749026    -0.81668527    -0.53513984
 
Total System Charge             0.00000
Bonding info available!
 
 *** GOStep14 ***

 Energy gradients wrt nuclear displacements
 ==========================================

     Atom      Cartesian (a.u./angstrom)
                 X         Y         Z
 ----------------------------------------
     1 C    -0.000315 -0.000072  0.000775
     2 C     0.000286 -0.000017 -0.001093
     3 C    -0.000004  0.000047  0.000070
     4 O    -0.000018  0.000041  0.000069
     5 H     0.000060  0.000002 -0.000237
     6 H     0.000054 -0.000038 -0.000380
     7 C     0.000314  0.000111 -0.000477
     8 C    -0.000431 -0.000089  0.000457
     9 C     0.000005  0.000012  0.000005
    10 C    -0.000001 -0.000003  0.000044
    11 C    -0.000069 -0.000011  0.000109
    12 C     0.000340  0.000049 -0.000343
    13 H     0.000147  0.000005 -0.000120
    14 H     0.000078  0.000013 -0.000050
    15 H    -0.000022 -0.000006  0.000054
    16 H    -0.000089 -0.000014  0.000122
    17 H    -0.000087 -0.000013  0.000115
    18 H    -0.000249 -0.000019  0.000880
 ----------------------------------------
 Mulliken charges used for AMS results%charges...

 dE(predicted):    -0.16841E-04, dE(actual):     0.15308E-04, Trust radius:    0.020000, all in a.u.
 
----------------------------------------------------------------------
Geometry Convergence after Step  14       (Hartree/Angstrom,Angstrom)
----------------------------------------------------------------------
current energy                               -4.10988790 Hartree
energy change                       0.00001531     0.00018000    T
constrained gradient max            0.00105871     0.00100000    F
constrained gradient rms            0.00027015     0.00066667    T
gradient max                        0.00105871
gradient rms                        0.00027015
cart. step max                      0.01291975     0.01000000    F
cart. step rms                      0.00380795     0.00666667    T
 
 
--------
Geometry
--------
Formula: C9H8O
Atoms
  Index Symbol   x (angstrom)   y (angstrom)   z (angstrom)
      1      C    -5.30357324    -0.21582071    -0.26937469
      2      C    -4.19064113    -0.93701349     0.02382129
      3      C    -2.82065662    -0.47966513     0.29715733
      4      O    -1.92234143    -1.23377034     0.65224609
      5      H    -4.28532682    -2.02248374     0.01426459
      6      H    -2.60882196     0.59792469     0.12284030
      7      C    -5.58223550     1.22537842    -0.29478387
      8      C    -4.94955862     2.17415356     0.53213597
      9      C    -5.29822706     3.52065479     0.47041859
     10      C    -6.28771047     3.95735381    -0.41151841
     11      C    -6.94064679     3.03043487    -1.22491782
     12      C    -6.60168507     1.68339857    -1.15621915
     13      H    -4.20863126     1.85252326     1.25643085
     14      H    -4.80388827     4.23349947     1.12638636
     15      H    -6.56087746     5.00944377    -0.45169524
     16      H    -7.72458685     3.35704353    -1.90478455
     17      H    -7.12663347     0.96851812    -1.78612673
     18      H    -6.17330518    -0.81492997    -0.54603219
 
Total System Charge             0.00000
Bonding info available!
 
 *** GOStep15 ***

 Energy gradients wrt nuclear displacements
 ==========================================

     Atom      Cartesian (a.u./angstrom)
                 X         Y         Z
 ----------------------------------------
     1 C    -0.000288 -0.000069  0.000696
     2 C     0.000265 -0.000008 -0.000977
     3 C    -0.000009  0.000035  0.000062
     4 O    -0.000011  0.000036  0.000026
     5 H     0.000049  0.000000 -0.000193
     6 H     0.000049 -0.000031 -0.000331
     7 C     0.000287  0.000099 -0.000429
     8 C    -0.000378 -0.000077  0.000404
     9 C     0.000014  0.000010  0.000002
    10 C     0.000002  0.000000  0.000036
    11 C    -0.000063 -0.000007  0.000102
    12 C     0.000286  0.000043 -0.000288
    13 H     0.000139  0.000008 -0.000114
    14 H     0.000080  0.000014 -0.000052
    15 H    -0.000021 -0.000004  0.000051
    16 H    -0.000089 -0.000012  0.000118
    17 H    -0.000088 -0.000013  0.000113
    18 H    -0.000225 -0.000024  0.000776
 ----------------------------------------
 Mulliken charges used for AMS results%charges...

 dE(predicted):    -0.14793E-04, dE(actual):     0.17691E-04, Trust radius:    0.020000, all in a.u.
 
----------------------------------------------------------------------
Geometry Convergence after Step  15       (Hartree/Angstrom,Angstrom)
----------------------------------------------------------------------
current energy                               -4.10987021 Hartree
energy change                       0.00001769     0.00018000    T
constrained gradient max            0.00094517     0.00100000    T
constrained gradient rms            0.00023922     0.00066667    T
gradient max                        0.00094517
gradient rms                        0.00023922
cart. step max                      0.01248269     0.01000000    F
cart. step rms                      0.00378925     0.00666667    T
 
 
--------
Geometry
--------
Formula: C9H8O
Atoms
  Index Symbol   x (angstrom)   y (angstrom)   z (angstrom)
      1      C    -5.30111543    -0.21446964    -0.27374555
      2      C    -4.18995892    -0.93704854     0.02339103
      3      C    -2.82043992    -0.48266394     0.30365498
      4      O    -1.92430134    -1.23974242     0.65804158
      5      H    -4.28569219    -2.02239623     0.01026869
      6      H    -2.60630143     0.59537999     0.13532299
      7      C    -5.58109997     1.22636724    -0.29669820
      8      C    -4.94671431     2.17591061     0.52816845
      9      C    -5.29682250     3.52203408     0.46746428
     10      C    -6.28969459     3.95782974    -0.41117168
     11      C    -6.94457466     3.03026028    -1.22220202
     12      C    -6.60397991     1.68359189    -1.15460683
     13      H    -4.20325654     1.85535368     1.25027853
     14      H    -4.80094671     4.23537242     1.12173359
     15      H    -6.56386203     5.00969259    -0.45053371
     16      H    -7.73118750     3.35603565    -1.89936757
     17      H    -7.13033301     0.96824000    -1.78279949
     18      H    -6.16906626    -0.81310389    -0.55695039
 
Total System Charge             0.00000
Bonding info available!
 
 *** GOStep16 ***

 Energy gradients wrt nuclear displacements
 ==========================================

     Atom      Cartesian (a.u./angstrom)
                 X         Y         Z
 ----------------------------------------
     1 C    -0.000256 -0.000050  0.000606
     2 C     0.000240 -0.000011 -0.000828
     3 C    -0.000019  0.000029  0.000020
     4 O     0.000007  0.000018 -0.000006
     5 H     0.000036  0.000001 -0.000146
     6 H     0.000042 -0.000022 -0.000284
     7 C     0.000254  0.000087 -0.000375
     8 C    -0.000322 -0.000069  0.000344
     9 C     0.000019  0.000009 -0.000004
    10 C     0.000003  0.000004  0.000031
    11 C    -0.000056 -0.000007  0.000096
    12 C     0.000234  0.000036 -0.000233
    13 H     0.000128  0.000010 -0.000105
    14 H     0.000080  0.000015 -0.000053
    15 H    -0.000018 -0.000003  0.000047
    16 H    -0.000087 -0.000010  0.000115
    17 H    -0.000088 -0.000012  0.000113
    18 H    -0.000198 -0.000025  0.000662
 ----------------------------------------
 Mulliken charges used for AMS results%charges...

 dE(predicted):    -0.12677E-04, dE(actual):     0.19393E-04, Trust radius:    0.020000, all in a.u.
 
----------------------------------------------------------------------
Geometry Convergence after Step  16       (Hartree/Angstrom,Angstrom)
----------------------------------------------------------------------
current energy                               -4.10985082 Hartree
energy change                       0.00001939     0.00018000    T
constrained gradient max            0.00079934     0.00100000    T
constrained gradient rms            0.00020370     0.00066667    T
gradient max                        0.00079934
gradient rms                        0.00020370
cart. step max                      0.01252850     0.01000000    F
cart. step rms                      0.00385693     0.00666667    T
 
 
--------
Geometry
--------
Formula: C9H8O
Atoms
  Index Symbol   x (angstrom)   y (angstrom)   z (angstrom)
      1      C    -5.29861349    -0.21310395    -0.27823965
      2      C    -4.18926840    -0.93707299     0.02284865
      3      C    -2.82030158    -0.48565353     0.31031207
      4      O    -1.92643482    -1.24564880     0.66426215
      5      H    -4.28600611    -2.02228879     0.00604289
      6      H    -2.60383113     0.59277864     0.14785149
      7      C    -5.57994526     1.22736071    -0.29866349
      8      C    -4.94379385     2.17767628     0.52409706
      9      C    -5.29536139     3.52341395     0.46444971
     10      C    -6.29169659     3.95828277    -0.41078107
     11      C    -6.94856157     3.03005991    -1.21939437
     12      C    -6.60630409     1.68377162    -1.15296145
     13      H    -4.19773387     1.85819501     1.24393235
     14      H    -4.79789787     4.23725454     1.11696302
     15      H    -6.56687599     5.00991505    -0.44929880
     16      H    -7.73788803     3.35499136    -1.89379029
     17      H    -7.13407451     0.96794292    -1.77941551
     18      H    -6.16475866    -0.81123119    -0.56796602
 
Total System Charge             0.00000
Bonding info available!
 
 *** GOStep17 ***

 Energy gradients wrt nuclear displacements
 ==========================================

     Atom      Cartesian (a.u./angstrom)
                 X         Y         Z
 ----------------------------------------
     1 C    -0.000219 -0.000032  0.000502
     2 C     0.000210 -0.000010 -0.000679
     3 C    -0.000009  0.000010 -0.000002
     4 O    -0.000001  0.000026 -0.000052
     5 H     0.000024  0.000001 -0.000108
     6 H     0.000036 -0.000021 -0.000247
     7 C     0.000212  0.000078 -0.000323
     8 C    -0.000263 -0.000056  0.000286
     9 C     0.000024  0.000013 -0.000011
    10 C     0.000006 -0.000002  0.000034
    11 C    -0.000047 -0.000012  0.000091
    12 C     0.000185  0.000027 -0.000172
    13 H     0.000117  0.000010 -0.000094
    14 H     0.000081  0.000014 -0.000053
    15 H    -0.000012 -0.000002  0.000043
    16 H    -0.000082 -0.000010  0.000114
    17 H    -0.000088 -0.000013  0.000114
    18 H    -0.000174 -0.000021  0.000558
 ----------------------------------------
 Mulliken charges used for AMS results%charges...

 dE(predicted):    -0.10619E-04, dE(actual):     0.21222E-04, Trust radius:    0.020000, all in a.u.
 
----------------------------------------------------------------------
Geometry Convergence after Step  17       (Hartree/Angstrom,Angstrom)
----------------------------------------------------------------------
current energy                               -4.10982960 Hartree
energy change                       0.00002122     0.00018000    T
constrained gradient max            0.00065140     0.00100000    T
constrained gradient rms            0.00016804     0.00066667    T
gradient max                        0.00065140
gradient rms                        0.00016804
cart. step max                      0.01271193     0.01000000    F
cart. step rms                      0.00398951     0.00666667    T
 
 
--------
Geometry
--------
Formula: C9H8O
Atoms
  Index Symbol   x (angstrom)   y (angstrom)   z (angstrom)
      1      C    -5.29600658    -0.21170478    -0.28289407
      2      C    -4.18851863    -0.93710219     0.02214949
      3      C    -2.82017373    -0.48875830     0.31718597
      4      O    -1.92878524    -1.25170915     0.67112444
      5      H    -4.28628522    -2.02217096     0.00159796
      6      H    -2.60123665     0.58999307     0.16056342
      7      C    -5.57872370     1.22838816    -0.30076646
      8      C    -4.94075599     2.17949579     0.51981832
      9      C    -5.29386023     3.52483140     0.46131946
     10      C    -6.29380381     3.95875914    -0.41032692
     11      C    -6.95269932     3.02987478    -1.21646603
     12      C    -6.60865445     1.68398681    -1.15133774
     13      H    -4.19195464     1.86111614     1.23722636
     14      H    -4.79474845     4.23918306     1.11201289
     15      H    -6.57007626     5.01014403    -0.44789148
     16      H    -7.74486569     3.35393543    -1.88793685
     17      H    -7.13788131     0.96768656    -1.77601866
     18      H    -6.16031729    -0.80930551    -0.57911138
 
Total System Charge             0.00000
Bonding info available!
 
 *** GOStep18 ***

 Energy gradients wrt nuclear displacements
 ==========================================

     Atom      Cartesian (a.u./angstrom)
                 X         Y         Z
 ----------------------------------------
     1 C    -0.000174 -0.000026  0.000399
     2 C     0.000162 -0.000007 -0.000540
     3 C     0.000003  0.000015 -0.000029
     4 O     0.000014  0.000017 -0.000082
     5 H     0.000010 -0.000002 -0.000076
     6 H     0.000030 -0.000023 -0.000212
     7 C     0.000175  0.000060 -0.000267
     8 C    -0.000207 -0.000043  0.000236
     9 C     0.000029  0.000014 -0.000013
    10 C     0.000009  0.000001  0.000032
    11 C    -0.000047 -0.000008  0.000083
    12 C     0.000139  0.000023 -0.000123
    13 H     0.000105  0.000010 -0.000085
    14 H     0.000083  0.000013 -0.000053
    15 H    -0.000008  0.000000  0.000041
    16 H    -0.000081 -0.000008  0.000115
    17 H    -0.000089 -0.000016  0.000115
    18 H    -0.000151 -0.000021  0.000459
 ----------------------------------------
 Mulliken charges used for AMS results%charges...

 dE(predicted):    -0.88047E-05, dE(actual):     0.24350E-04, Trust radius:    0.020000, all in a.u.
 
----------------------------------------------------------------------
Geometry Convergence after Step  18       (Hartree/Angstrom,Angstrom)
----------------------------------------------------------------------
current energy                               -4.10980525 Hartree
energy change                       0.00002435     0.00018000    T
constrained gradient max            0.00051292     0.00100000    T
constrained gradient rms            0.00013386     0.00066667    T
gradient max                        0.00051292
gradient rms                        0.00013386
cart. step max                      0.01277392     0.01000000    F
cart. step rms                      0.00407954     0.00666667    T
 
 
--------
Geometry
--------
Formula: C9H8O
Atoms
  Index Symbol   x (angstrom)   y (angstrom)   z (angstrom)
      1      C    -5.29334687    -0.21027201    -0.28762740
      2      C    -4.18774400    -0.93712787     0.02132663
      3      C    -2.82011388    -0.49192825     0.32420372
      4      O    -1.93137331    -1.25784250     0.67848309
      5      H    -4.28650239    -2.02203362    -0.00309258
      6      H    -2.59862678     0.58708218     0.17333735
      7      C    -5.57746301     1.22944219    -0.30291691
      8      C    -4.93760209     2.18136706     0.51538684
      9      C    -5.29232607     3.52627765     0.45811637
     10      C    -6.29600296     3.95922097    -0.40979119
     11      C    -6.95691663     3.02966704    -1.21343673
     12      C    -6.61101428     1.68420196    -1.14968864
     13      H    -4.18593616     1.86412348     1.23023377
     14      H    -4.79153186     4.24116154     1.10693032
     15      H    -6.57342324     5.01034273    -0.44634651
     16      H    -7.75195524     3.35283275    -1.88193002
     17      H    -7.14167623     0.96743789    -1.77261065
     18      H    -6.15579224    -0.80730970    -0.59032872
 
Total System Charge             0.00000
Bonding info available!
 
 *** GOStep19 ***

 Energy gradients wrt nuclear displacements
 ==========================================

     Atom      Cartesian (a.u./angstrom)
                 X         Y         Z
 ----------------------------------------
     1 C    -0.000134 -0.000015  0.000302
     2 C     0.000121 -0.000010 -0.000401
     3 C     0.000016  0.000015 -0.000053
     4 O     0.000021  0.000013 -0.000108
     5 H     0.000002 -0.000001 -0.000049
     6 H     0.000023 -0.000023 -0.000181
     7 C     0.000135  0.000043 -0.000206
     8 C    -0.000149 -0.000029  0.000178
     9 C     0.000035  0.000009 -0.000014
    10 C     0.000005  0.000002  0.000030
    11 C    -0.000044 -0.000010  0.000078
    12 C     0.000093  0.000025 -0.000075
    13 H     0.000091  0.000010 -0.000075
    14 H     0.000082  0.000012 -0.000053
    15 H    -0.000003  0.000002  0.000037
    16 H    -0.000080 -0.000008  0.000114
    17 H    -0.000089 -0.000015  0.000114
    18 H    -0.000127 -0.000019  0.000362
 ----------------------------------------
 Mulliken charges used for AMS results%charges...

 dE(predicted):    -0.69363E-05, dE(actual):     0.26664E-04, Trust radius:    0.020000, all in a.u.
 
----------------------------------------------------------------------
Geometry Convergence after Step  19       (Hartree/Angstrom,Angstrom)
----------------------------------------------------------------------
current energy                               -4.10977858 Hartree
energy change                       0.00002666     0.00018000    T
constrained gradient max            0.00037481     0.00100000    T
constrained gradient rms            0.00010019     0.00066667    T
gradient max                        0.00037481
gradient rms                        0.00010019
cart. step max                      0.01297877     0.01000000    F
cart. step rms                      0.00423549     0.00666667    T
 
 
--------
Geometry
--------
Formula: C9H8O
Atoms
  Index Symbol   x (angstrom)   y (angstrom)   z (angstrom)
      1      C    -5.29056106    -0.20875924    -0.29252498
      2      C    -4.18691866    -0.93716296     0.02029359
      3      C    -2.82010873    -0.49527618     0.33144886
      4      O    -1.93429148    -1.26423362     0.68651316
      5      H    -4.28671187    -2.02188501    -0.00811033
      6      H    -2.59588486     0.58392112     0.18631612
      7      C    -5.57607234     1.23057741    -0.30519025
      8      C    -4.93427467     2.18336300     0.51073771
      9      C    -5.29077137     3.52781333     0.45480613
     10      C    -6.29835612     3.95968929    -0.40916440
     11      C    -6.96126985     3.02942994    -1.21027443
     12      C    -6.61335232     1.68442542    -1.14803447
     13      H    -4.17954401     1.86732196     1.22282262
     14      H    -4.78827342     4.24327025     1.10167028
     15      H    -6.57707246     5.01051117    -0.44459471
     16      H    -7.75928860     3.35163975    -1.87566450
     17      H    -7.14544868     0.96717128    -1.76915883
     18      H    -6.15114670    -0.80517340    -0.60164286
 
Total System Charge             0.00000
Bonding info available!
 
 *** GOStep20 ***

 Energy gradients wrt nuclear displacements
 ==========================================

     Atom      Cartesian (a.u./angstrom)
                 X         Y         Z
 ----------------------------------------
     1 C    -0.000090 -0.000003  0.000203
     2 C     0.000087 -0.000011 -0.000275
     3 C     0.000025  0.000008 -0.000068
     4 O     0.000013  0.000017 -0.000133
     5 H    -0.000005 -0.000001 -0.000027
     6 H     0.000017 -0.000021 -0.000160
     7 C     0.000099  0.000033 -0.000143
     8 C    -0.000095 -0.000016  0.000124
     9 C     0.000035  0.000008 -0.000015
    10 C     0.000006  0.000000  0.000030
    11 C    -0.000038 -0.000010  0.000076
    12 C     0.000055  0.000019 -0.000036
    13 H     0.000081  0.000009 -0.000064
    14 H     0.000081  0.000012 -0.000050
    15 H    -0.000001  0.000002  0.000037
    16 H    -0.000079 -0.000008  0.000114
    17 H    -0.000089 -0.000014  0.000110
    18 H    -0.000103 -0.000022  0.000277
 ----------------------------------------
 Mulliken charges used for AMS results%charges...

 dE(predicted):    -0.52342E-05, dE(actual):     0.29699E-04, Trust radius:    0.020000, all in a.u.
 
----------------------------------------------------------------------
Geometry Convergence after Step  20       (Hartree/Angstrom,Angstrom)
----------------------------------------------------------------------
current energy                               -4.10974888 Hartree
energy change                       0.00002970     0.00018000    T
constrained gradient max            0.00024922     0.00100000    T
constrained gradient rms            0.00006949     0.00066667    T
gradient max                        0.00024922
gradient rms                        0.00006949
cart. step max                      0.01347619     0.01000000    F
cart. step rms                      0.00439417     0.00666667    T
 
 
--------
Geometry
--------
Formula: C9H8O
Atoms
  Index Symbol   x (angstrom)   y (angstrom)   z (angstrom)
      1      C    -5.28767404    -0.20716047    -0.29745215
      2      C    -4.18599477    -0.93720575     0.01897713
      3      C    -2.82009918    -0.49886125     0.33890241
      4      O    -1.93744900    -1.27102382     0.69496973
      5      H    -4.28682390    -2.02171934    -0.01377511
      6      H    -2.59296763     0.58049237     0.19979230
      7      C    -5.57464444     1.23178764    -0.30742673
      8      C    -4.93088569     2.18551383     0.50599910
      9      C    -5.28923832     3.52948063     0.45138914
     10      C    -6.30085031     3.96019079    -0.40852091
     11      C    -6.96577339     3.02915201    -1.20698840
     12      C    -6.61574542     1.68463555    -1.14624738
     13      H    -4.17290414     1.87078125     1.21514359
     14      H    -4.78498128     4.24558064     1.09617178
     15      H    -6.58090091     5.01070021    -0.44286207
     16      H    -7.76680159     3.35033349    -1.86924850
     17      H    -7.14924404     0.96684568    -1.76553638
     18      H    -6.14636914    -0.80287994    -0.61303884
 
Total System Charge             0.00000
Bonding info available!
 
 *** GOStep21 ***

 Energy gradients wrt nuclear displacements
 ==========================================

     Atom      Cartesian (a.u./angstrom)
                 X         Y         Z
 ----------------------------------------
     1 C    -0.000065  0.000000  0.000132
     2 C     0.000063 -0.000017 -0.000168
     3 C     0.000024  0.000003 -0.000085
     4 O     0.000017  0.000013 -0.000143
     5 H    -0.000010 -0.000001 -0.000019
     6 H     0.000017 -0.000019 -0.000143
     7 C     0.000066  0.000022 -0.000093
     8 C    -0.000051 -0.000004  0.000079
     9 C     0.000033  0.000012 -0.000020
    10 C     0.000010 -0.000003  0.000035
    11 C    -0.000041 -0.000008  0.000078
    12 C     0.000019  0.000010  0.000004
    13 H     0.000073  0.000008 -0.000058
    14 H     0.000080  0.000013 -0.000048
    15 H     0.000002  0.000006  0.000035
    16 H    -0.000077 -0.000007  0.000112
    17 H    -0.000085 -0.000011  0.000106
    18 H    -0.000076 -0.000016  0.000196
 ----------------------------------------
 Mulliken charges used for AMS results%charges...

 dE(predicted):    -0.37399E-05, dE(actual):     0.33405E-04, Trust radius:    0.020000, all in a.u.
 
----------------------------------------------------------------------
Geometry Convergence after Step  21       (Hartree/Angstrom,Angstrom)
----------------------------------------------------------------------
current energy                               -4.10971548 Hartree
energy change                       0.00003340     0.00018000    T
constrained gradient max            0.00014174     0.00100000    T
constrained gradient rms            0.00004401     0.00066667    T
gradient max                        0.00014174
gradient rms                        0.00004401
cart. step max                      0.01369137     0.01000000    F
cart. step rms                      0.00452400     0.00666667    T
 
 
--------
Geometry
--------
Formula: C9H8O
Atoms
  Index Symbol   x (angstrom)   y (angstrom)   z (angstrom)
      1      C    -5.28468867    -0.20549764    -0.30254114
      2      C    -4.18501286    -0.93722978     0.01745260
      3      C    -2.82014504    -0.50256402     0.34654378
      4      O    -1.94089417    -1.27798668     0.70400199
      5      H    -4.28690413    -2.02151572    -0.01961419
      6      H    -2.58998503     0.57688411     0.21348367
      7      C    -5.57311380     1.23305508    -0.30981887
      8      C    -4.92730897     2.18774028     0.50099155
      9      C    -5.28766609     3.53118333     0.44786325
     10      C    -6.30346559     3.96068547    -0.40778789
     11      C    -6.97034520     3.02887032    -1.20364255
     12      C    -6.61811113     1.68486809    -1.14450487
     13      H    -4.16592781     1.87435590     1.20702344
     14      H    -4.78165963     4.24792723     1.09055580
     15      H    -6.58502654     5.01083598    -0.44084296
     16      H    -7.77449798     3.34898747    -1.86261894
     17      H    -7.15305606     0.96651977    -1.76188452
     18      H    -6.14153848    -0.80047570    -0.62441142
 
Total System Charge             0.00000
Bonding info available!
 
 *** GOStep22 ***

 Energy gradients wrt nuclear displacements
 ==========================================

     Atom      Cartesian (a.u./angstrom)
                 X         Y         Z
 ----------------------------------------
     1 C    -0.000045  0.000001  0.000054
     2 C     0.000051 -0.000011 -0.000099
     3 C     0.000017 -0.000009 -0.000082
     4 O     0.000024  0.000011 -0.000146
     5 H    -0.000013  0.000001 -0.000010
     6 H     0.000019 -0.000017 -0.000127
     7 C     0.000025  0.000009 -0.000026
     8 C    -0.000011  0.000009  0.000019
     9 C     0.000034  0.000011 -0.000025
    10 C     0.000008 -0.000006  0.000040
    11 C    -0.000033 -0.000003  0.000068
    12 C    -0.000010  0.000006  0.000035
    13 H     0.000068  0.000004 -0.000045
    14 H     0.000077  0.000011 -0.000045
    15 H     0.000002  0.000005  0.000037
    16 H    -0.000077 -0.000006  0.000114
    17 H    -0.000083 -0.000008  0.000105
    18 H    -0.000052 -0.000006  0.000132
 ----------------------------------------
 Mulliken charges used for AMS results%charges...

 dE(predicted):    -0.22583E-05, dE(actual):     0.36286E-04, Trust radius:    0.020000, all in a.u.
 
---------------------------------------------------------
Geometry Convergence after Step  22       ** CONVERGED **
---------------------------------------------------------
current energy                               -4.10967919 Hartree
energy change                       0.00003629     0.00018000    T
constrained gradient max            0.00007140     0.00100000    T
constrained gradient rms            0.00002189     0.00066667    T
gradient max                        0.00007140
gradient rms                        0.00002189
cart. step max                      0.01264029     0.01000000    F
cart. step rms                      0.00426665     0.00666667    T
 
Geometry optimization converged

Optimized geometry:
 
--------
Geometry
--------
Formula: C9H8O
Atoms
  Index Symbol   x (angstrom)   y (angstrom)   z (angstrom)
      1      C    -5.28468867    -0.20549764    -0.30254114
      2      C    -4.18501286    -0.93722978     0.01745260
      3      C    -2.82014504    -0.50256402     0.34654378
      4      O    -1.94089417    -1.27798668     0.70400199
      5      H    -4.28690413    -2.02151572    -0.01961419
      6      H    -2.58998503     0.57688411     0.21348367
      7      C    -5.57311380     1.23305508    -0.30981887
      8      C    -4.92730897     2.18774028     0.50099155
      9      C    -5.28766609     3.53118333     0.44786325
     10      C    -6.30346559     3.96068547    -0.40778789
     11      C    -6.97034520     3.02887032    -1.20364255
     12      C    -6.61811113     1.68486809    -1.14450487
     13      H    -4.16592781     1.87435590     1.20702344
     14      H    -4.78165963     4.24792723     1.09055580
     15      H    -6.58502654     5.01083598    -0.44084296
     16      H    -7.77449798     3.34898747    -1.86261894
     17      H    -7.15305606     0.96651977    -1.76188452
     18      H    -6.14153848    -0.80047570    -0.62441142
 
Total System Charge             0.00000
Bonding info available!
 
Performing a single point calculation on the final geometry ...

 *** adf ***



 ===========================
 A T T A C H E D   F I L E S
 ===========================
  
 RestartZ:/SCMTMP/amstmp_ams_kid0.2095819341/GOStep22.rkf*** GOStep22 ***



 ===============================
 M O D E L   P A R A M E T E R S
 ===============================
  
 DENSITY FUNCTIONAL POTENTIAL (scf)
    LDA:                               Exchange only                           == Not Default ==
    Gradient Corrections:              OPTX LYP                                == Not Default ==

 SPIN  (restricted / unrestr.)
    Molecule:                          Restricted                               
    Fragments:                         Restricted                               

 OTHER ASPECTS
    Relativistic Corrections:          scalar (ZORA,MAPA)                       

    Nuclear Charge Density Model:      Point Charge Nuclei                      
    Core Treatment:                    Frozen Orbital(s)                        

    Hyperfine or Zeeman Interaction:   ---                                      



 ===============
 G E O M E T R Y  ***  3D  Molecule  ***
 ===============
  

 ATOMS
 =====                            X Y Z                    CHARGE
                                (Angstrom)             Nucl     +Core       At.Mass
                       --------------------------    ----------------       -------
    1  C              -5.2847   -0.2055   -0.3025      6.00      6.00       12.0000
    2  C              -4.1850   -0.9372    0.0175      6.00      6.00       12.0000
    3  C              -2.8201   -0.5026    0.3465      6.00      6.00       12.0000
    4  O              -1.9409   -1.2780    0.7040      8.00      8.00       15.9949
    5  H              -4.2869   -2.0215   -0.0196      1.00      1.00        1.0078
    6  H              -2.5900    0.5769    0.2135      1.00      1.00        1.0078
    7  C              -5.5731    1.2331   -0.3098      6.00      6.00       12.0000
    8  C              -4.9273    2.1877    0.5010      6.00      6.00       12.0000
    9  C              -5.2877    3.5312    0.4479      6.00      6.00       12.0000
   10  C              -6.3035    3.9607   -0.4078      6.00      6.00       12.0000
   11  C              -6.9703    3.0289   -1.2036      6.00      6.00       12.0000
   12  C              -6.6181    1.6849   -1.1445      6.00      6.00       12.0000
   13  H              -4.1659    1.8744    1.2070      1.00      1.00        1.0078
   14  H              -4.7817    4.2479    1.0906      1.00      1.00        1.0078
   15  H              -6.5850    5.0108   -0.4408      1.00      1.00        1.0078
   16  H              -7.7745    3.3490   -1.8626      1.00      1.00        1.0078
   17  H              -7.1531    0.9665   -1.7619      1.00      1.00        1.0078
   18  H              -6.1415   -0.8005   -0.6244      1.00      1.00        1.0078


 FRAGMENTS
 =========                                     Atoms in this Fragment     Cart. coord.s (Angstrom)
                                               -------------------------------------------------------
    1  C                                                 1  C           -5.2847   -0.2055   -0.3025
    2  C                                                 2  C           -4.1850   -0.9372    0.0175
    3  C                                                 3  C           -2.8201   -0.5026    0.3465
    4  C                                                 7  C           -5.5731    1.2331   -0.3098
    5  C                                                 8  C           -4.9273    2.1877    0.5010
    6  C                                                 9  C           -5.2877    3.5312    0.4479
    7  C                                                10  C           -6.3035    3.9607   -0.4078
    8  C                                                11  C           -6.9703    3.0289   -1.2036
    9  C                                                12  C           -6.6181    1.6849   -1.1445
   10  O                                                 4  O           -1.9409   -1.2780    0.7040
   11  H                                                 5  H           -4.2869   -2.0215   -0.0196
[...]
                                   23.60%     2 S               2.096  0.00    11 H
                                   17.38%     1 S              -6.484  1.00    14 H
                                   15.84%     2 S               2.096  0.00    14 H
                                   14.51%     1 S              -6.484  1.00    17 H
                                   14.04%     1 S              -6.484  1.00    12 H
                                   12.66%     2 S               2.096  0.00    17 H
                                   10.47%     1 S              -6.484  1.00    11 H
                                   -8.66%     2 P:x             4.559  0.00     1 C
                                   -7.23%     2 P:y             4.559  0.00     6 C
                                    7.02%     2 S               2.096  0.00    16 H
                                   -6.95%     2 P:y             4.559  0.00     9 C
                                   -6.36%     2 P:y             4.559  0.00     2 C
                                    6.08%     1 S              -6.484  1.00    16 H
                                   -5.89%     2 P:z             4.559  0.00     6 C
                                   -4.54%     2 P:x             4.559  0.00     2 C
                                    4.13%     1 P:y            -5.135  0.67     3 C
                                   -3.98%     2 P:x             4.559  0.00     5 C
                                   -3.86%     3 S              10.456  0.00     3 C
                                    3.39%     2 S               2.096  0.00    13 H
                                   -2.83%     2 P:y             4.559  0.00     3 C
                                   -2.71%     2 P:y             4.559  0.00     5 C
                                   -2.60%     2 P:x             4.559  0.00     9 C
                                   -2.42%     1 P:x            -5.135  0.67     1 C
                                    2.13%     2 S               2.096  0.00    15 H
                                   -2.09%     2 P:z             4.559  0.00     9 C
                                   -1.93%     1 P:x            -5.135  0.67     2 C
                                   -1.90%     2 P:y             4.559  0.00     8 C
                                    1.84%     1 S              -6.484  1.00    13 H
                                   -1.80%     2 P:x             4.559  0.00     8 C
                                   -1.77%     2 P:z             4.559  0.00     8 C
                                    1.65%     1 S              -6.484  1.00    15 H
                                   -1.63%     2 P:x             4.559  0.00     6 C
                                    1.52%     3 S              41.380  0.00    14 H
                                   -1.49%     2 P:z             4.559  0.00     1 C
                                   -1.39%     3 S              10.456  0.00     9 C
                                    1.34%     2 S             -13.802  2.00     9 C
                                    1.26%     1 P:y            -5.135  0.67     2 C
                                    1.23%     3 S              41.380  0.00    17 H
                                   -1.20%     2 S             -13.802  2.00     3 C
                                    1.16%     1 S              -6.484  1.00    18 H
                                   -1.08%     1 P:y            -5.135  0.67     5 C
                                   -1.07%     2 P:y             4.559  0.00     7 C
                                   -1.01%     3 S              21.890  0.00    10 O
       1.309  0.00    45 A         19.06%     1 S              -6.484  1.00    15 H
                                   16.90%     1 S              -6.484  1.00    16 H
                                   16.44%     1 S              -6.484  1.00    12 H
                                   15.25%     1 S              -6.484  1.00    11 H
                                   14.38%     2 S               2.096  0.00    15 H
                                  -13.79%     2 P:y             4.559  0.00     7 C
                                  -13.23%     2 P:y             4.559  0.00     2 C
                                   11.86%     1 S              -6.484  1.00    14 H
                                  -11.60%     2 P:x             4.559  0.00     8 C
                                   10.05%     2 S               2.096  0.00    11 H
                                    9.14%     2 S               2.096  0.00    16 H
                                    8.43%     2 S               2.096  0.00    12 H
                                    7.65%     1 S              -6.484  1.00    18 H
                                   -6.77%     2 P:z             4.559  0.00     6 C
                                   -6.13%     2 P:y             4.559  0.00     3 C
                                    5.79%     2 S               2.096  0.00    18 H
                                    3.67%     2 S               2.096  0.00    14 H
                                   -3.51%     2 P:z             4.559  0.00     8 C
                                    3.42%     2 P:y             4.559  0.00     1 C
                                   -3.22%     2 P:x             4.559  0.00     3 C
                                   -3.06%     2 P:y             4.559  0.00     9 C
                                    2.70%     1 P:z            -5.135  0.67     2 C
                                    2.62%     1 P:x            -5.135  0.67     9 C
                                    2.43%     1 P:x            -5.135  0.67     7 C
                                    2.35%     2 S               2.096  0.00    17 H
                                   -2.10%     1 P:z            -5.135  0.67     8 C
                                    2.08%     1 P:x            -5.135  0.67     8 C
                                    2.02%     3 S              41.380  0.00    15 H
                                   -1.91%     2 P:z             4.559  0.00     1 C
                                    1.89%     1 S              -6.484  1.00    17 H
                                    1.83%     3 S              41.380  0.00    16 H
                                   -1.80%     2 P:x             4.559  0.00     1 C
                                   -1.66%     1 P:y            -5.135  0.67     7 C
                                    1.56%     1 P:z            -5.135  0.67     3 C
                                    1.43%     2 P:z             4.559  0.00     2 C
                                    1.38%     1 P:y            -5.135  0.67     1 C
                                    1.33%     1 S              -6.484  1.00    13 H
                                   -1.25%     1 P:y            -5.135  0.67     2 C
                                   -1.20%     2 P:x             4.559  0.00     6 C
                                    1.15%     2 S             -13.802  2.00     7 C
                                   -1.13%     1 P:y            -5.135  0.67     3 C
                                    1.13%     1 P:y            -5.135  0.67     6 C
                                    1.06%     2 S             -13.802  2.00     2 C
                                    1.04%     2 P:x             4.559  0.00     9 C
       1.748  0.00    46 A         30.10%     1 S              -6.484  1.00    13 H
                                   18.00%     2 S               2.096  0.00    13 H
                                  -13.66%     2 P:z             4.559  0.00     5 C
                                  -10.31%     2 P:z             4.559  0.00     4 C
                                    9.42%     1 P:x            -5.135  0.67     5 C
                                    9.16%     2 P:z             4.559  0.00     1 C
                                   -9.04%     2 P:x             4.559  0.00     1 C
                                    8.75%     2 S               2.096  0.00    11 H
                                    8.59%     1 S              -6.484  1.00    14 H
                                   -8.48%     2 P:y             4.559  0.00     2 C
                                    7.42%     1 S              -6.484  1.00    11 H
                                   -7.19%     2 P:y             4.559  0.00     6 C
                                   -7.02%     2 P:x             4.559  0.00     6 C
                                    6.20%     1 S              -6.484  1.00    18 H
                                   -6.04%     2 P:x             4.559  0.00     2 C
                                    5.76%     2 S               2.096  0.00    12 H
                                    5.24%     2 P:z             4.559  0.00     6 C
                                    5.05%     1 P:x            -5.135  0.67     6 C
                                    4.58%     2 S               2.096  0.00    14 H
                                   -4.57%     1 P:z            -5.135  0.67     5 C
                                    4.30%     1 S              -6.484  1.00    12 H
                                    4.04%     2 P:z             4.559  0.00     2 C
                                    3.42%     1 P:x            -5.135  0.67     9 C
                                    3.32%     1 P:x            -5.135  0.67     7 C
                                    3.26%     2 P:y             4.559  0.00     4 C
                                    3.02%     2 P:y             4.559  0.00     3 C
                                   -2.85%     2 P:x             4.559  0.00     3 C
                                    2.54%     1 S              -6.484  1.00    15 H
                                    2.49%     1 P:z            -5.135  0.67     8 C
                                   -2.43%     1 P:x            -5.135  0.67     2 C
                                    2.25%     2 P:z             4.559  0.00     3 C
                                    2.16%     3 S              41.380  0.00    13 H
                                    2.04%     1 P:z            -5.135  0.67     7 C
                                    1.98%     1 P:x            -5.135  0.67     8 C
                                   -1.95%     2 P:z             4.559  0.00     8 C
                                    1.81%     2 P:x             4.559  0.00     4 C
                                    1.63%     1 S              -6.484  1.00    17 H
                                    1.62%     2 S               2.096  0.00    17 H
                                    1.55%     1 P:y            -5.135  0.67     7 C
                                    1.50%     2 P:z             4.559  0.00     9 C
                                    1.46%     1 P:z            -5.135  0.67     9 C
                                    1.44%     1 P:y            -5.135  0.67     3 C
                                    1.34%     1 P:z            -5.135  0.67     2 C
                                    1.28%     2 S               2.096  0.00    18 H
                                    1.25%     3 S              41.380  0.00    14 H
                                   -1.06%     1 P:z            -5.135  0.67     6 C
                                   -1.04%     2 P:x             4.559  0.00     8 C
       2.091  0.00    47 A         32.34%     1 S              -6.484  1.00    17 H
                                   25.49%     1 S              -6.484  1.00    18 H
                                   16.92%     2 P:x             4.559  0.00     2 C
                                   12.27%     1 S              -6.484  1.00    16 H
                                   10.77%     1 S              -6.484  1.00    13 H
                                  -10.70%     2 P:z             4.559  0.00     9 C
                                   10.36%     1 S              -6.484  1.00    15 H
                                  -10.15%     2 P:z             4.559  0.00     5 C
                                   -8.07%     2 P:y             4.559  0.00     7 C
                                    8.04%     2 S               2.096  0.00    11 H
                                    8.01%     2 S               2.096  0.00    16 H
                                    6.91%     2 P:y             4.559  0.00     4 C
                                   -6.85%     2 P:y             4.559  0.00     2 C
                                    6.78%     2 S               2.096  0.00    14 H
                                   -6.77%     2 S               2.096  0.00    13 H
                                    6.52%     1 S              -6.484  1.00    12 H
                                   -6.37%     2 P:y             4.559  0.00     9 C
                                   -5.43%     2 P:x             4.559  0.00     9 C
                                   -4.86%     1 P:y            -5.135  0.67     4 C
                                   -4.69%     2 P:y             4.559  0.00     1 C
                                    4.62%     1 S              -6.484  1.00    11 H
                                    4.57%     1 P:x            -5.135  0.67     2 C
                                   -4.50%     2 P:y             4.559  0.00     3 C
                                   -4.39%     2 S               2.096  0.00    12 H
                                    3.88%     1 P:x            -5.135  0.67     3 C
                                    3.86%     1 S              -6.484  1.00    14 H
                                    3.69%     2 P:x             4.559  0.00     5 C
                                   -3.63%     2 P:x             4.559  0.00     8 C
                                    3.56%     2 P:z             4.559  0.00     3 C
                                    3.26%     2 P:z             4.559  0.00     2 C
                                    3.14%     1 P:z            -5.135  0.67     5 C
                                    2.97%     3 S              41.380  0.00    17 H
                                    2.71%     2 S               2.096  0.00    18 H
                                   -2.26%     2 S             -13.802  2.00     3 C
                                    2.10%     3 S              41.380  0.00    18 H
                                   -1.91%     2 P:x             4.559  0.00     1 C
                                   -1.75%     1 P:y            -5.135  0.67     3 C
                                   -1.74%     2 P:x             4.559  0.00     6 C
                                    1.70%     1 P:y            -5.135  0.67     6 C
                                    1.67%     2 S             -13.802  2.00     1 C
                                   -1.65%     1 P:y            -5.135  0.67     2 C
                                    1.52%     3 S              41.380  0.00    16 H
                                   -1.43%     3 S              21.890  0.00    10 O
                                    1.42%     1 P:z            -5.135  0.67     6 C
                                   -1.37%     2 P:y             4.559  0.00     8 C
                                    1.31%     3 S              41.380  0.00    15 H
                                    1.31%     1 P:y            -5.135  0.67     9 C
                                   -1.30%     3 S              10.456  0.00     1 C
                                   -1.19%     2 S               2.096  0.00    15 H
                                    1.09%     1 P:z            -5.135  0.67     2 C
                                   -1.07%     3 S              10.456  0.00     3 C
                                    1.02%     2 S             -13.802  2.00     9 C
                                   -1.01%     1 P:x            -5.135  0.67     6 C

 Energy gradients wrt nuclear displacements
 ==========================================

     Atom      Cartesian (a.u./angstrom)
                 X         Y         Z
 ----------------------------------------
     1 C    -0.000045  0.000001  0.000054
     2 C     0.000051 -0.000011 -0.000099
     3 C     0.000017 -0.000009 -0.000082
     4 O     0.000024  0.000011 -0.000146
     5 H    -0.000013  0.000001 -0.000010
     6 H     0.000019 -0.000017 -0.000127
     7 C     0.000025  0.000009 -0.000026
     8 C    -0.000011  0.000009  0.000019
     9 C     0.000034  0.000011 -0.000025
    10 C     0.000008 -0.000006  0.000040
    11 C    -0.000033 -0.000003  0.000068
    12 C    -0.000010  0.000006  0.000034
    13 H     0.000068  0.000004 -0.000045
    14 H     0.000077  0.000011 -0.000045
    15 H     0.000002  0.000005  0.000037
    16 H    -0.000077 -0.000006  0.000114
    17 H    -0.000083 -0.000008  0.000105
    18 H    -0.000052 -0.000006  0.000132
 ----------------------------------------



 =======================================================================
 Electrostatic potential at the Nuclei due to electrons and other nuclei
 =======================================================================
  
         Atom                  Potential
         ----                  ---------
     1)   C                  14.75348568
     2)   C                  14.77521287
     3)   C                  14.71553112
     4)   O                  22.40828238
     5)   H                   1.09989363
     6)   H                   1.10348826
     7)   C                  14.75279601
     8)   C                  14.76838456
     9)   C                  14.77088419
    10)   C                  14.76935010
    11)   C                  14.77076022
    12)   C                  14.76834274
    13)   H                   1.09230787
    14)   H                   1.09360009
    15)   H                   1.09223156
    16)   H                   1.09261100
    17)   H                   1.09100044
    18)   H                   1.09160233
 Mulliken charges used for AMS results%charges...


    =====================
     CALCULATION RESULTS
    =====================

Energy (hartree)            -4.10967919

Gradients (hartree/bohr)
  Index   Atom            d/dx            d/dy            d/dz
      1      C   -0.0000238591    0.0000003268    0.0000285592
      2      C    0.0000267910   -0.0000058993   -0.0000522172
      3      C    0.0000089820   -0.0000048416   -0.0000432765
      4      O    0.0000125053    0.0000056736   -0.0000772037
      5      H   -0.0000068000    0.0000003023   -0.0000051569
      6      H    0.0000102213   -0.0000091656   -0.0000671617
      7      C    0.0000133413    0.0000049201   -0.0000136384
      8      C   -0.0000060638    0.0000048533    0.0000099509
      9      C    0.0000180977    0.0000057791   -0.0000132612
     10      C    0.0000044133   -0.0000033043    0.0000209103
     11      C   -0.0000177107   -0.0000015296    0.0000358981
     12      C   -0.0000053614    0.0000029676    0.0000182510
     13      H    0.0000358728    0.0000021101   -0.0000238578
     14      H    0.0000405208    0.0000057053   -0.0000236150
     15      H    0.0000012162    0.0000028788    0.0000195096
     16      H   -0.0000406825   -0.0000030242    0.0000604918
     17      H   -0.0000441073   -0.0000043736    0.0000558145
     18      H   -0.0000273770   -0.0000033788    0.0000700029


--------------
Atomic charges
--------------
  Index   Atom    Charge
      1      C    0.2716
      2      C    0.1723
      3      C    0.6218
      4      O   -0.4937
      5      H   -0.1860
      6      H   -0.2571
      7      C   -0.0174
      8      C    0.2644
      9      C    0.2553
     10      C    0.2505
     11      C    0.2420
     12      C    0.2986
     13      H   -0.2250
     14      H   -0.2530
     15      H   -0.2407
     16      H   -0.2469
     17      H   -0.2475
     18      H   -0.2092


Dipole moment vector    (Debye):    -3.46684702    2.67311702   -1.08429293
              magnitude (Debye):     4.51001929


AMS application finished. Exiting.
NORMAL TERMINATION
     Total cpu time:     579.48
  Total system time:      16.72
 Total elapsed time:     628.89
