

 Parallel Execution: Process Information
 ==============================================================================
 Rank   Node Name                              NodeID   MyNodeRank  NodeMaster
    0   DESKTOP-1M8FOJT                           0          0          0
    1   DESKTOP-1M8FOJT                           0          1         -1
    2   DESKTOP-1M8FOJT                           0          2         -1
    3   DESKTOP-1M8FOJT                           0          3         -1
 ==============================================================================


May use up to 4096MB of RAM as shared memory on node 0

 *******************************************************************************
 *                                                                             *
 *  --------------------------------                                           *
 *   Amsterdam Modeling Suite (AMS)              2021.106                      *
 *  --------------------------------                                           *
 *                                               r99350 2021-12-03             *
 *                                                                             *
 *                                                                             *
 *                              =================                              *
 *                              |               |                              *
 *                              |     A M S     |                              *
 *                              |               |                              *
 *                              =================                              *
 *                                                                             *
 *                                                                             *
 *   Online information and documentation:  https://www.scm.com/support/       *
 *   E-mail:  support@scm.com   info@scm.com                                   *
 *                                                                             *
 *   Scientific publications using AMS results must be properly referenced     *
 *   See the User Manuals (or the web site) for recommended citations          *
 *   The terms and conditions of the End User License Agreement apply to       *
 *   the use of AMS, https://www.scm.com/license-terms/                        *
 *                                                                             *
 *********************  x86_64_windows_amdZen / intelmpi  **********************
 
 Licensed to: Mr. Yuman Hordijk / SCM / Amsterdam / Netherlands 2021-10-04 09:39:26
 SCM User ID: u24430
  
 AMS 2021.106  RunTime: Jan26-2022 14:12:49  ShM Nodes: 1  Procs: 4

 AMS jobname: ams
 AMS jobid  : 1530090919

 Start   directory: Z:/SCMTMP/user/
 Results directory: Z:/SCMTMP/user/ams.results/
 Scratch directory: Z:/SCMTMP/amstmp_ams_kid0.1530090919/


 Communication costs MPI_COMM_WORLD:      2.000 usec per message,   0.0050 usec per 8-byte item
 Communication costs for intra-node:      1.742 usec per message,   0.0048 usec per 8-byte item

 RNG seed: -1546892348 298318525 -1697182850 230868394 -116848330 -1157106856 -549120869 -1547854629
       ***************************
       *  GEOMETRY OPTIMIZATION  *
       ***************************

Optimization Method                    Quasi Newton
Optimization Coordinates               Delocalized Coordinates
Optimize lattice                       F
 
 ------------------------------------------------------
 Convergence criteria (Hartree,Angstrom)
 ------------------------------------------------------
 Maximum gradient               0.001000000000
 Maximum rms gradient           0.000666666667
 Maximum step allowed           0.010000000000
 Maximum rms step allowed       0.006666666667
 Maximum energy change allowe   0.000180000000
 Maximum stress energy allowe   0.000500000000
 
Initial model Hessian                  Automatic Hessian
 
------------------------------------
Quasi-Newton Optimizer Parameters
------------------------------------
Hessian Update Method                  BFGS
Maximum number of steps                  250
First GDIIS cycle                          0
Maximum GDIIS vectors                      0
Trust radius (bohr)                        0.200000
Trust radius varies                        T
Constraints converged at all steps         T
Use projector                              T
 
 Rigid motions settings for: old optimizer
 Atomic rotations (x,y,z):     T T T
 Atomic translations (x,y,z):  T T T
 Tolerance:                   1.000000000000000E-006
 
--------
Geometry
--------
Formula: C9H8O
Atoms
  Index Symbol   x (angstrom)   y (angstrom)   z (angstrom)
      1      C    -1.09083263     0.36326292     0.28828178
      2      C     0.10916675    -0.11906184    -0.09211800
      3      C     1.34742560     0.62314853    -0.34508107
      4      O     1.48081558     1.82214116    -0.37777685
      5      H     2.21910956    -0.05300483    -0.48258725
      6      H     0.22249116    -1.19859738    -0.13508596
      7      C    -1.54118021     1.74267501     0.44684326
      8      C    -1.17542394     2.77515444    -0.42201142
      9      C    -1.66146525     4.05772697    -0.22872680
     10      C    -2.51130885     4.33543334     0.83380091
     11      C    -2.89498843     3.31459866     1.69448969
     12      C    -2.42919184     2.02647859     1.49326053
     13      H    -0.52927482     2.56969756    -1.26470123
     14      H    -1.37331238     4.84843937    -0.91224865
     15      H    -2.88205599     5.34272837     0.98628689
     16      H    -3.56601203     3.52257918     2.52053377
     17      H    -2.73381555     1.23149667     2.16600204
     18      H    -1.84600134    -0.37410674     0.55985418
 
Total System Charge             0.00000
Bonding info available!
 
 
-------------------------
DFTB Engine configuration
-------------------------
DFTB Resources dir                     Z:/AMS2021.106/atomicdata/DFTB/GFN1-xTB
 
SCC convergence enabled.
Maximum SCC cycles                       500
SCC charge convergence                   0.000000010000
SCC charge mixing                        0.150000000000
DIIS max dimension                       20
DIIS maximum coeff.                     10.000000000000
Adaptive SCC charge mixing             T
Adaptive SCC mixing strategy              3
Spin polarization                      F
Orbital-dependent SCC                  T
Orbital fill strategy                  Fermi
Fermi temperature (kelvin)                     300.0000
  ... kT (Hartree)                               0.0010
Use of symmetry                        T
Radial function extrapolation method   Auto

 Settings for Grimme D3 dispersion correction

      damping                        BJ
      s6                          1.000
      s8                          2.400
      a1                          0.630
      a2                          5.000

 Other (technical) parameters

      alpha                      14.000
      version                         4
 

---------------------
Periodic DFTB options
---------------------
 kpoints config
 grid method with params
Assume insulator                        F
Ewald tolerance                    1.00E-10
Ewald range factor                  2.00

 BZStruct config
 ---------------
 Enabled        T
 Automatic      T
 CalcFatBands   T
 useSymmetry    T
 deltaK          0.100000000000000     
 
 Using automatic Hessian for delocalized coordinates.
 
----------------------------------------------------------------------
Geometry Convergence after Step   1       (Hartree/Angstrom,Angstrom)
----------------------------------------------------------------------
current energy                              -27.96983268 Hartree
energy change                     -27.96983268     0.00018000    F
constrained gradient max            0.00057961     0.00100000    T
constrained gradient rms            0.00020171     0.00066667    T
gradient max                        0.00057961
gradient rms                        0.00020171
cart. step max                      0.01571097     0.01000000    F
cart. step rms                      0.00378902     0.00666667    T
 
 
--------
Geometry
--------
Formula: C9H8O
Atoms
  Index Symbol   x (angstrom)   y (angstrom)   z (angstrom)
      1      C    -1.09206839     0.36160468     0.28889793
      2      C     0.10844982    -0.11919040    -0.09157973
      3      C     1.34386394     0.62656859    -0.34733500
      4      O     1.47071980     1.82593673    -0.39348782
      5      H     2.21787152    -0.04665173    -0.48448603
      6      H     0.22531005    -1.19860720    -0.12844900
      7      C    -1.54219852     1.74094715     0.44730147
      8      C    -1.17244886     2.77356647    -0.41946310
      9      C    -1.65755774     4.05671303    -0.22678330
     10      C    -2.50979992     4.33478694     0.83363169
     11      C    -2.89678321     3.31386187     1.69295870
     12      C    -2.43089192     2.02564451     1.49308133
     13      H    -0.52242085     2.56848450    -1.25932583
     14      H    -1.36588493     4.84764151    -0.90859020
     15      H    -2.87877258     5.34268243     0.98649683
     16      H    -3.57007089     3.52219036     2.51707390
     17      H    -2.73763906     1.23073722     2.16492663
     18      H    -1.84553284    -0.37612672     0.56414733
 
Total System Charge             0.00000
Bonding info available!
 

 dE(predicted):    -0.37469E-05, dE(actual):     0.81634E-05, Trust radius:    0.020000, all in a.u.
 
----------------------------------------------------------------------
Geometry Convergence after Step   2       (Hartree/Angstrom,Angstrom)
----------------------------------------------------------------------
current energy                              -27.96982451 Hartree
energy change                       0.00000816     0.00018000    T
constrained gradient max            0.00146914     0.00100000    F
constrained gradient rms            0.00034147     0.00066667    T
gradient max                        0.00146914
gradient rms                        0.00034147
cart. step max                      0.01112085     0.01000000    F
cart. step rms                      0.00376738     0.00666667    T
 
 
--------
Geometry
--------
Formula: C9H8O
Atoms
  Index Symbol   x (angstrom)   y (angstrom)   z (angstrom)
      1      C    -1.09231953     0.36268947     0.28519922
      2      C     0.10806666    -0.11910326    -0.09483113
      3      C     1.34641197     0.62409853    -0.34371193
      4      O     1.47780696     1.82326320    -0.38236697
      5      H     2.22003693    -0.05108095    -0.47342793
      6      H     0.22276636    -1.19868975    -0.13377680
      7      C    -1.54206349     1.74199038     0.44494959
      8      C    -1.17629272     2.77476724    -0.42327372
      9      C    -1.66162988     4.05766359    -0.22903647
     10      C    -2.51031339     4.33529282     0.83427850
     11      C    -2.89408823     3.31401294     1.69470515
     12      C    -2.42796507     2.02616225     1.49334568
     13      H    -0.53037809     2.56998249    -1.26635579
     14      H    -1.37312110     4.84862042    -0.91216754
     15      H    -2.87933883     5.34297659     0.98843019
     16      H    -3.56510348     3.52188291     2.52078868
     17      H    -2.73219987     1.23102507     2.16605429
     18      H    -1.84612980    -0.37476397     0.56021281
 
Total System Charge             0.00000
Bonding info available!
 

 dE(predicted):    -0.10547E-04, dE(actual):    -0.99755E-05, Trust radius:    0.040000, all in a.u.
 
---------------------------------------------------------
Geometry Convergence after Step   3       ** CONVERGED **
---------------------------------------------------------
current energy                              -27.96983449 Hartree
energy change                      -0.00000998     0.00018000    T
constrained gradient max            0.00049842     0.00100000    T
constrained gradient rms            0.00012108     0.00066667    T
gradient max                        0.00049842
gradient rms                        0.00012108
cart. step max                      0.00344333     0.01000000    T
cart. step rms                      0.00103749     0.00666667    T
 
Geometry optimization converged

Optimized geometry:
 
--------
Geometry
--------
Formula: C9H8O
Atoms
  Index Symbol   x (angstrom)   y (angstrom)   z (angstrom)
      1      C    -1.09231953     0.36268947     0.28519922
      2      C     0.10806666    -0.11910326    -0.09483113
      3      C     1.34641197     0.62409853    -0.34371193
      4      O     1.47780696     1.82326320    -0.38236697
      5      H     2.22003693    -0.05108095    -0.47342793
      6      H     0.22276636    -1.19868975    -0.13377680
      7      C    -1.54206349     1.74199038     0.44494959
      8      C    -1.17629272     2.77476724    -0.42327372
      9      C    -1.66162988     4.05766359    -0.22903647
     10      C    -2.51031339     4.33529282     0.83427850
     11      C    -2.89408823     3.31401294     1.69470515
     12      C    -2.42796507     2.02616225     1.49334568
     13      H    -0.53037809     2.56998249    -1.26635579
     14      H    -1.37312110     4.84862042    -0.91216754
     15      H    -2.87933883     5.34297659     0.98843019
     16      H    -3.56510348     3.52188291     2.52078868
     17      H    -2.73219987     1.23102507     2.16605429
     18      H    -1.84612980    -0.37476397     0.56021281
 
Total System Charge             0.00000
Bonding info available!
 
Performing a single point calculation on the final geometry ...

Estimated upper bound for memory consumption:    0.293 MiB

Number of basis functions:           56
 applying a finite electronic temperature kT  0.000950                                                                                                           
    Cycle:   1, MaxQDiff:   0.000000012407, PartialEnergy:     -28.4065382877, Used mix:   0.150 nvec:    0
    Cycle:   2, MaxQDiff:   0.000000009361, PartialEnergy:     -28.4065382877, Used mix:   0.150 nvec:    1
 Evaluation was successful


    =====================
     CALCULATION RESULTS
    =====================

Energy (hartree)           -27.96983449

Gradients (hartree/bohr)
  Index   Atom            d/dx            d/dy            d/dz
      1      C   -0.0000012837   -0.0000496729   -0.0002637514
      2      C   -0.0001356426    0.0000048503   -0.0000327301
      3      C    0.0000749458   -0.0000737153    0.0000264399
      4      O    0.0000294275    0.0000679969    0.0000536484
      5      H   -0.0000043451   -0.0000058680   -0.0000548508
      6      H    0.0000397558    0.0000036855    0.0000968830
      7      C   -0.0001029497   -0.0000064263    0.0000704688
      8      C    0.0000111349    0.0001010907   -0.0000128505
      9      C    0.0000026474   -0.0000696705   -0.0000694695
     10      C   -0.0000459890   -0.0000260365    0.0000648352
     11      C   -0.0000537117    0.0000879289   -0.0000448917
     12      C    0.0001532419   -0.0000448222    0.0000373314
     13      H    0.0000076671   -0.0000080042    0.0000231447
     14      H   -0.0000073568    0.0000092682    0.0000031372
     15      H    0.0000383944    0.0000133162    0.0000163001
     16      H   -0.0000227452   -0.0000158972   -0.0000116592
     17      H   -0.0000090351    0.0000064119    0.0000019082
     18      H    0.0000258441    0.0000055643    0.0000961064

-----------
Bond orders
-----------

Description: Mayer bond orders
Only bonds with bond orders > 0.200 are printed.

 Index  Atom    Index  Atom    BondOrder
     1     C        2     C        1.764
     1     C        7     C        1.098
     1     C       18     H        0.965
     2     C        3     C        1.084
     2     C        6     H        0.971
     3     C        4     O        1.781
     3     C        5     H        0.942
     7     C        8     C        1.375
     7     C       12     C        1.368
     8     C        9     C        1.455
     8     C       13     H        0.968
     9     C       10     C        1.435
     9     C       14     H        0.972
    10     C       11     C        1.428
    10     C       15     H        0.973
    11     C       12     C        1.464
    11     C       16     H        0.972
    12     C       17     H        0.972


--------------
Atomic charges
--------------
  Index   Atom    Charge
      1      C    0.0306
      2      C   -0.0935
      3      C    0.3836
      4      O   -0.4874
      5      H    0.0075
      6      H    0.0357
      7      C    0.0078
      8      C   -0.0076
      9      C   -0.0231
     10      C   -0.0209
     11      C   -0.0264
     12      C   -0.0309
     13      H    0.0528
     14      H    0.0368
     15      H    0.0332
     16      H    0.0326
     17      H    0.0311
     18      H    0.0382


Dipole moment vector    (Debye):    -2.06318780   -1.83450231    0.33994342
              magnitude (Debye):     2.78167290

 
--------------------
Energy Decomposition
--------------------
Total Energy (hartree)               -27.96983449
Total Energy (eV)                   -761.09792138
Electronic Energy (hartree)          -28.45593420
Coulomb Energy (hartree)               0.04939591
Repulsion Energy (hartree)             0.44574243
Dispersion Energy (hartree)           -0.00903863
 
----------------------
Gradient Decomposition
----------------------
Total Gradients (hartree/bohr)
  Index   Atom            d/dx            d/dy            d/dz
      1      C   -0.0000012837   -0.0000496729   -0.0002637514
      2      C   -0.0001356426    0.0000048503   -0.0000327301
      3      C    0.0000749458   -0.0000737153    0.0000264399
      4      O    0.0000294275    0.0000679969    0.0000536484
      5      H   -0.0000043451   -0.0000058680   -0.0000548508
      6      H    0.0000397558    0.0000036855    0.0000968830
      7      C   -0.0001029497   -0.0000064263    0.0000704688
      8      C    0.0000111349    0.0001010907   -0.0000128505
      9      C    0.0000026474   -0.0000696705   -0.0000694695
     10      C   -0.0000459890   -0.0000260365    0.0000648352
     11      C   -0.0000537117    0.0000879289   -0.0000448917
     12      C    0.0001532419   -0.0000448222    0.0000373314
     13      H    0.0000076671   -0.0000080042    0.0000231447
     14      H   -0.0000073568    0.0000092682    0.0000031372
     15      H    0.0000383944    0.0000133162    0.0000163001
     16      H   -0.0000227452   -0.0000158972   -0.0000116592
     17      H   -0.0000090351    0.0000064119    0.0000019082
     18      H    0.0000258441    0.0000055643    0.0000961064
 
Total Gradients (eV/angstrom)
  Index   Atom            d/dx            d/dy            d/dz
      1      C   -0.0000660091   -0.0025542844   -0.0135626413
      2      C   -0.0069750247    0.0002494107   -0.0016830498
      3      C    0.0038538665   -0.0037905942    0.0013595937
      4      O    0.0015132228    0.0034965419    0.0027587133
      5      H   -0.0002234356   -0.0003017424   -0.0028205438
      6      H    0.0020443240    0.0001895165    0.0049819243
      7      C   -0.0052938879   -0.0003304517    0.0036236521
      8      C    0.0005725813    0.0051982942   -0.0006607993
      9      C    0.0001361358   -0.0035825987   -0.0035722643
     10      C   -0.0023648504   -0.0013388497    0.0033339613
     11      C   -0.0027619649    0.0045214847   -0.0023084257
     12      C    0.0078800155   -0.0023048497    0.0019196555
     13      H    0.0003942595   -0.0004115906    0.0011901473
     14      H   -0.0003782996    0.0004765916    0.0001613207
     15      H    0.0019743198    0.0006847462    0.0008381853
     16      H   -0.0011696065   -0.0008174671   -0.0005995420
     17      H   -0.0004646026    0.0003297141    0.0000981247
     18      H    0.0013289560    0.0002861287    0.0049419880
 
Electronic Gradients (hartree/bohr)
  Index   Atom            d/dx            d/dy            d/dz
      1      C   -0.0599025469    0.0307827453    0.0155741637
      2      C    0.0640016066   -0.0172805352   -0.0268230597
      3      C   -0.0035294100   -0.0755479297    0.0000408684
      4      O    0.0147974590    0.1457327542   -0.0049449166
      5      H    0.0455397030   -0.0351042015   -0.0068167319
      6      H    0.0073271799   -0.0695706284   -0.0023969160
      7      C    0.0156671895   -0.0318458127   -0.0036768185
      8      C    0.0247037269   -0.0142240281   -0.0253964580
      9      C    0.0096102541    0.0318026597   -0.0253130788
     10      C   -0.0136966053    0.0384711614    0.0068465266
     11      C   -0.0258677572    0.0116855587    0.0318715570
     12      C   -0.0065260697   -0.0348268571    0.0168128996
     13      H    0.0439550902   -0.0137560902   -0.0563619555
     14      H    0.0190306512    0.0518523643   -0.0447949839
     15      H   -0.0241450355    0.0661413049    0.0101343899
     16      H   -0.0439373766    0.0135972271    0.0540835517
     17      H   -0.0197889999   -0.0517344099    0.0438249147
     18      H   -0.0472390594   -0.0461752828    0.0173360473
 
Coulomb Gradients (hartree/bohr)
  Index   Atom            d/dx            d/dy            d/dz
      1      C   -0.0002378753   -0.0001256601    0.0000687144
      2      C   -0.0002248577    0.0002715310    0.0000338130
      3      C   -0.0018569451   -0.0169726372    0.0003599495
      4      O    0.0029044404    0.0167867787   -0.0002043659
      5      H   -0.0001226403   -0.0000200657    0.0000184158
      6      H    0.0000800893    0.0000917150   -0.0000091884
      7      C   -0.0000195200   -0.0001332790   -0.0000403370
      8      C    0.0000548158   -0.0000294187   -0.0000902195
      9      C    0.0000844136    0.0000441719   -0.0000500115
     10      C    0.0000038338    0.0000764472    0.0000070290
     11      C   -0.0000168091    0.0000344746    0.0000526779
     12      C    0.0000208635    0.0000043085    0.0000397674
     13      H   -0.0006763435   -0.0000018852   -0.0000652860
     14      H   -0.0001149315   -0.0000335029    0.0000316146
     15      H   -0.0000102574   -0.0000574573   -0.0000113265
     16      H    0.0000099548   -0.0000201962   -0.0000401388
     17      H    0.0000116426   -0.0000207932   -0.0000653949
     18      H    0.0001101260    0.0001054687   -0.0000357129
 
Repulsion Gradients (hartree/bohr)
  Index   Atom            d/dx            d/dy            d/dz
      1      C    0.0601406564   -0.0306364874   -0.0159081986
      2      C   -0.0639821981    0.0171151918    0.0267817425
      3      C    0.0053412835    0.0925270130   -0.0003438316
      4      O   -0.0177997889   -0.1624298972    0.0052363041
      5      H   -0.0454777159    0.0351428632    0.0067527352
      6      H   -0.0073915642    0.0695430537    0.0025101230
      7      C   -0.0157066552    0.0319367674    0.0037760205
      8      C   -0.0246941423    0.0143136553    0.0254517046
      9      C   -0.0096340546   -0.0319963177    0.0252882479
     10      C    0.0136810260   -0.0386129474   -0.0067991460
     11      C    0.0258745414   -0.0116839842   -0.0319902251
     12      C    0.0067084263    0.0347395236   -0.0168216869
     13      H   -0.0432859117    0.0137241693    0.0564987526
     14      H   -0.0189210100   -0.0518732302    0.0448014126
     15      H    0.0242153532   -0.0661240597   -0.0101154139
     16      H    0.0439444151   -0.0136135936   -0.0540997025
     17      H    0.0198124439    0.0517817446   -0.0438083390
     18      H    0.0471748952    0.0461465355   -0.0172104994
 
Dispersion Gradients (hartree/bohr)
  Index   Atom            d/dx            d/dy            d/dz
      1      C   -0.0000015179   -0.0000702706    0.0000015691
      2      C    0.0000698065   -0.0001013373   -0.0000252259
      3      C    0.0001200174   -0.0000801614   -0.0000305464
      4      O    0.0001273170   -0.0000216389   -0.0000333731
      5      H    0.0000563081   -0.0000244640   -0.0000092700
      6      H    0.0000240508   -0.0000604548   -0.0000071356
      7      C   -0.0000439640    0.0000358981    0.0000116038
      8      C   -0.0000532655    0.0000408823    0.0000221224
      9      C   -0.0000579657    0.0000798156    0.0000053729
     10      C   -0.0000342435    0.0000393022    0.0000104257
     11      C   -0.0000436868    0.0000518798    0.0000210985
     12      C   -0.0000499782    0.0000382027    0.0000063512
     13      H    0.0000148322    0.0000258020   -0.0000483664
     14      H   -0.0000020665    0.0000636370   -0.0000349061
     15      H   -0.0000216660    0.0000535283    0.0000086505
     16      H   -0.0000397385    0.0000206655    0.0000446304
     17      H   -0.0000441217   -0.0000201296    0.0000507274
     18      H   -0.0000201178   -0.0000711570    0.0000062714
 
----------------
Mulliken Charges
----------------
  Index   Atom          Charge      Population
      1      C    0.0305926216        3.969407
      2      C   -0.0934889122        4.093489
      3      C    0.3835564852        3.616444
      4      O   -0.4874436692        6.487444
      5      H    0.0074576274        0.992542
      6      H    0.0357364519        0.964264
      7      C    0.0077691037        3.992231
      8      C   -0.0076381175        4.007638
      9      C   -0.0230758723        4.023076
     10      C   -0.0208894993        4.020889
     11      C   -0.0264072016        4.026407
     12      C   -0.0308602347        4.030860
     13      H    0.0528211986        0.947179
     14      H    0.0367997168        0.963200
     15      H    0.0332188883        0.966781
     16      H    0.0325503805        0.967450
     17      H    0.0311257399        0.968874
     18      H    0.0381752929        0.961825
         Total    0.0000000000       50.000000
 
----------------------
Mulliken Shell Charges
----------------------
  Index   Atom      L          Charge      Population
      1      C      0    0.9175689995        1.082431
      2      C      1   -0.8869763779        2.886976
      3      C      0    0.9300832049        1.069917
      4      C      1   -1.0235721171        3.023572
      5      C      0    0.9674898458        1.032510
      6      C      1   -0.5839333606        2.583933
      7      O      0    0.2705062163        1.729494
      8      O      1   -0.7579498855        4.757950
      9      H      0    0.0228538578        0.977146
     10      H      0   -0.0153962304        0.015396
     11      H      0    0.0459653319        0.954035
     12      H      0   -0.0102288801        0.010229
     13      C      0    0.9255413710        1.074459
     14      C      1   -0.9177722673        2.917772
     15      C      0    0.9353030876        1.064697
     16      C      1   -0.9429412052        2.942941
     17      C      0    0.9411757370        1.058824
     18      C      1   -0.9642516093        2.964252
     19      C      0    0.9385008518        1.061499
     20      C      1   -0.9593903511        2.959390
     21      C      0    0.9430569128        1.056943
     22      C      1   -0.9694641144        2.969464
     23      C      0    0.9365595177        1.063440
     24      C      1   -0.9674197524        2.967420
     25      H      0    0.0682384845        0.931762
     26      H      0   -0.0154172860        0.015417
     27      H      0    0.0448686227        0.955131
     28      H      0   -0.0080689059        0.008069
     29      H      0    0.0412994600        0.958701
     30      H      0   -0.0080805717        0.008081
     31      H      0    0.0405606471        0.959439
     32      H      0   -0.0080102667        0.008010
     33      H      0    0.0382998600        0.961700
     34      H      0   -0.0071741201        0.007174
     35      H      0    0.0487925484        0.951207
     36      H      0   -0.0106172555        0.010617
                Total    0.0000000000       50.000000
 
 
--------
Orbitals
--------
Index of HOMO                   25
Fermi Energy (hartree)           -0.39251007
Orbitals
   Index  Energy (hartree)       Energy (eV)        Occupation  Degeneracy
       1       -0.78406910      -21.33560569        2.00000000           1
       2       -0.67772721      -18.44189580        2.00000000           1
       3       -0.67509478      -18.37026368        2.00000000           1
       4       -0.66102704      -17.98746097        2.00000000           1
       5       -0.65077701      -17.70854359        2.00000000           1
       6       -0.64548068      -17.56442297        2.00000000           1
       7       -0.62634994      -17.04384902        2.00000000           1
       8       -0.61975313      -16.86434062        2.00000000           1
       9       -0.60650621      -16.50387376        2.00000000           1
      10       -0.59683095      -16.24059643        2.00000000           1
      11       -0.58000059      -15.78261903        2.00000000           1
      12       -0.57464264      -15.63682176        2.00000000           1
      13       -0.55801193      -15.18427714        2.00000000           1
      14       -0.55196844      -15.01982537        2.00000000           1
      15       -0.53877957      -14.66093794        2.00000000           1
      16       -0.53524977      -14.56488728        2.00000000           1
      17       -0.52802419      -14.36826915        2.00000000           1
      18       -0.51610890      -14.04403762        2.00000000           1
      19       -0.50993997      -13.87617250        2.00000000           1
      20       -0.48103965      -13.08975498        2.00000000           1
      21       -0.47436558      -12.90814419        2.00000000           1
      22       -0.46608530      -12.68282630        2.00000000           1
      23       -0.44486085      -12.10527954        2.00000000           1
      24       -0.44040685      -11.98408028        2.00000000           1
      25       -0.43014607      -11.70487008        2.00000000           1
      26       -0.32975691       -8.97314197        0.00000000           1
      27       -0.26393196       -7.18195405        0.00000000           1
      28       -0.25913109       -7.05131584        0.00000000           1
      29       -0.20382428       -5.54634090        0.00000000           1
      30       -0.13348323       -3.63226349        0.00000000           1
      31       -0.12298301       -3.34653801        0.00000000           1
      32       -0.11705914       -3.18534138        0.00000000           1
      33       -0.10437481       -2.84018308        0.00000000           1
      34       -0.10088289       -2.74516312        0.00000000           1
      35       -0.09269355       -2.52231976        0.00000000           1
      36       -0.08338381       -2.26898886        0.00000000           1
      37       -0.07072443       -1.92450976        0.00000000           1
      38       -0.06075220       -1.65315140        0.00000000           1
      39        0.11072543        3.01299225        0.00000000           1
      40        0.14655366        3.98792787        0.00000000           1
      41        0.20905446        5.68866142        0.00000000           1
      42        0.21397327        5.82250895        0.00000000           1
      43        0.21831868        5.94075343        0.00000000           1
      44        0.24053447        6.54527584        0.00000000           1
      45        0.24701808        6.72170408        0.00000000           1
      46        0.25472395        6.93139125        0.00000000           1
      47        0.29186464        7.94204090        0.00000000           1
      48        0.37871991       10.30549320        0.00000000           1
      49        0.40042951       10.89624132        0.00000000           1
      50        0.43370617       11.80174531        0.00000000           1
      51        0.44265864       12.04535437        0.00000000           1
      52        0.45818477       12.46784208        0.00000000           1
      53        0.50671729       13.78847906        0.00000000           1
      54        0.56037396       15.24855131        0.00000000           1
      55        0.65885939       17.92847631        0.00000000           1
      56        0.72259837       19.66290198        0.00000000           1
 

AMS application finished. Exiting.
NORMAL TERMINATION
     Total cpu time:       1.58
  Total system time:       0.62
 Total elapsed time:       5.53
NORMAL TERMINATION
