

 Parallel Execution: Process Information
 ==============================================================================
 Rank   Node Name                              NodeID   MyNodeRank  NodeMaster
    0   DESKTOP-1M8FOJT                           0          0          0
    1   DESKTOP-1M8FOJT                           0          1         -1
    2   DESKTOP-1M8FOJT                           0          2         -1
    3   DESKTOP-1M8FOJT                           0          3         -1
 ==============================================================================


May use up to 4096MB of RAM as shared memory on node 0

 *******************************************************************************
 *                                                                             *
 *  --------------------------------                                           *
 *   Amsterdam Modeling Suite (AMS)              2021.106                      *
 *  --------------------------------                                           *
 *                                               r99350 2021-12-03             *
 *                                                                             *
 *                                                                             *
 *                              =================                              *
 *                              |               |                              *
 *                              |     A M S     |                              *
 *                              |               |                              *
 *                              =================                              *
 *                                                                             *
 *                                                                             *
 *   Online information and documentation:  https://www.scm.com/support/       *
 *   E-mail:  support@scm.com   info@scm.com                                   *
 *                                                                             *
 *   Scientific publications using AMS results must be properly referenced     *
 *   See the User Manuals (or the web site) for recommended citations          *
 *   The terms and conditions of the End User License Agreement apply to       *
 *   the use of AMS, https://www.scm.com/license-terms/                        *
 *                                                                             *
 *********************  x86_64_windows_amdZen / intelmpi  **********************
 
 Licensed to: Mr. Yuman Hordijk / SCM / Amsterdam / Netherlands 2021-10-04 09:39:26
 SCM User ID: u24430
  
 AMS 2021.106  RunTime: Jan26-2022 14:13:39  ShM Nodes: 1  Procs: 4

 AMS jobname: ams
 AMS jobid  : 1451848871

 Start   directory: Z:/SCMTMP/user/
 Results directory: Z:/SCMTMP/user/ams.results/
 Scratch directory: Z:/SCMTMP/amstmp_ams_kid0.1451848871/


 Communication costs MPI_COMM_WORLD:      1.902 usec per message,   0.0053 usec per 8-byte item
 Communication costs for intra-node:      1.805 usec per message,   0.0047 usec per 8-byte item

 RNG seed: 1423000705 -35548193 1544087559 -2054607175 42647609 -937314629 -170326464 -2109685467
       ***************************
       *  GEOMETRY OPTIMIZATION  *
       ***************************

Optimization Method                    Quasi Newton
Optimization Coordinates               Delocalized Coordinates
Optimize lattice                       F
 
 ------------------------------------------------------
 Convergence criteria (Hartree,Angstrom)
 ------------------------------------------------------
 Maximum gradient               0.001000000000
 Maximum rms gradient           0.000666666667
 Maximum step allowed           0.010000000000
 Maximum rms step allowed       0.006666666667
 Maximum energy change allowe   0.000180000000
 Maximum stress energy allowe   0.000500000000
 
Initial model Hessian                  Automatic Hessian
 
------------------------------------
Quasi-Newton Optimizer Parameters
------------------------------------
Hessian Update Method                  BFGS
Maximum number of steps                  250
First GDIIS cycle                          0
Maximum GDIIS vectors                      0
Trust radius (bohr)                        0.200000
Trust radius varies                        T
Constraints converged at all steps         T
Use projector                              T
 
 Rigid motions settings for: old optimizer
 Atomic rotations (x,y,z):     T T T
 Atomic translations (x,y,z):  T T T
 Tolerance:                   1.000000000000000E-006
 
--------
Geometry
--------
Formula: C9H8O
Atoms
  Index Symbol   x (angstrom)   y (angstrom)   z (angstrom)
      1      C    -5.33547974    -0.48608031    -0.00093190
      2      C    -4.08923335    -1.00504667    -0.00755326
      3      C    -2.80627907    -0.15320847    -0.00770898
      4      O    -1.66008151    -0.57106518    -0.00251951
      5      C    -6.79800077    -0.96818176    -0.01543739
      6      C    -7.84275950    -0.03557489    -0.01411839
      7      C    -9.17275752    -0.47399187    -0.02730949
      8      C    -9.45799667    -1.84501568    -0.04181962
      9      C    -8.41323794    -2.77762248    -0.04313862
     10      C    -7.08323997    -2.33920553    -0.02994751
     11      H    -7.62482624     1.01193749    -0.00303214
     12      H    -9.97099153     0.23855388    -0.02630171
     13      H   -10.47416386    -2.17998235    -0.05189811
     14      H    -8.63117118    -3.82513487    -0.05422488
     15      H    -6.28500598    -3.05175131    -0.03095527
     16      H    -5.29441687     0.59291127     0.02122716
     17      H    -3.98596962    -2.08008446    -0.01306121
     18      H    -2.93370469     0.91923524    -0.01292337
 
Total System Charge             0.00000
Bonding info available!
 
 
-------------------------
DFTB Engine configuration
-------------------------
DFTB Resources dir                     Z:/AMS2021.106/atomicdata/DFTB/GFN1-xTB
 
SCC convergence enabled.
Maximum SCC cycles                       500
SCC charge convergence                   0.000000010000
SCC charge mixing                        0.150000000000
DIIS max dimension                       20
DIIS maximum coeff.                     10.000000000000
Adaptive SCC charge mixing             T
Adaptive SCC mixing strategy              3
Spin polarization                      F
Orbital-dependent SCC                  T
Orbital fill strategy                  Fermi
Fermi temperature (kelvin)                     300.0000
  ... kT (Hartree)                               0.0010
Use of symmetry                        T
Radial function extrapolation method   Auto

 Settings for Grimme D3 dispersion correction

      damping                        BJ
      s6                          1.000
      s8                          2.400
      a1                          0.630
      a2                          5.000

 Other (technical) parameters

      alpha                      14.000
      version                         4
 

---------------------
Periodic DFTB options
---------------------
 kpoints config
 grid method with params
Assume insulator                        F
Ewald tolerance                    1.00E-10
Ewald range factor                  2.00

 BZStruct config
 ---------------
 Enabled        T
 Automatic      T
 CalcFatBands   T
 useSymmetry    T
 deltaK          0.100000000000000     
 
 Using automatic Hessian for delocalized coordinates.
 
----------------------------------------------------------------------
Geometry Convergence after Step   1       (Hartree/Angstrom,Angstrom)
----------------------------------------------------------------------
current energy                              -27.95623103 Hartree
energy change                     -27.95623103     0.00018000    F
constrained gradient max            0.07957540     0.00100000    F
constrained gradient rms            0.02212138     0.00066667    F
gradient max                        0.07957540
gradient rms                        0.02212138
cart. step max                      0.14355244     0.01000000    F
cart. step rms                      0.04785795     0.00666667    F
 
 
--------
Geometry
--------
Formula: C9H8O
Atoms
  Index Symbol   x (angstrom)   y (angstrom)   z (angstrom)
      1      C    -5.36304521    -0.41653840    -0.00016976
      2      C    -4.16329529    -1.00972958    -0.00885616
      3      C    -2.88563576    -0.22006859    -0.00752939
      4      O    -1.79266364    -0.71461761    -0.00512047
      5      C    -6.77129338    -0.92966089    -0.01459223
      6      C    -7.82712663    -0.01982684    -0.01384119
      7      C    -9.13722842    -0.48300998    -0.02743118
      8      C    -9.39465994    -1.85116002    -0.04166306
      9      C    -8.34032285    -2.76022939    -0.04238546
     10      C    -7.02839009    -2.30233373    -0.02887453
     11      H    -7.62909021     1.03978844    -0.00284039
     12      H    -9.95463434     0.21908179    -0.02690809
     13      H   -10.41181542    -2.20696752    -0.05212665
     14      H    -8.54096979    -3.81897310    -0.05340115
     15      H    -6.21179151    -3.00560857    -0.02943125
     16      H    -5.32580669     0.67256880     0.02112280
     17      H    -4.08603985    -2.09121488    -0.01749524
     18      H    -2.99550699     0.86919212    -0.01011078
 
Total System Charge             0.00000
Bonding info available!
 

 dE(predicted):    -0.11705E-01, dE(actual):    -0.13588E-01, Trust radius:    0.400000, all in a.u.
 
----------------------------------------------------------------------
Geometry Convergence after Step   2       (Hartree/Angstrom,Angstrom)
----------------------------------------------------------------------
current energy                              -27.96981861 Hartree
energy change                      -0.01358758     0.00018000    F
constrained gradient max            0.06150829     0.00100000    F
constrained gradient rms            0.01326236     0.00066667    F
gradient max                        0.06150829
gradient rms                        0.01326236
cart. step max                      0.20364409     0.01000000    F
cart. step rms                      0.06199387     0.00666667    F
 
 
--------
Geometry
--------
Formula: C9H8O
Atoms
  Index Symbol   x (angstrom)   y (angstrom)   z (angstrom)
      1      C    -5.39792268    -0.30627602    -0.01084050
      2      C    -4.25332486    -1.00286720    -0.02202056
      3      C    -2.95855859    -0.32683329     0.00367844
      4      O    -1.90380808    -0.91826170    -0.00085912
      5      C    -6.73538391    -0.86374848    -0.01773154
      6      C    -7.82891571     0.00431899    -0.01696308
      7      C    -9.11811524    -0.49911146    -0.02681992
      8      C    -9.33081474    -1.86949483    -0.03641621
      9      C    -8.24986502    -2.73994212    -0.03664898
     10      C    -6.95882073    -2.24453642    -0.02743400
     11      H    -7.66775535     1.07799358    -0.00951768
     12      H    -9.96424671     0.18095724    -0.02665824
     13      H   -10.34317590    -2.26102411    -0.04351386
     14      H    -8.41778856    -3.81234267    -0.04389811
     15      H    -6.11821138    -2.93058389    -0.02744513
     16      H    -5.35552332     0.78823088     0.00331249
     17      H    -4.22441519    -2.08835019    -0.04880857
     18      H    -3.03267004     0.78256373     0.02693041
 
Total System Charge             0.00000
Bonding info available!
 

 dE(predicted):    -0.51423E-02, dE(actual):    -0.43527E-02, Trust radius:    0.400000, all in a.u.
 
----------------------------------------------------------------------
Geometry Convergence after Step   3       (Hartree/Angstrom,Angstrom)
----------------------------------------------------------------------
current energy                              -27.97417130 Hartree
energy change                      -0.00435270     0.00018000    F
constrained gradient max            0.01156212     0.00100000    F
constrained gradient rms            0.00390427     0.00066667    F
gradient max                        0.01156212
gradient rms                        0.00390427
cart. step max                      0.04626651     0.01000000    F
cart. step rms                      0.01644102     0.00666667    F
 
 
--------
Geometry
--------
Formula: C9H8O
Atoms
  Index Symbol   x (angstrom)   y (angstrom)   z (angstrom)
      1      C    -5.39043831    -0.32132673    -0.00537502
      2      C    -4.22868200    -0.99891087    -0.01394653
      3      C    -2.93884817    -0.30487811    -0.00666124
      4      O    -1.87623661    -0.87199519    -0.00355503
      5      C    -6.73467313    -0.88134819    -0.01851836
      6      C    -7.82738877    -0.00645473    -0.01653218
      7      C    -9.12324176    -0.49622560    -0.02655014
      8      C    -9.34982710    -1.86567890    -0.03877871
      9      C    -8.27430164    -2.74526758    -0.04015042
     10      C    -6.97741125    -2.26165863    -0.03024221
     11      H    -7.65704778     1.06491829    -0.00666690
     12      H    -9.96151664     0.19209814    -0.02505536
     13      H   -10.36461886    -2.24815570    -0.04695984
     14      H    -8.45094762    -3.81534413    -0.04898322
     15      H    -6.14803622    -2.95925244    -0.03004704
     16      H    -5.35388649     0.76992802     0.01320729
     17      H    -4.18211965    -2.08267093    -0.02602978
     18      H    -3.02009401     0.80291531     0.00919050
 
Total System Charge             0.00000
Bonding info available!
 

 dE(predicted):    -0.35771E-03, dE(actual):    -0.33833E-03, Trust radius:    0.400000, all in a.u.
 
----------------------------------------------------------------------
Geometry Convergence after Step   4       (Hartree/Angstrom,Angstrom)
----------------------------------------------------------------------
current energy                              -27.97450963 Hartree
energy change                      -0.00033833     0.00018000    F
constrained gradient max            0.00574361     0.00100000    F
constrained gradient rms            0.00156199     0.00066667    F
gradient max                        0.00574361
gradient rms                        0.00156199
cart. step max                      0.01920592     0.01000000    F
cart. step rms                      0.00428968     0.00666667    T
 
 
--------
Geometry
--------
Formula: C9H8O
Atoms
  Index Symbol   x (angstrom)   y (angstrom)   z (angstrom)
      1      C    -5.39052080    -0.31913674    -0.00214566
      2      C    -4.22813304    -0.99670673    -0.00952143
      3      C    -2.93622743    -0.30647525     0.01254469
      4      O    -1.87306864    -0.87265406    -0.01850846
      5      C    -6.73368365    -0.88063670    -0.01396239
      6      C    -7.82998222    -0.00737787    -0.01447950
      7      C    -9.12586687    -0.49657542    -0.02821394
      8      C    -9.35229297    -1.86673843    -0.04077247
      9      C    -8.27487012    -2.74502964    -0.04010161
     10      C    -6.97823291    -2.26102443    -0.02674062
     11      H    -7.65986093     1.06392546    -0.00514198
     12      H    -9.96352076     0.19197752    -0.02865948
     13      H   -10.36626871    -2.25026504    -0.05093930
     14      H    -8.44978205    -3.81507958    -0.05000695
     15      H    -6.15017018    -2.95992858    -0.02688023
     16      H    -5.35166513     0.77000195     0.01361019
     17      H    -4.18294643    -2.07987797    -0.03056297
     18      H    -3.01222318     0.80229354    -0.00117205
 
Total System Charge             0.00000
Bonding info available!
 

 dE(predicted):    -0.59832E-04, dE(actual):     0.10245E-03, Trust radius:    0.020172, all in a.u.
 
----------------------------------------------------------------------
Geometry Convergence after Step   5       (Hartree/Angstrom,Angstrom)
----------------------------------------------------------------------
current energy                              -27.97440718 Hartree
energy change                       0.00010245     0.00018000    T
constrained gradient max            0.01199089     0.00100000    F
constrained gradient rms            0.00202303     0.00066667    F
gradient max                        0.01199089
gradient rms                        0.00202303
cart. step max                      0.00553699     0.01000000    T
cart. step rms                      0.00209595     0.00666667    T
 
 
--------
Geometry
--------
Formula: C9H8O
Atoms
  Index Symbol   x (angstrom)   y (angstrom)   z (angstrom)
      1      C    -5.39170825    -0.31693044    -0.00339580
      2      C    -4.23103445    -0.99654025    -0.01123188
      3      C    -2.93829384    -0.30917834     0.00813633
      4      O    -1.87547179    -0.87819106    -0.01420394
      5      C    -6.73333365    -0.87856662    -0.01476099
      6      C    -7.83064900    -0.00647673    -0.01484737
      7      C    -9.12568646    -0.49694786    -0.02778792
      8      C    -9.35067696    -1.86742820    -0.04007392
      9      C    -8.27221188    -2.74432080    -0.03983755
     10      C    -6.97628370    -2.25894683    -0.02724007
     11      H    -7.66139103     1.06506473    -0.00567214
     12      H    -9.96393991     0.19083341    -0.02788355
     13      H   -10.36413343    -2.25221659    -0.04969112
     14      H    -8.44567551    -3.81462042    -0.04948367
     15      H    -6.14742229    -2.95711715    -0.02760587
     16      H    -5.35154088     0.77186878     0.01210941
     17      H    -4.18818344    -2.07987974    -0.03129725
     18      H    -3.01167953     0.80028615     0.00311313
 
Total System Charge             0.00000
Bonding info available!
 

 dE(predicted):    -0.77355E-04, dE(actual):    -0.77391E-04, Trust radius:    0.040344, all in a.u.
 
----------------------------------------------------------------------
Geometry Convergence after Step   6       (Hartree/Angstrom,Angstrom)
----------------------------------------------------------------------
current energy                              -27.97448457 Hartree
energy change                      -0.00007739     0.00018000    T
constrained gradient max            0.00827248     0.00100000    F
constrained gradient rms            0.00133017     0.00066667    F
gradient max                        0.00827248
gradient rms                        0.00133017
cart. step max                      0.00912923     0.01000000    T
cart. step rms                      0.00263864     0.00666667    T
 
 
--------
Geometry
--------
Formula: C9H8O
Atoms
  Index Symbol   x (angstrom)   y (angstrom)   z (angstrom)
      1      C    -5.39256695    -0.31527136    -0.00681793
      2      C    -4.23234423    -0.99614311    -0.01466782
      3      C    -2.93957913    -0.31050528    -0.00054570
      4      O    -1.87800688    -0.88183790    -0.00507472
      5      C    -6.73302466    -0.87732217    -0.01740772
      6      C    -7.83111140    -0.00602367    -0.01597511
      7      C    -9.12554768    -0.49728801    -0.02658983
      8      C    -9.34989086    -1.86801565    -0.03836258
      9      C    -8.27087805    -2.74395147    -0.03952077
     10      C    -6.97517864    -2.25771748    -0.02919525
     11      H    -7.66191324     1.06559837    -0.00679041
     12      H    -9.96404073     0.19009306    -0.02554290
     13      H   -10.36294480    -2.25356540    -0.04647668
     14      H    -8.44333935    -3.81440678    -0.04843785
     15      H    -6.14616437    -2.95584044    -0.02985627
     16      H    -5.35111913     0.77327079     0.00864176
     17      H    -4.19102831    -2.07970562    -0.03110502
     18      H    -3.01063759     0.79932419     0.01207062
 
Total System Charge             0.00000
Bonding info available!
 

 dE(predicted):    -0.63733E-04, dE(actual):    -0.63270E-04, Trust radius:    0.080689, all in a.u.
 
---------------------------------------------------------
Geometry Convergence after Step   7       ** CONVERGED **
---------------------------------------------------------
current energy                              -27.97454784 Hartree
energy change                      -0.00006327     0.00018000    T
constrained gradient max            0.00084846     0.00100000    T
constrained gradient rms            0.00019406     0.00066667    T
gradient max                        0.00084846
gradient rms                        0.00019406
cart. step max                      0.00265525     0.01000000    T
cart. step rms                      0.00048127     0.00666667    T
 
Geometry optimization converged

Optimized geometry:
 
--------
Geometry
--------
Formula: C9H8O
Atoms
  Index Symbol   x (angstrom)   y (angstrom)   z (angstrom)
      1      C    -5.39256695    -0.31527136    -0.00681793
      2      C    -4.23234423    -0.99614311    -0.01466782
      3      C    -2.93957913    -0.31050528    -0.00054570
      4      O    -1.87800688    -0.88183790    -0.00507472
      5      C    -6.73302466    -0.87732217    -0.01740772
      6      C    -7.83111140    -0.00602367    -0.01597511
      7      C    -9.12554768    -0.49728801    -0.02658983
      8      C    -9.34989086    -1.86801565    -0.03836258
      9      C    -8.27087805    -2.74395147    -0.03952077
     10      C    -6.97517864    -2.25771748    -0.02919525
     11      H    -7.66191324     1.06559837    -0.00679041
     12      H    -9.96404073     0.19009306    -0.02554290
     13      H   -10.36294480    -2.25356540    -0.04647668
     14      H    -8.44333935    -3.81440678    -0.04843785
     15      H    -6.14616437    -2.95584044    -0.02985627
     16      H    -5.35111913     0.77327079     0.00864176
     17      H    -4.19102831    -2.07970562    -0.03110502
     18      H    -3.01063759     0.79932419     0.01207062
 
Total System Charge             0.00000
Bonding info available!
 
Performing a single point calculation on the final geometry ...

Estimated upper bound for memory consumption:    0.293 MiB

Number of basis functions:           56
 applying a finite electronic temperature kT  0.000950                                                                                                           
    Cycle:   1, MaxQDiff:   0.000000011645, PartialEnergy:     -28.4134213496, Used mix:   0.150 nvec:    0
    Cycle:   2, MaxQDiff:   0.000000009245, PartialEnergy:     -28.4134213496, Used mix:   0.150 nvec:    1
 Evaluation was successful


    =====================
     CALCULATION RESULTS
    =====================

Energy (hartree)           -27.97454784

Gradients (hartree/bohr)
  Index   Atom            d/dx            d/dy            d/dz
      1      C   -0.0000130750    0.0000037627   -0.0000067699
      2      C    0.0000909022   -0.0000437711   -0.0001041855
      3      C    0.0003262561   -0.0001948179    0.0003321762
      4      O   -0.0004489888    0.0001927376   -0.0000939899
      5      C    0.0000142649    0.0000767440    0.0000492871
      6      C    0.0000992323   -0.0000231248   -0.0000008909
      7      C   -0.0000115523   -0.0000075293   -0.0000118646
      8      C    0.0000016128    0.0000119550    0.0000028264
      9      C    0.0000348931   -0.0000011569   -0.0000095991
     10      C   -0.0000503265   -0.0000184814    0.0000066191
     11      H   -0.0000277231    0.0000116792    0.0000012862
     12      H    0.0000028993   -0.0000059236   -0.0000003968
     13      H   -0.0000028967   -0.0000031645    0.0000026811
     14      H   -0.0000213942    0.0000005763    0.0000009215
     15      H    0.0000347555    0.0000152842    0.0000037708
     16      H   -0.0000505713    0.0000047000   -0.0000156016
     17      H    0.0000204981   -0.0000160024   -0.0000351775
     18      H    0.0000012135   -0.0000034671   -0.0001210925

-----------
Bond orders
-----------

Description: Mayer bond orders
Only bonds with bond orders > 0.200 are printed.

 Index  Atom    Index  Atom    BondOrder
     1     C        2     C        1.760
     1     C        5     C        1.121
     1     C       16     H        0.967
     2     C        3     C        1.082
     2     C       17     H        0.964
     3     C        4     O        1.793
     3     C       18     H        0.940
     5     C        6     C        1.366
     5     C       10     C        1.364
     6     C        7     C        1.462
     6     C       11     H        0.971
     7     C        8     C        1.431
     7     C       12     H        0.972
     8     C        9     C        1.426
     8     C       13     H        0.973
     9     C       10     C        1.468
     9     C       14     H        0.972
    10     C       15     H        0.969


--------------
Atomic charges
--------------
  Index   Atom    Charge
      1      C    0.0031
      2      C   -0.0793
      3      C    0.3831
      4      O   -0.4805
      5      C    0.0053
      6      C   -0.0268
      7      C   -0.0238
      8      C   -0.0184
      9      C   -0.0230
     10      C   -0.0250
     11      H    0.0360
     12      H    0.0365
     13      H    0.0369
     14      H    0.0373
     15      H    0.0403
     16      H    0.0354
     17      H    0.0583
     18      H    0.0046


Dipole moment vector    (Debye):    -4.84625628    0.74142800   -0.00322181
              magnitude (Debye):     4.90264477

 
--------------------
Energy Decomposition
--------------------
Total Energy (hartree)               -27.97454784
Total Energy (eV)                   -761.22617817
Electronic Energy (hartree)          -28.46315568
Coulomb Energy (hartree)               0.04973433
Repulsion Energy (hartree)             0.44741830
Dispersion Energy (hartree)           -0.00854478
 
----------------------
Gradient Decomposition
----------------------
Total Gradients (hartree/bohr)
  Index   Atom            d/dx            d/dy            d/dz
      1      C   -0.0000130750    0.0000037627   -0.0000067699
      2      C    0.0000909022   -0.0000437711   -0.0001041855
      3      C    0.0003262561   -0.0001948179    0.0003321762
      4      O   -0.0004489888    0.0001927376   -0.0000939899
      5      C    0.0000142649    0.0000767440    0.0000492871
      6      C    0.0000992323   -0.0000231248   -0.0000008909
      7      C   -0.0000115523   -0.0000075293   -0.0000118646
      8      C    0.0000016128    0.0000119550    0.0000028264
      9      C    0.0000348931   -0.0000011569   -0.0000095991
     10      C   -0.0000503265   -0.0000184814    0.0000066191
     11      H   -0.0000277231    0.0000116792    0.0000012862
     12      H    0.0000028993   -0.0000059236   -0.0000003968
     13      H   -0.0000028967   -0.0000031645    0.0000026811
     14      H   -0.0000213942    0.0000005763    0.0000009215
     15      H    0.0000347555    0.0000152842    0.0000037708
     16      H   -0.0000505713    0.0000047000   -0.0000156016
     17      H    0.0000204981   -0.0000160024   -0.0000351775
     18      H    0.0000012135   -0.0000034671   -0.0001210925
 
Total Gradients (eV/angstrom)
  Index   Atom            d/dx            d/dy            d/dz
      1      C   -0.0006723423    0.0001934870   -0.0003481247
      2      C    0.0046743780   -0.0022507985   -0.0053574317
      3      C    0.0167767608   -0.0100179401    0.0170811848
      4      O   -0.0230879301    0.0099109665   -0.0048331534
      5      C    0.0007335321    0.0039463329    0.0025344421
      6      C    0.0051027297   -0.0011891256   -0.0000458132
      7      C   -0.0005940424   -0.0003871730   -0.0006101040
      8      C    0.0000829310    0.0006147505    0.0001453410
      9      C    0.0017942752   -0.0000594911   -0.0004936037
     10      C   -0.0025878920   -0.0009503532    0.0003403656
     11      H   -0.0014255771    0.0006005707    0.0000661384
     12      H    0.0001490900   -0.0003046024   -0.0000204030
     13      H   -0.0001489541   -0.0001627273    0.0001378698
     14      H   -0.0011001334    0.0000296351    0.0000473830
     15      H    0.0017871970    0.0007859441    0.0001939000
     16      H   -0.0026004795    0.0002416831   -0.0008022674
     17      H    0.0010540556   -0.0008228753   -0.0018088973
     18      H    0.0000624014   -0.0001782837   -0.0062268263
 
Electronic Gradients (hartree/bohr)
  Index   Atom            d/dx            d/dy            d/dz
      1      C   -0.0618409663    0.0349823390    0.0004227788
      2      C    0.0631074452   -0.0360120369   -0.0005552793
      3      C   -0.0646235743    0.0447130177    0.0009020353
      4      O    0.1293855899   -0.0700470943   -0.0006527105
      5      C    0.0305946549    0.0091566573    0.0002748396
      6      C    0.0159530843    0.0353360164    0.0003906358
      7      C   -0.0346774109    0.0246545039   -0.0000139792
      8      C   -0.0381063016   -0.0149664552   -0.0003209712
      9      C   -0.0103617597   -0.0407983127   -0.0003813829
     10      C    0.0359537759   -0.0153777204    0.0000432804
     11      H    0.0109893327    0.0698923661    0.0005999086
     12      H   -0.0549957235    0.0450866850    0.0000682614
     13      H   -0.0666126698   -0.0253572290   -0.0005309045
     14      H   -0.0113100940   -0.0701937731   -0.0005837755
     15      H    0.0546511296   -0.0459731509   -0.0000395228
     16      H    0.0024770563    0.0684394150    0.0009563768
     17      H    0.0030906914   -0.0711155796   -0.0011130657
     18      H   -0.0036742601    0.0575803517    0.0005334748
 
Coulomb Gradients (hartree/bohr)
  Index   Atom            d/dx            d/dy            d/dz
      1      C    0.0000125382    0.0001254177    0.0000018624
      2      C    0.0002823967   -0.0005089814   -0.0000068231
      3      C   -0.0155013063    0.0083535499    0.0000665547
      4      O    0.0155465207   -0.0080426003   -0.0000619835
      5      C    0.0000758714    0.0000401157    0.0000007784
      6      C   -0.0000029706    0.0000617836    0.0000004030
      7      C   -0.0000732861    0.0000446854   -0.0000000684
      8      C   -0.0000857028   -0.0000363503   -0.0000007412
      9      C   -0.0000170991   -0.0000901646   -0.0000008011
     10      C    0.0000608208   -0.0000632956   -0.0000001843
     11      H    0.0000410029   -0.0000847066   -0.0000002883
     12      H    0.0000705735   -0.0000523758    0.0000000070
     13      H    0.0000893700    0.0000370902    0.0000007817
     14      H    0.0000103381    0.0000995704    0.0000008447
     15      H   -0.0000676930    0.0001079660    0.0000001564
     16      H    0.0000408867   -0.0001470084   -0.0000021913
     17      H   -0.0004251106    0.0002103284    0.0000024292
     18      H   -0.0000571505   -0.0000550242   -0.0000007363
 
Repulsion Gradients (hartree/bohr)
  Index   Atom            d/dx            d/dy            d/dz
      1      C    0.0617652467   -0.0351424477   -0.0004320503
      2      C   -0.0634178581    0.0364727227    0.0004575739
      3      C    0.0803435148   -0.0532957145   -0.0006370771
      4      O   -0.1454639767    0.0782841100    0.0006205406
      5      C   -0.0305894516   -0.0091036168   -0.0002259433
      6      C   -0.0157996993   -0.0354059016   -0.0003917048
      7      C    0.0347964271   -0.0246996432    0.0000024753
      8      C    0.0382291194    0.0150229158    0.0003247251
      9      C    0.0104820975    0.0409133510    0.0003729987
     10      C   -0.0359969546    0.0154249478   -0.0000362326
     11      H   -0.0110297909   -0.0698549887   -0.0005987191
     12      H    0.0549807503   -0.0450718972   -0.0000686447
     13      H    0.0665731484    0.0253365275    0.0005332210
     14      H    0.0113029388    0.0701547123    0.0005844031
     15      H   -0.0545537717    0.0459391995    0.0000434921
     16      H   -0.0025992754   -0.0683327720   -0.0009704735
     17      H   -0.0027043922    0.0709066703    0.0010756266
     18      H    0.0036819276   -0.0575481750   -0.0006542108
 
Dispersion Gradients (hartree/bohr)
  Index   Atom            d/dx            d/dy            d/dz
      1      C    0.0000501065    0.0000384537    0.0000006392
      2      C    0.0001189184    0.0000045246    0.0000003430
      3      C    0.0001076219    0.0000343289    0.0000006633
      4      O    0.0000828773   -0.0000016778    0.0000001636
      5      C   -0.0000668098   -0.0000164122   -0.0000003876
      6      C   -0.0000511821   -0.0000150232   -0.0000002249
      7      C   -0.0000572824   -0.0000070754   -0.0000002923
      8      C   -0.0000355022   -0.0000081554   -0.0000001862
      9      C   -0.0000683456   -0.0000260306   -0.0000004137
     10      C   -0.0000679686   -0.0000024132   -0.0000002445
     11      H   -0.0000282678    0.0000590085    0.0000003850
     12      H   -0.0000527009    0.0000316644   -0.0000000205
     13      H   -0.0000527453   -0.0000195532   -0.0000004171
     14      H   -0.0000245771   -0.0000599332   -0.0000005509
     15      H    0.0000050905   -0.0000587303   -0.0000003550
     16      H    0.0000307612    0.0000450654    0.0000006864
     17      H    0.0000593095   -0.0000174215   -0.0000001675
     18      H    0.0000506965    0.0000193804    0.0000003798
 
----------------
Mulliken Charges
----------------
  Index   Atom          Charge      Population
      1      C    0.0030879914        3.996912
      2      C   -0.0793031411        4.079303
      3      C    0.3830833642        3.616917
      4      O   -0.4804612199        6.480461
      5      C    0.0053488857        3.994651
      6      C   -0.0268352482        4.026835
      7      C   -0.0237775136        4.023778
      8      C   -0.0183662044        4.018366
      9      C   -0.0229663995        4.022966
     10      C   -0.0249978784        4.024998
     11      H    0.0359865409        0.964013
     12      H    0.0364531779        0.963547
     13      H    0.0368653197        0.963135
     14      H    0.0373447526        0.962655
     15      H    0.0402625567        0.959737
     16      H    0.0354100526        0.964590
     17      H    0.0582946672        0.941705
     18      H    0.0045702963        0.995430
         Total    0.0000000000       50.000000
 
----------------------
Mulliken Shell Charges
----------------------
  Index   Atom      L          Charge      Population
      1      C      0    0.9187895603        1.081210
      2      C      1   -0.9157015688        2.915702
      3      C      0    0.9223246630        1.077675
      4      C      1   -1.0016278041        3.001628
      5      C      0    0.9663809001        1.033619
      6      C      1   -0.5832975359        2.583298
      7      O      0    0.2714789425        1.728521
      8      O      1   -0.7519401623        4.751940
      9      C      0    0.9244542851        1.075546
     10      C      1   -0.9191053993        2.919105
     11      C      0    0.9342634570        1.065737
     12      C      1   -0.9610987051        2.961099
     13      C      0    0.9416908331        1.058309
     14      C      1   -0.9654683467        2.965468
     15      C      0    0.9376465688        1.062353
     16      C      1   -0.9560127732        2.956013
     17      C      0    0.9413013234        1.058699
     18      C      1   -0.9642677229        2.964268
     19      C      0    0.9360085007        1.063991
     20      C      1   -0.9610063791        2.961006
     21      H      0    0.0430451211        0.956955
     22      H      0   -0.0070585802        0.007059
     23      H      0    0.0443495173        0.955650
     24      H      0   -0.0078963394        0.007896
     25      H      0    0.0448078589        0.955192
     26      H      0   -0.0079425392        0.007943
     27      H      0    0.0453056251        0.954694
     28      H      0   -0.0079608725        0.007961
     29      H      0    0.0487085605        0.951291
     30      H      0   -0.0084460038        0.008446
     31      H      0    0.0428732175        0.957127
     32      H      0   -0.0074631649        0.007463
     33      H      0    0.0647607998        0.935239
     34      H      0   -0.0064661327        0.006466
     35      H      0    0.0173058161        0.982694
     36      H      0   -0.0127355198        0.012736
                Total    0.0000000000       50.000000
 
 
--------
Orbitals
--------
Index of HOMO                   25
Fermi Energy (hartree)           -0.39223926
Orbitals
   Index  Energy (hartree)       Energy (eV)        Occupation  Degeneracy
       1       -0.78352747      -21.32086739        2.00000000           1
       2       -0.68905363      -18.75010331        2.00000000           1
       3       -0.68237920      -18.56848275        2.00000000           1
       4       -0.66896743      -18.20353000        2.00000000           1
       5       -0.66418501      -18.07339372        2.00000000           1
       6       -0.64748258      -17.61889753        2.00000000           1
       7       -0.63771263      -17.35304349        2.00000000           1
       8       -0.62772803      -17.08134871        2.00000000           1
       9       -0.62177279      -16.91929859        2.00000000           1
      10       -0.59751706      -16.25926651        2.00000000           1
      11       -0.58606139      -15.94754171        2.00000000           1
      12       -0.57521622      -15.65242988        2.00000000           1
      13       -0.56875122      -15.47650814        2.00000000           1
      14       -0.55464859      -15.09275609        2.00000000           1
      15       -0.55046950      -14.97903721        2.00000000           1
      16       -0.54138678      -14.73188388        2.00000000           1
      17       -0.53564420      -14.57562039        2.00000000           1
      18       -0.53324292      -14.51027824        2.00000000           1
      19       -0.51536229      -14.02372154        2.00000000           1
      20       -0.49106785      -13.36263606        2.00000000           1
      21       -0.48882644      -13.30164423        2.00000000           1
      22       -0.48172738      -13.10846907        2.00000000           1
      23       -0.45691344      -12.43324725        2.00000000           1
      24       -0.44166254      -12.01824929        2.00000000           1
      25       -0.44110718      -12.00313703        2.00000000           1
      26       -0.33646514       -9.15568219        0.00000000           1
      27       -0.27745601       -7.54996230        0.00000000           1
      28       -0.26453347       -7.19832205        0.00000000           1
      29       -0.20557561       -5.59399688        0.00000000           1
      30       -0.13957950       -3.79815137        0.00000000           1
      31       -0.13906614       -3.78418210        0.00000000           1
      32       -0.11697590       -3.18307618        0.00000000           1
      33       -0.11449320       -3.11551857        0.00000000           1
      34       -0.11400303       -3.10218018        0.00000000           1
      35       -0.10370917       -2.82207003        0.00000000           1
      36       -0.09102509       -2.47691876        0.00000000           1
      37       -0.07350286       -2.00011467        0.00000000           1
      38       -0.06433775       -1.75071918        0.00000000           1
      39        0.09120439        2.48179771        0.00000000           1
      40        0.17373306        4.72751699        0.00000000           1
      41        0.19643206        5.34518836        0.00000000           1
      42        0.20260425        5.51314206        0.00000000           1
      43        0.20711155        5.63579192        0.00000000           1
      44        0.22877237        6.22521288        0.00000000           1
      45        0.23248658        6.32628184        0.00000000           1
      46        0.24607358        6.69600282        0.00000000           1
      47        0.29460446        8.01659516        0.00000000           1
      48        0.36280082        9.87231260        0.00000000           1
      49        0.39359046       10.71014138        0.00000000           1
      50        0.42058202       11.44461912        0.00000000           1
      51        0.43201272       11.75566416        0.00000000           1
      52        0.45278109       12.32080023        0.00000000           1
      53        0.48786575       13.27550262        0.00000000           1
      54        0.56377056       15.34097761        0.00000000           1
      55        0.64377495       17.51800779        0.00000000           1
      56        0.73132198       19.90028371        0.00000000           1
 

AMS application finished. Exiting.
NORMAL TERMINATION
     Total cpu time:       2.94
  Total system time:       0.98
 Total elapsed time:       5.63
NORMAL TERMINATION
