

 Parallel Execution: Process Information
 ==============================================================================
 Rank   Node Name                              NodeID   MyNodeRank  NodeMaster
    0   DESKTOP-1M8FOJT                           0          0          0
    1   DESKTOP-1M8FOJT                           0          1         -1
    2   DESKTOP-1M8FOJT                           0          2         -1
    3   DESKTOP-1M8FOJT                           0          3         -1
 ==============================================================================


May use up to 4096MB of RAM as shared memory on node 0

 *******************************************************************************
 *                                                                             *
 *  --------------------------------                                           *
 *   Amsterdam Modeling Suite (AMS)              2021.106                      *
 *  --------------------------------                                           *
 *                                               r99350 2021-12-03             *
 *                                                                             *
 *                                                                             *
 *                              =================                              *
 *                              |               |                              *
 *                              |     A M S     |                              *
 *                              |               |                              *
 *                              =================                              *
 *                                                                             *
 *                                                                             *
 *   Online information and documentation:  https://www.scm.com/support/       *
 *   E-mail:  support@scm.com   info@scm.com                                   *
 *                                                                             *
 *   Scientific publications using AMS results must be properly referenced     *
 *   See the User Manuals (or the web site) for recommended citations          *
 *   The terms and conditions of the End User License Agreement apply to       *
 *   the use of AMS, https://www.scm.com/license-terms/                        *
 *                                                                             *
 *********************  x86_64_windows_amdZen / intelmpi  **********************
 
 Licensed to: Mr. Yuman Hordijk / SCM / Amsterdam / Netherlands 2021-10-04 09:39:26
 SCM User ID: u24430
  
 AMS 2021.106  RunTime: Jan26-2022 14:16:17  ShM Nodes: 1  Procs: 4

 AMS jobname: ams
 AMS jobid  : 107118839

 Start   directory: D:/Users/Yuman/Desktop/MasterProject/manual_calculations/substrate_conformers/tmp..9492.0.noindex/
 Results directory: D:/Users/Yuman/Desktop/MasterProject/manual_calculations/substrate_conformers/RPh_2.results/
 Scratch directory: Z:/SCMTMP/amstmp_ams_kid0.107118839/


 Communication costs MPI_COMM_WORLD:      1.624 usec per message,   0.0051 usec per 8-byte item
 Communication costs for intra-node:      3.222 usec per message,   0.0028 usec per 8-byte item

 RNG seed: 725537727 2004301589 -677894077 161006607 -1745793035 756022210 1867274268 -1509837561



                      ************************************************************************
                      *  ADF 2021.106  RunTime: Jan26-2022 14:16:18  ShM Nodes: 1  Procs: 4  *
                      ************************************************************************
  
       ***************************
       *  GEOMETRY OPTIMIZATION  *
       ***************************

Optimization Method                    Quasi Newton
Optimization Coordinates               Delocalized Coordinates
Optimize lattice                       F
 
 ------------------------------------------------------
 Convergence criteria (Hartree,Angstrom)
 ------------------------------------------------------
 Maximum gradient               0.001000000000
 Maximum rms gradient           0.000666666667
 Maximum step allowed           0.010000000000
 Maximum rms step allowed       0.006666666667
 Maximum energy change allowe   0.000180000000
 Maximum stress energy allowe   0.000500000000
 
Initial model Hessian                  Automatic Hessian
 
------------------------------------
Quasi-Newton Optimizer Parameters
------------------------------------
Hessian Update Method                  BFGS
Maximum number of steps                  250
First GDIIS cycle                          0
Maximum GDIIS vectors                      0
Trust radius (bohr)                        0.200000
Trust radius varies                        T
Constraints converged at all steps         T
Use projector                              T
 
 Rigid motions settings for: old optimizer
 Atomic rotations (x,y,z):     T T T
 Atomic translations (x,y,z):  T T T
 Tolerance:                   1.000000000000000E-006
 
--------
Geometry
--------
Formula: C9H8O
Atoms
  Index Symbol   x (angstrom)   y (angstrom)   z (angstrom)
      1      C    -1.09231953     0.36268947     0.28519921
      2      C     0.10806666    -0.11910326    -0.09483113
      3      C     1.34641197     0.62409853    -0.34371193
      4      O     1.47780696     1.82326320    -0.38236697
      5      H     2.22003693    -0.05108095    -0.47342793
      6      H     0.22276636    -1.19868975    -0.13377680
      7      C    -1.54206349     1.74199038     0.44494959
      8      C    -1.17629271     2.77476724    -0.42327372
      9      C    -1.66162988     4.05766359    -0.22903647
     10      C    -2.51031339     4.33529282     0.83427850
     11      C    -2.89408823     3.31401294     1.69470515
     12      C    -2.42796507     2.02616225     1.49334568
     13      H    -0.53037809     2.56998249    -1.26635579
     14      H    -1.37312110     4.84862041    -0.91216754
     15      H    -2.87933883     5.34297659     0.98843019
     16      H    -3.56510348     3.52188291     2.52078868
     17      H    -2.73219987     1.23102507     2.16605429
     18      H    -1.84612980    -0.37476397     0.56021281
 
Total System Charge             0.00000
Bonding info available!
 
 
----------------
ADF Engine Input
----------------
 
 Basis
 Type TZ2P
 Core None
 End
 XC
 GGA OLYP
 End
 

 Title: *** (NO TITLE) ***

 Using automatic Hessian for delocalized coordinates.
 *** GOStep1 ***

 Energy gradients wrt nuclear displacements
 ==========================================

     Atom      Cartesian (a.u./angstrom)
                 X         Y         Z
 ----------------------------------------
     1 C     0.009073 -0.003981 -0.004501
     2 C    -0.002144  0.007989  0.004966
     3 C     0.004319  0.033198 -0.001419
     4 O    -0.019646 -0.042600  0.002892
     5 H    -0.008585  0.002471  0.000649
     6 H    -0.000674  0.005227 -0.000085
     7 C     0.001324  0.008884  0.000827
     8 C    -0.000035 -0.003536  0.009899
     9 C    -0.001347 -0.003607  0.005067
    10 C     0.002750 -0.005883 -0.002423
    11 C     0.005460 -0.001620 -0.007434
    12 C     0.003245  0.002858 -0.002540
    13 H     0.001076 -0.000222 -0.001299
    14 H    -0.001034 -0.002521  0.003152
    15 H     0.001854 -0.003979 -0.000666
    16 H     0.002621 -0.000377 -0.003466
    17 H     0.002010  0.003353 -0.001899
    18 H    -0.000268  0.004347 -0.001719
 ----------------------------------------
 Mulliken charges used for AMS results%charges...
 
----------------------------------------------------------------------
Geometry Convergence after Step   1       (Hartree/Angstrom,Angstrom)
----------------------------------------------------------------------
current energy                               -4.10327862 Hartree
energy change                      -4.10327862     0.00018000    F
constrained gradient max            0.04205827     0.00100000    F
constrained gradient rms            0.00875569     0.00066667    F
gradient max                        0.04205827
gradient rms                        0.00875569
cart. step max                      0.21333299     0.01000000    F
cart. step rms                      0.05336475     0.00666667    F
 
 
--------
Geometry
--------
Formula: C9H8O
Atoms
  Index Symbol   x (angstrom)   y (angstrom)   z (angstrom)
      1      C    -1.06802291     0.39857205     0.26557486
      2      C     0.12995733    -0.11793161    -0.10687946
      3      C     1.43251176     0.53474606    -0.32513903
      4      O     1.69113994     1.72675587    -0.34646893
      5      H     2.24998851    -0.21479512    -0.43745466
      6      H     0.19046780    -1.20383386    -0.14631765
      7      C    -1.54016789     1.77476321     0.42803720
      8      C    -1.22244386     2.82111209    -0.44968519
      9      C    -1.73208495     4.09578342    -0.24161993
     10      C    -2.56047934     4.35644767     0.84662199
     11      C    -2.90730930     3.32202369     1.71238527
     12      C    -2.41998275     2.04096030     1.49230926
     13      H    -0.59215250     2.63279714    -1.30757433
     14      H    -1.47524330     4.89359731    -0.93179032
     15      H    -2.94448197     5.35828454     1.01307055
     16      H    -3.56481236     3.51329400     2.55514655
     17      H    -2.69892234     1.23648225     2.16716216
     18      H    -1.82381645    -0.33826903     0.54163747
 
Total System Charge             0.00000
Bonding info available!
 
 *** GOStep2 ***

 Energy gradients wrt nuclear displacements
 ==========================================

     Atom      Cartesian (a.u./angstrom)
                 X         Y         Z
 ----------------------------------------
     1 C     0.000622 -0.001006 -0.001176
     2 C     0.003200 -0.001337  0.000785
     3 C    -0.000036  0.000394 -0.000282
     4 O    -0.000591 -0.007309  0.001390
     5 H    -0.003767  0.000983  0.000938
     6 H    -0.000672  0.003062 -0.000654
     7 C     0.000013  0.004514  0.000468
     8 C    -0.002727 -0.000879  0.001977
     9 C    -0.000532 -0.001338  0.001874
    10 C     0.001688 -0.002093 -0.000636
    11 C     0.001915  0.000356 -0.002593
    12 C     0.001451  0.000738 -0.001841
    13 H    -0.003918  0.001393  0.000928
    14 H    -0.000192 -0.001170  0.001732
    15 H     0.001219 -0.001915 -0.000275
    16 H     0.001484  0.000229 -0.001810
    17 H     0.001131  0.001880 -0.000988
    18 H    -0.000287  0.003498  0.000164
 ----------------------------------------
 Mulliken charges used for AMS results%charges...

 dE(predicted):    -0.38201E-02, dE(actual):    -0.20938E-02, Trust radius:    0.200000, all in a.u.
 
----------------------------------------------------------------------
Geometry Convergence after Step   2       (Hartree/Angstrom,Angstrom)
----------------------------------------------------------------------
current energy                               -4.10537238 Hartree
energy change                      -0.00209376     0.00018000    F
constrained gradient max            0.00671156     0.00100000    F
constrained gradient rms            0.00195509     0.00066667    F
gradient max                        0.00671156
gradient rms                        0.00195509
cart. step max                      0.19166664     0.01000000    F
cart. step rms                      0.04834358     0.00666667    F
 
 
--------
Geometry
--------
Formula: C9H8O
Atoms
  Index Symbol   x (angstrom)   y (angstrom)   z (angstrom)
      1      C    -1.06052913     0.38762957     0.31322942
      2      C     0.14003757    -0.11569459    -0.08186105
      3      C     1.42068521     0.55037769    -0.40398056
      4      O     1.65789887     1.74815000    -0.53813557
      5      H     2.24726308    -0.19228396    -0.52639651
      6      H     0.22426056    -1.20314305    -0.06945733
      7      C    -1.55523723     1.76042684     0.45478175
      8      C    -1.18684150     2.81032259    -0.40470383
      9      C    -1.69257328     4.09252463    -0.21428489
     10      C    -2.56258800     4.36062195     0.84466010
     11      C    -2.95594907     3.32517309     1.69577043
     12      C    -2.47617504     2.03515456     1.48767733
     13      H    -0.49642990     2.62142870    -1.21668021
     14      H    -1.39103439     4.89100856    -0.88813758
     15      H    -2.93602804     5.36976578     1.00285126
     16      H    -3.64060475     3.52270848     2.51742197
     17      H    -2.79542906     1.23034549     2.14674871
     18      H    -1.79658049    -0.36372634     0.60951236
 
Total System Charge             0.00000
Bonding info available!
 
 *** GOStep3 ***

 Energy gradients wrt nuclear displacements
 ==========================================

     Atom      Cartesian (a.u./angstrom)
                 X         Y         Z
 ----------------------------------------
     1 C     0.001066 -0.002430  0.000576
     2 C    -0.000342 -0.004816 -0.000829
     3 C    -0.001309 -0.011281  0.005427
     4 O     0.003589  0.014687 -0.002665
     5 H    -0.000336 -0.001740 -0.001889
     6 H    -0.000779 -0.000244  0.000866
     7 C    -0.001151  0.001651  0.000560
     8 C    -0.001723 -0.003100 -0.000703
     9 C     0.000628  0.001317 -0.001729
    10 C    -0.000160  0.001824  0.000200
    11 C    -0.000702  0.001462  0.001757
    12 C     0.000777 -0.000024  0.000995
    13 H     0.000733  0.000101 -0.000460
    14 H     0.000727  0.000276  0.000166
    15 H     0.000683  0.000373  0.000048
    16 H     0.000272  0.000736  0.000170
    17 H     0.000053  0.000413 -0.000078
    18 H    -0.002026  0.000794 -0.002412
 ----------------------------------------
 Mulliken charges used for AMS results%charges...

 dE(predicted):    -0.71786E-03, dE(actual):    -0.51634E-03, Trust radius:    0.200000, all in a.u.
 
----------------------------------------------------------------------
Geometry Convergence after Step   3       (Hartree/Angstrom,Angstrom)
----------------------------------------------------------------------
current energy                               -4.10588872 Hartree
energy change                      -0.00051634     0.00018000    F
constrained gradient max            0.01524999     0.00100000    F
constrained gradient rms            0.00296811     0.00066667    F
gradient max                        0.01524999
gradient rms                        0.00296811
cart. step max                      0.15187009     0.01000000    F
cart. step rms                      0.04007339     0.00666667    F
 
 
--------
Geometry
--------
Formula: C9H8O
Atoms
  Index Symbol   x (angstrom)   y (angstrom)   z (angstrom)
      1      C    -1.04492400     0.39365309     0.35070261
      2      C     0.14409067    -0.11378147    -0.07612274
      3      C     1.40511020     0.53708541    -0.49666452
      4      O     1.63620641     1.72534259    -0.69000566
      5      H     2.24257916    -0.20160148    -0.56718978
      6      H     0.23587964    -1.20061876    -0.02382309
      7      C    -1.54474770     1.76505816     0.48064949
      8      C    -1.14606924     2.82129890    -0.36060204
      9      C    -1.66299879     4.10150382    -0.18370835
     10      C    -2.57483387     4.36222018     0.84302092
     11      C    -2.99746662     3.32115752     1.67509052
     12      C    -2.50410392     2.03328212     1.48176717
     13      H    -0.42311529     2.63614371    -1.14485970
     14      H    -1.34136411     4.90263445    -0.84628448
     15      H    -2.95904583     5.37004145     0.98939677
     16      H    -3.71550564     3.51254474     2.47022475
     17      H    -2.85048757     1.22344130     2.12215606
     18      H    -1.75505808    -0.35861578     0.70526789
 
Total System Charge             0.00000
Bonding info available!
 
 *** GOStep4 ***

 Energy gradients wrt nuclear displacements
 ==========================================

     Atom      Cartesian (a.u./angstrom)
                 X         Y         Z
 ----------------------------------------
     1 C     0.000225 -0.003934 -0.002097
     2 C    -0.001245 -0.001630  0.005936
     3 C    -0.003124 -0.004971 -0.011628
     4 O     0.002782  0.007435  0.003290
     5 H     0.002301 -0.000792  0.003021
     6 H    -0.000557 -0.001500  0.001144
     7 C    -0.000332  0.002910  0.002359
     8 C    -0.000168 -0.003227 -0.001039
     9 C     0.001317  0.001859 -0.002342
    10 C    -0.000540  0.002238  0.000473
    11 C    -0.001522  0.001544  0.001979
    12 C     0.001247 -0.000670  0.001723
    13 H     0.001664 -0.000511 -0.001256
    14 H     0.000870  0.000695 -0.000796
    15 H     0.000409  0.001411  0.000091
    16 H    -0.000308  0.000738  0.000845
    17 H    -0.000730 -0.000453  0.000346
    18 H    -0.002289 -0.001141 -0.002047
 ----------------------------------------
 Mulliken charges used for AMS results%charges...

 dE(predicted):    -0.41486E-03, dE(actual):    -0.40983E-03, Trust radius:    0.400000, all in a.u.
 
----------------------------------------------------------------------
Geometry Convergence after Step   4       (Hartree/Angstrom,Angstrom)
----------------------------------------------------------------------
current energy                               -4.10629855 Hartree
energy change                      -0.00040983     0.00018000    F
constrained gradient max            0.01164033     0.00100000    F
constrained gradient rms            0.00270251     0.00066667    F
gradient max                        0.01164033
gradient rms                        0.00270251
cart. step max                      0.21403726     0.01000000    F
cart. step rms                      0.05780000     0.00666667    F
 
 
--------
Geometry
--------
Formula: C9H8O
Atoms
  Index Symbol   x (angstrom)   y (angstrom)   z (angstrom)
      1      C    -1.01404563     0.41387479     0.40536706
      2      C     0.15573646    -0.10852870    -0.05727861
      3      C     1.39528293     0.50245520    -0.58569308
      4      O     1.61325232     1.65984550    -0.90404291
      5      H     2.22244122    -0.24790596    -0.66149009
      6      H     0.24849805    -1.19300118     0.04155685
      7      C    -1.52151964     1.78179047     0.51607780
      8      C    -1.08994141     2.85035333    -0.29621535
      9      C    -1.63061083     4.12259992    -0.13682059
     10      C    -2.60172171     4.36391434     0.83940443
     11      C    -3.05676142     3.31131281     1.63980229
     12      C    -2.53528173     2.03212483     1.46807353
     13      H    -0.32626428     2.67672074    -1.04295429
     14      H    -1.28714403     4.93099297    -0.78025220
     15      H    -3.00904837     5.36573784     0.96833125
     16      H    -3.82240245     3.48704395     2.39372488
     17      H    -2.90932794     1.21291848     2.08164027
     18      H    -1.68699611    -0.33145936     0.83978456
 
Total System Charge             0.00000
Bonding info available!
 
 *** GOStep5 ***

 Energy gradients wrt nuclear displacements
 ==========================================

     Atom      Cartesian (a.u./angstrom)
                 X         Y         Z
 ----------------------------------------
     1 C    -0.002058 -0.004609 -0.005495
     2 C    -0.003250  0.002427  0.004941
     3 C     0.001275  0.010066 -0.005939
     4 O    -0.000971 -0.009508  0.003970
     5 H     0.002511 -0.000368 -0.000092
     6 H    -0.000571 -0.002354  0.000379
     7 C     0.001118  0.004470  0.003386
     8 C     0.001053 -0.002232 -0.001549
     9 C     0.001586  0.001772 -0.001937
    10 C    -0.000020  0.001362  0.000502
    11 C    -0.001415  0.000914  0.000754
    12 C     0.001609 -0.001173  0.001558
    13 H     0.001114 -0.000501 -0.001373
    14 H     0.000903  0.000859 -0.001655
    15 H     0.000137  0.002165 -0.000014
    16 H    -0.000793  0.000544  0.001134
    17 H    -0.001356 -0.001248  0.000689
    18 H    -0.000873 -0.002586  0.000739
 ----------------------------------------
 Mulliken charges used for AMS results%charges...

 dE(predicted):    -0.87726E-03, dE(actual):    -0.76874E-03, Trust radius:    0.400000, all in a.u.
 
----------------------------------------------------------------------
Geometry Convergence after Step   5       (Hartree/Angstrom,Angstrom)
----------------------------------------------------------------------
current energy                               -4.10706729 Hartree
energy change                      -0.00076874     0.00018000    F
constrained gradient max            0.01057163     0.00100000    F
constrained gradient rms            0.00285063     0.00066667    F
gradient max                        0.01057163
gradient rms                        0.00285063
cart. step max                      0.21510744     0.01000000    F
cart. step rms                      0.05863185     0.00666667    F
 
 
--------
Geometry
--------
Formula: C9H8O
Atoms
  Index Symbol   x (angstrom)   y (angstrom)   z (angstrom)
      1      C    -0.97243693     0.44321111     0.46235724
      2      C     0.17259519    -0.10347358    -0.03656284
      3      C     1.38269415     0.45198210    -0.67788208
      4      O     1.58571650     1.57035739    -1.11915036
      5      H     2.19666074    -0.31352305    -0.74091670
      6      H     0.26662451    -1.18130098     0.11875703
      7      C    -1.49702261     1.80343214     0.54523385
      8      C    -1.04089695     2.88805033    -0.23359030
      9      C    -1.60916766     4.14891235    -0.08853472
     10      C    -2.63626855     4.36459393     0.83368558
     11      C    -3.11269158     3.29839721     1.60133363
     12      C    -2.55989154     2.03157100     1.44845296
     13      H    -0.23372358     2.73385498    -0.93625425
     14      H    -1.24324746     4.96971754    -0.70306746
     15      H    -3.06804692     5.35785917     0.94782237
     16      H    -3.91951116     3.45442710     2.31543573
     17      H    -2.94738517     1.20320536     2.04081333
     18      H    -1.61985556    -0.29048414     0.95108281
 
Total System Charge             0.00000
Bonding info available!
 
 *** GOStep6 ***

 Energy gradients wrt nuclear displacements
 ==========================================

     Atom      Cartesian (a.u./angstrom)
                 X         Y         Z
 ----------------------------------------
     1 C    -0.002290 -0.001913 -0.002161
     2 C    -0.003421  0.002877  0.001965
     3 C     0.002766  0.012042 -0.003852
     4 O    -0.000279 -0.013425  0.004352
     5 H     0.001898 -0.000812 -0.000511
     6 H    -0.000326 -0.002149  0.000332
     7 C     0.001502  0.003564  0.002652
     8 C     0.000006 -0.000586 -0.003300
     9 C     0.000769  0.000903 -0.000854
    10 C     0.000353  0.000048  0.000258
    11 C    -0.000007  0.000351 -0.000270
    12 C     0.001091 -0.000801  0.000467
    13 H    -0.000575  0.000546  0.000621
    14 H     0.000998  0.000714 -0.001542
    15 H     0.000069  0.002060 -0.000134
    16 H    -0.000797  0.000441  0.000839
    17 H    -0.001248 -0.001107  0.000743
    18 H    -0.000509 -0.002753  0.000394
 ----------------------------------------
 Mulliken charges used for AMS results%charges...

 dE(predicted):    -0.82169E-03, dE(actual):    -0.71380E-03, Trust radius:    0.400000, all in a.u.
 
----------------------------------------------------------------------
Geometry Convergence after Step   6       (Hartree/Angstrom,Angstrom)
----------------------------------------------------------------------
current energy                               -4.10778109 Hartree
energy change                      -0.00071380     0.00018000    F
constrained gradient max            0.01289395     0.00100000    F
constrained gradient rms            0.00294727     0.00066667    F
gradient max                        0.01289395
gradient rms                        0.00294727
cart. step max                      0.21457843     0.01000000    F
cart. step rms                      0.06608212     0.00666667    F
 
 
--------
Geometry
--------
Formula: C9H8O
Atoms
  Index Symbol   x (angstrom)   y (angstrom)   z (angstrom)
      1      C    -0.92375213     0.47260541     0.52986645
      2      C     0.19070671    -0.09739986    -0.01360903
      3      C     1.34616082     0.40707693    -0.77919101
      4      O     1.50668567     1.48475465    -1.33372879
      5      H     2.15226231    -0.36532616    -0.84446087
      6      H     0.29790264    -1.16428641     0.19578078
      7      C    -1.46740019     1.82224453     0.58270040
      8      C    -0.97977290     2.92300224    -0.15420853
      9      C    -1.57532770     4.17204869    -0.03001389
     10      C    -2.66581854     4.36142689     0.82052633
     11      C    -3.16983428     3.28218264     1.54879701
     12      C    -2.58352121     2.02910629     1.42525375
     13      H    -0.13057016     2.78503394    -0.80854407
     14      H    -1.18259570     5.00558156    -0.60883962
     15      H    -3.12398820     5.34458315     0.91080397
     16      H    -4.02400143     3.41814318     2.20909383
     17      H    -2.98860935     1.19224877     1.99203971
     18      H    -1.53438095    -0.24223647     1.08674939
 
Total System Charge             0.00000
Bonding info available!
 
 *** GOStep7 ***

 Energy gradients wrt nuclear displacements
 ==========================================

     Atom      Cartesian (a.u./angstrom)
                 X         Y         Z
 ----------------------------------------
     1 C    -0.002997  0.001568 -0.000308
     2 C    -0.002925  0.001609 -0.000214
     3 C     0.002898  0.006169  0.000890
     4 O     0.000747 -0.007739  0.000180
     5 H     0.000613 -0.001522 -0.000045
     6 H    -0.000361 -0.001525 -0.000138
     7 C     0.001973  0.000614  0.001895
     8 C    -0.000465  0.001460 -0.003769
     9 C    -0.000403 -0.000300  0.000854
    10 C     0.000832 -0.000731 -0.000264
    11 C     0.001411 -0.000233 -0.000739
    12 C     0.000173  0.000114 -0.000176
    13 H    -0.001161  0.000550  0.002129
    14 H     0.000801  0.000092 -0.000972
    15 H     0.000069  0.001236 -0.000359
    16 H    -0.000491  0.000419  0.000161
    17 H    -0.000943 -0.000299  0.000337
    18 H     0.000230 -0.001482  0.000537
 ----------------------------------------
 Mulliken charges used for AMS results%charges...

 dE(predicted):    -0.67978E-03, dE(actual):    -0.28432E-03, Trust radius:    0.400000, all in a.u.
 
----------------------------------------------------------------------
Geometry Convergence after Step   7       (Hartree/Angstrom,Angstrom)
----------------------------------------------------------------------
current energy                               -4.10806541 Hartree
energy change                      -0.00028432     0.00018000    F
constrained gradient max            0.00722025     0.00100000    F
constrained gradient rms            0.00179578     0.00066667    F
gradient max                        0.00722025
gradient rms                        0.00179578
cart. step max                      0.06175021     0.01000000    F
cart. step rms                      0.01718524     0.00666667    F
 
 
--------
Geometry
--------
Formula: C9H8O
Atoms
  Index Symbol   x (angstrom)   y (angstrom)   z (angstrom)
      1      C    -0.90835032     0.47417078     0.55853976
      2      C     0.19094965    -0.09988911    -0.00951372
      3      C     1.32631681     0.41737805    -0.78860382
      4      O     1.47984965     1.51929530    -1.30510634
      5      H     2.11785503    -0.36112510    -0.90621108
      6      H     0.30030435    -1.16706180     0.18829040
      7      C    -1.46035361     1.81818684     0.59430559
      8      C    -0.96397120     2.91682196    -0.13689044
      9      C    -1.56168593     4.16435507    -0.02322165
     10      C    -2.66529337     4.35449285     0.80707372
     11      C    -3.17747973     3.27845669     1.53067915
     12      C    -2.58577560     2.02812670     1.42182125
     13      H    -0.11737243     2.77355107    -0.79381219
     14      H    -1.15931850     4.99840815    -0.59245752
     15      H    -3.12597762     5.33578914     0.88736493
     16      H    -4.03905222     3.41647236     2.17890863
     17      H    -2.98766280     1.19680582     1.99622564
     18      H    -1.51883675    -0.23344482     1.12162349
 
Total System Charge             0.00000
Bonding info available!
 
 *** GOStep8 ***

 Energy gradients wrt nuclear displacements
 ==========================================

     Atom      Cartesian (a.u./angstrom)
                 X         Y         Z
 ----------------------------------------
     1 C     0.001451  0.002653  0.003608
     2 C    -0.003112 -0.000552 -0.001851
     3 C     0.003455 -0.001865  0.005320
     4 O    -0.001959  0.002342 -0.002265
     5 H    -0.001636 -0.001920  0.000779
     6 H    -0.000630  0.000094 -0.001082
     7 C    -0.000081 -0.001123 -0.000485
     8 C     0.000126  0.000971  0.000732
     9 C    -0.000913 -0.001530  0.001391
    10 C     0.000784 -0.001894 -0.000601
    11 C     0.002348  0.000393 -0.001549
    12 C    -0.000516  0.001201 -0.002129
    13 H    -0.001520 -0.000359 -0.000282
    14 H     0.000388 -0.000700  0.000542
    15 H     0.000675 -0.000484 -0.000505
    16 H     0.000756  0.000575 -0.000704
    17 H     0.000448  0.001326 -0.000014
    18 H    -0.000064  0.000873 -0.000904
 ----------------------------------------
 Mulliken charges used for AMS results%charges...

 dE(predicted):    -0.19203E-03, dE(actual):    -0.36426E-04, Trust radius:    0.400000, all in a.u.
 
----------------------------------------------------------------------
Geometry Convergence after Step   8       (Hartree/Angstrom,Angstrom)
----------------------------------------------------------------------
current energy                               -4.10810184 Hartree
energy change                      -0.00003643     0.00018000    T
constrained gradient max            0.00501792     0.00100000    F
constrained gradient rms            0.00157773     0.00066667    F
gradient max                        0.00501792
gradient rms                        0.00157773
cart. step max                      0.04257865     0.01000000    F
cart. step rms                      0.01763514     0.00666667    F
 
 
--------
Geometry
--------
Formula: C9H8O
Atoms
  Index Symbol   x (angstrom)   y (angstrom)   z (angstrom)
      1      C    -0.89984750     0.47638631     0.56994764
      2      C     0.19621129    -0.10045929    -0.00465580
      3      C     1.31082493     0.40627715    -0.82016878
      4      O     1.46068284     1.50491930    -1.34381151
      5      H     2.10077733    -0.37204679    -0.94878973
      6      H     0.32023459    -1.16083571     0.22037217
      7      C    -1.45702408     1.81966500     0.60171492
      8      C    -0.95083978     2.92285223    -0.11785248
      9      C    -1.55316506     4.16991476    -0.01111304
     10      C    -2.66987287     4.35623148     0.80464072
     11      C    -3.19237726     3.27597031     1.51729174
     12      C    -2.59386636     2.02676714     1.41651182
     13      H    -0.08799623     2.78471071    -0.75530446
     14      H    -1.14406795     5.00628595    -0.57289860
     15      H    -3.13335718     5.33690453     0.88072008
     16      H    -4.06561966     3.41003076     2.15110071
     17      H    -3.00584392     1.19154255     1.97866470
     18      H    -1.49070770    -0.22432643     1.16264573
 
Total System Charge             0.00000
Bonding info available!
 
 *** GOStep9 ***

 Energy gradients wrt nuclear displacements
 ==========================================

     Atom      Cartesian (a.u./angstrom)
                 X         Y         Z
 ----------------------------------------
     1 C    -0.000745  0.001516  0.000686
     2 C    -0.001559 -0.001133 -0.002039
     3 C     0.000885 -0.001720  0.002320
     4 O    -0.000307  0.000920 -0.001117
     5 H    -0.000543 -0.000778  0.001171
     6 H    -0.000119 -0.000031  0.000166
     7 C     0.000428 -0.001825  0.000198
     8 C     0.000257  0.000616 -0.000183
     9 C    -0.000325 -0.000384 -0.000091
    10 C     0.000691  0.000005  0.000086
    11 C     0.000155  0.000327 -0.000746
    12 C    -0.000017  0.000838 -0.000016
    13 H    -0.000369 -0.000141  0.000421
    14 H     0.000397 -0.000319  0.000024
    15 H     0.000606 -0.000044 -0.000393
    16 H     0.000258  0.000567 -0.000591
    17 H     0.000040  0.000831 -0.000184
    18 H     0.000269  0.000755  0.000290
 ----------------------------------------
 Mulliken charges used for AMS results%charges...

 dE(predicted):    -0.10068E-03, dE(actual):    -0.11218E-03, Trust radius:    0.400000, all in a.u.
 
----------------------------------------------------------------------
Geometry Convergence after Step   9       (Hartree/Angstrom,Angstrom)
----------------------------------------------------------------------
current energy                               -4.10821402 Hartree
energy change                      -0.00011218     0.00018000    T
constrained gradient max            0.00229598     0.00100000    F
constrained gradient rms            0.00074750     0.00066667    F
gradient max                        0.00229598
gradient rms                        0.00074750
cart. step max                      0.05617298     0.01000000    F
cart. step rms                      0.01286433     0.00666667    F
 
 
--------
Geometry
--------
Formula: C9H8O
Atoms
  Index Symbol   x (angstrom)   y (angstrom)   z (angstrom)
      1      C    -0.88853981     0.47982884     0.58635430
      2      C     0.20678353    -0.09771653     0.00935984
      3      C     1.30297349     0.40034424    -0.83650166
      4      O     1.46182423     1.50428887    -1.34398499
      5      H     2.07440450    -0.38883848    -1.00496271
      6      H     0.32716689    -1.15908868     0.23222464
      7      C    -1.45121174     1.82262106     0.61225942
      8      C    -0.94065524     2.92719736    -0.10303960
      9      C    -1.54842595     4.17316666    -0.00502966
     10      C    -2.67592712     4.35626954     0.79829616
     11      C    -3.20086799     3.27492662     1.50985876
     12      C    -2.59810630     2.02626480     1.41500981
     13      H    -0.06851971     2.79160521    -0.72922708
     14      H    -1.13810074     5.00971155    -0.56637636
     15      H    -3.14417555     5.33556845     0.86760726
     16      H    -4.08082116     3.40684199     2.13528695
     17      H    -3.01600933     1.18850182     1.96981797
     18      H    -1.47764660    -0.22070334     1.18206276
 
Total System Charge             0.00000
Bonding info available!
 
 *** GOStep10 ***

 Energy gradients wrt nuclear displacements
 ==========================================

     Atom      Cartesian (a.u./angstrom)
                 X         Y         Z
 ----------------------------------------
     1 C    -0.000672  0.000522  0.000567
     2 C     0.000880 -0.000961 -0.000296
     3 C    -0.001079 -0.000065 -0.000091
     4 O     0.000627 -0.001645  0.000205
     5 H     0.000141  0.000131  0.000840
     6 H    -0.000685 -0.000363  0.000061
     7 C     0.000478 -0.001020  0.000412
     8 C     0.000074  0.000061 -0.000749
     9 C     0.001089  0.000669 -0.000309
    10 C    -0.000197  0.001049 -0.000522
    11 C    -0.000574  0.000452  0.000665
    12 C    -0.000343 -0.000016  0.000314
    13 H     0.000198 -0.000162  0.000075
    14 H     0.000413  0.000018 -0.000473
    15 H     0.000419  0.000374 -0.000429
    16 H    -0.000009  0.000558 -0.000271
    17 H    -0.000383  0.000237 -0.000264
    18 H    -0.000375  0.000160  0.000264
 ----------------------------------------
 Mulliken charges used for AMS results%charges...

 dE(predicted):    -0.49623E-04, dE(actual):    -0.86851E-04, Trust radius:    0.400000, all in a.u.
 
----------------------------------------------------------------------
Geometry Convergence after Step  10       (Hartree/Angstrom,Angstrom)
----------------------------------------------------------------------
current energy                               -4.10830087 Hartree
energy change                      -0.00008685     0.00018000    T
constrained gradient max            0.00115647     0.00100000    F
constrained gradient rms            0.00048140     0.00066667    T
gradient max                        0.00115647
gradient rms                        0.00048140
cart. step max                      0.05887428     0.01000000    F
cart. step rms                      0.01400021     0.00666667    F
 
 
--------
Geometry
--------
Formula: C9H8O
Atoms
  Index Symbol   x (angstrom)   y (angstrom)   z (angstrom)
      1      C    -0.87856532     0.48402001     0.60064433
      2      C     0.21372691    -0.09496845     0.01967234
      3      C     1.29254285     0.39562737    -0.85176172
      4      O     1.46005549     1.50678162    -1.34157746
      5      H     2.03887775    -0.40684049    -1.06383699
      6      H     0.33832545    -1.15386690     0.25078684
      7      C    -1.44601211     1.82522927     0.61967781
      8      C    -0.92979263     2.93131857    -0.08840039
      9      C    -1.54417753     4.17454578     0.00055096
     10      C    -2.68096742     4.35402231     0.79126999
     11      C    -3.21044218     3.27113765     1.49681043
     12      C    -2.60100475     2.02528826     1.41128068
     13      H    -0.04811406     2.79888656    -0.70220249
     14      H    -1.12840258     5.01337590    -0.55323971
     15      H    -3.15292367     5.33184741     0.85574016
     16      H    -4.09681726     3.40069039     2.11352843
     17      H    -3.01941259     1.18719851     1.96524038
     18      H    -1.46275093    -0.21350379     1.20483225
 
Total System Charge             0.00000
Bonding info available!
 
 *** GOStep11 ***

 Energy gradients wrt nuclear displacements
 ==========================================

     Atom      Cartesian (a.u./angstrom)
                 X         Y         Z
 ----------------------------------------
     1 C    -0.000530 -0.000254 -0.000338
     2 C     0.001064 -0.000791 -0.000225
     3 C    -0.001338 -0.000952  0.000631
     4 O     0.000577 -0.000631  0.000048
     5 H    -0.000021  0.000032  0.000415
     6 H    -0.000517  0.000014  0.000650
     7 C     0.000113 -0.000125  0.000219
     8 C     0.000038 -0.000033  0.000056
     9 C     0.000581  0.000207 -0.000965
    10 C     0.000227  0.001007 -0.000054
    11 C    -0.000738  0.000216 -0.000056
    12 C    -0.000156  0.000135  0.000399
    13 H     0.000517 -0.000211 -0.000107
    14 H     0.000476  0.000036 -0.000264
    15 H     0.000447  0.000340 -0.000376
    16 H     0.000073  0.000546 -0.000272
    17 H    -0.000191  0.000281  0.000001
    18 H    -0.000624  0.000184  0.000236
 ----------------------------------------
 Mulliken charges used for AMS results%charges...

 dE(predicted):    -0.25367E-04, dE(actual):    -0.39538E-04, Trust radius:    0.400000, all in a.u.
 
----------------------------------------------------------------------
Geometry Convergence after Step  11       (Hartree/Angstrom,Angstrom)
----------------------------------------------------------------------
current energy                               -4.10834041 Hartree
energy change                      -0.00003954     0.00018000    T
constrained gradient max            0.00133034     0.00100000    F
constrained gradient rms            0.00038801     0.00066667    T
gradient max                        0.00133034
gradient rms                        0.00038801
cart. step max                      0.04762283     0.01000000    F
cart. step rms                      0.01402655     0.00666667    F
 
 
--------
Geometry
--------
Formula: C9H8O
Atoms
  Index Symbol   x (angstrom)   y (angstrom)   z (angstrom)
      1      C    -0.86560272     0.49041002     0.61872984
      2      C     0.21868926    -0.09192308     0.02679952
      3      C     1.28156963     0.38975678    -0.86865761
      4      O     1.45453651     1.50388642    -1.35013273
      5      H     2.00616235    -0.42390048    -1.11145981
      6      H     0.34322242    -1.15066487     0.25877668
      7      C    -1.43789615     1.82922407     0.63070394
      8      C    -0.91725989     2.93700858    -0.07093303
      9      C    -1.53792815     4.17732982     0.01028053
     10      C    -2.68689695     4.35137977     0.78374317
     11      C    -3.21885831     3.26745511     1.48493769
     12      C    -2.60267320     2.02476783     1.40850379
     13      H    -0.02704874     2.80783183    -0.67282816
     14      H    -1.11901657     5.01770314    -0.53866844
     15      H    -3.16551684     5.32647714     0.83962961
     16      H    -4.11459247     3.39308151     2.08877372
     17      H    -3.02455804     1.18522642     1.95749891
     18      H    -1.44218673    -0.20426006     1.23331819
 
Total System Charge             0.00000
Bonding info available!
 
 *** GOStep12 ***

 Energy gradients wrt nuclear displacements
 ==========================================

     Atom      Cartesian (a.u./angstrom)
                 X         Y         Z
 ----------------------------------------
     1 C    -0.000196 -0.000049 -0.000054
     2 C     0.000717 -0.000129 -0.000084
     3 C    -0.000875 -0.001360  0.001058
     4 O     0.000271 -0.000195 -0.000111
     5 H    -0.000193 -0.000275  0.000346
     6 H    -0.000613 -0.000025  0.000450
     7 C     0.000064  0.000022 -0.000015
     8 C    -0.000284  0.000086 -0.000210
     9 C     0.000559 -0.000064 -0.000056
    10 C     0.000158  0.000353 -0.000460
    11 C     0.000181  0.000300  0.000064
    12 C    -0.000255  0.000383  0.000062
    13 H     0.000391 -0.000281 -0.000012
    14 H     0.000412 -0.000071 -0.000268
    15 H     0.000384  0.000267 -0.000449
    16 H     0.000059  0.000518 -0.000377
    17 H    -0.000264  0.000335 -0.000095
    18 H    -0.000515  0.000183  0.000214
 ----------------------------------------
 Mulliken charges used for AMS results%charges...

 dE(predicted):    -0.97556E-05, dE(actual):    -0.15538E-04, Trust radius:    0.400000, all in a.u.
 
----------------------------------------------------------------------
Geometry Convergence after Step  12       (Hartree/Angstrom,Angstrom)
----------------------------------------------------------------------
current energy                               -4.10835594 Hartree
energy change                      -0.00001554     0.00018000    T
constrained gradient max            0.00097627     0.00100000    T
constrained gradient rms            0.00027864     0.00066667    T
gradient max                        0.00097627
gradient rms                        0.00027864
cart. step max                      0.01544370     0.01000000    F
cart. step rms                      0.00414021     0.00666667    T
 
 
--------
Geometry
--------
Formula: C9H8O
Atoms
  Index Symbol   x (angstrom)   y (angstrom)   z (angstrom)
      1      C    -0.86221974     0.49139822     0.62482035
      2      C     0.21876289    -0.09132774     0.02750964
      3      C     1.27815615     0.39025736    -0.87287059
      4      O     1.45479362     1.50684863    -1.34666860
      5      H     1.99528777    -0.42676225    -1.12690351
      6      H     0.34359168    -1.15068203     0.25722924
      7      C    -1.43518995     1.82989268     0.63558853
      8      C    -0.91322851     2.93754906    -0.06518413
      9      C    -1.53657802     4.17685875     0.01117033
     10      C    -2.68815978     4.35041276     0.78068813
     11      C    -3.22156472     3.26651618     1.48063888
     12      C    -2.60302954     2.02472150     1.40869090
     13      H    -0.02111403     2.80870186    -0.66403216
     14      H    -1.11659622     5.01708378    -0.53721679
     15      H    -3.16792952     5.32513298     0.83416531
     16      H    -4.11910529     3.39198256     2.08189670
     17      H    -3.02544256     1.18553567     1.95781961
     18      H    -1.43628883    -0.20333000     1.24167398
 
Total System Charge             0.00000
Bonding info available!
 
 *** GOStep13 ***

 Energy gradients wrt nuclear displacements
 ==========================================

     Atom      Cartesian (a.u./angstrom)
                 X         Y         Z
 ----------------------------------------
     1 C    -0.000174 -0.000028  0.000138
     2 C     0.000085  0.000019  0.000033
     3 C    -0.000415 -0.000721  0.000592
     4 O    -0.000005 -0.000435  0.000197
     5 H    -0.000192 -0.000490  0.000383
     6 H    -0.000527 -0.000198  0.000425
     7 C     0.000068  0.000108  0.000036
     8 C     0.000140  0.000025  0.000011
     9 C     0.000230 -0.000101 -0.000287
    10 C     0.000364  0.000233 -0.000244
    11 C     0.000086  0.000282 -0.000374
    12 C    -0.000179  0.000352 -0.000101
    13 H     0.000218 -0.000310 -0.000025
    14 H     0.000444 -0.000066 -0.000269
    15 H     0.000400  0.000327 -0.000411
    16 H     0.000076  0.000556 -0.000273
    17 H    -0.000225  0.000364 -0.000024
    18 H    -0.000396  0.000081  0.000195
 ----------------------------------------
 Mulliken charges used for AMS results%charges...
 
---------------------------------------------------------
Geometry Convergence after Step  13       ** CONVERGED **
---------------------------------------------------------
current energy                               -4.10835648 Hartree
energy change                      -0.00000054     0.00018000    T
constrained gradient max            0.00034483     0.00100000    T
constrained gradient rms            0.00010800     0.00066667    T
gradient max                        0.00034483
gradient rms                        0.00010800
cart. step max                      0.00273862     0.01000000    T
cart. step rms                      0.00102907     0.00666667    T
 
Geometry optimization converged

Optimized geometry:
 
--------
Geometry
--------
Formula: C9H8O
Atoms
  Index Symbol   x (angstrom)   y (angstrom)   z (angstrom)
      1      C    -0.86221974     0.49139822     0.62482035
      2      C     0.21876289    -0.09132774     0.02750964
      3      C     1.27815615     0.39025736    -0.87287059
      4      O     1.45479362     1.50684863    -1.34666860
      5      H     1.99528777    -0.42676225    -1.12690351
      6      H     0.34359168    -1.15068203     0.25722924
      7      C    -1.43518995     1.82989268     0.63558853
      8      C    -0.91322851     2.93754906    -0.06518413
      9      C    -1.53657802     4.17685875     0.01117033
     10      C    -2.68815978     4.35041276     0.78068813
     11      C    -3.22156472     3.26651618     1.48063888
     12      C    -2.60302954     2.02472150     1.40869090
     13      H    -0.02111403     2.80870186    -0.66403216
     14      H    -1.11659622     5.01708378    -0.53721679
     15      H    -3.16792952     5.32513298     0.83416531
     16      H    -4.11910529     3.39198256     2.08189670
     17      H    -3.02544256     1.18553567     1.95781961
     18      H    -1.43628883    -0.20333000     1.24167398
 
Total System Charge             0.00000
Bonding info available!
 
Performing a single point calculation on the final geometry ...

 *** adf ***



 ===========================
 A T T A C H E D   F I L E S
 ===========================
  
 RestartZ:/SCMTMP/amstmp_ams_kid0.107118839/GOStep13.rkf*** GOStep13 ***



 ===============================
 M O D E L   P A R A M E T E R S
 ===============================
  
 DENSITY FUNCTIONAL POTENTIAL (scf)
    LDA:                               Exchange only                           == Not Default ==
    Gradient Corrections:              OPTX LYP                                == Not Default ==

 SPIN  (restricted / unrestr.)
    Molecule:                          Restricted                               
    Fragments:                         Restricted                               

 OTHER ASPECTS
    Relativistic Corrections:          scalar (ZORA,MAPA)                       

    Nuclear Charge Density Model:      Point Charge Nuclei                      
    Core Treatment:                    Frozen Orbital(s)                        

    Hyperfine or Zeeman Interaction:   ---                                      



 ===============
 G E O M E T R Y  ***  3D  Molecule  ***
 ===============
  

 ATOMS
 =====                            X Y Z                    CHARGE
                                (Angstrom)             Nucl     +Core       At.Mass
                       --------------------------    ----------------       -------
    1  C              -0.8622    0.4914    0.6248      6.00      6.00       12.0000
    2  C               0.2188   -0.0913    0.0275      6.00      6.00       12.0000
    3  C               1.2782    0.3903   -0.8729      6.00      6.00       12.0000
    4  O               1.4548    1.5068   -1.3467      8.00      8.00       15.9949
    5  H               1.9953   -0.4268   -1.1269      1.00      1.00        1.0078
    6  H               0.3436   -1.1507    0.2572      1.00      1.00        1.0078
    7  C              -1.4352    1.8299    0.6356      6.00      6.00       12.0000
    8  C              -0.9132    2.9375   -0.0652      6.00      6.00       12.0000
    9  C              -1.5366    4.1769    0.0112      6.00      6.00       12.0000
   10  C              -2.6882    4.3504    0.7807      6.00      6.00       12.0000
   11  C              -3.2216    3.2665    1.4806      6.00      6.00       12.0000
   12  C              -2.6030    2.0247    1.4087      6.00      6.00       12.0000
   13  H              -0.0211    2.8087   -0.6640      1.00      1.00        1.0078
   14  H              -1.1166    5.0171   -0.5372      1.00      1.00        1.0078
   15  H              -3.1679    5.3251    0.8342      1.00      1.00        1.0078
   16  H              -4.1191    3.3920    2.0819      1.00      1.00        1.0078
   17  H              -3.0254    1.1855    1.9578      1.00      1.00        1.0078
   18  H              -1.4363   -0.2033    1.2417      1.00      1.00        1.0078


 FRAGMENTS
 =========                                     Atoms in this Fragment     Cart. coord.s (Angstrom)
                                               -------------------------------------------------------
    1  C                                                 1  C           -0.8622    0.4914    0.6248
    2  C                                                 2  C            0.2188   -0.0913    0.0275
    3  C                                                 3  C            1.2782    0.3903   -0.8729
    4  C                                                 7  C           -1.4352    1.8299    0.6356
    5  C                                                 8  C           -0.9132    2.9375   -0.0652
    6  C                                                 9  C           -1.5366    4.1769    0.0112
    7  C                                                10  C           -2.6882    4.3504    0.7807
    8  C                                                11  C           -3.2216    3.2665    1.4806
    9  C                                                12  C           -2.6030    2.0247    1.4087
   10  O                                                 4  O            1.4548    1.5068   -1.3467
   11  H                                                 5  H            1.9953   -0.4268   -1.1269
   12  H                                                 6  H            0.3436   -1.1507    0.2572
   13  H                                                13  H           -0.0211    2.8087   -0.6640
   14  H                                                14  H           -1.1166    5.0171   -0.5372
   15  H                                                15  H           -3.1679    5.3251    0.8342
   16  H                                                16  H           -4.1191    3.3920    2.0819
   17  H                                                17  H           -3.0254    1.1855    1.9578
   18  H                                                18  H           -1.4363   -0.2033    1.2417


 Interatomic Distance Matrix (Angstrom)
 --------------------------------------

   1)     0.000
   2)     1.366   0.000
   3)     2.614   1.471   0.000
   4)     3.207   2.443   1.226   0.000
   5)     3.475   2.145   1.116   2.020   0.000
   6)     2.070   1.091   2.127   3.297   2.273   0.000
   7)     1.456   2.607   3.422   3.519   4.468   3.492   0.000
   8)     2.542   3.235   3.456   3.049   4.572   4.289   1.411   0.000
   9)     3.797   4.615   4.800   4.233   5.913   5.655   2.431   1.389   0.000
  10)     4.272   5.362   5.844   5.457   6.957   6.303   2.819   2.421   1.396   0.000
  11)     3.742   5.022   5.836   5.741   6.903   5.807   2.443   2.798   2.414   1.396
          0.000
  12)     2.449   3.788   4.790   4.932   5.795   4.482   1.414   2.421   2.779   2.410
          1.389   0.000
  13)     2.782   2.991   2.753   2.083   3.840   4.081   2.156   1.082   2.150   3.403
          3.880   3.403   0.000
  14)     4.679   5.310   5.221   4.426   6.298   6.388   3.411   2.142   1.088   2.157
          3.401   3.867   2.468   0.000
  15)     5.360   6.439   6.858   6.380   7.974   7.389   3.906   3.405   2.158   1.088
          2.158   3.397   4.299   2.487   0.000
  16)     4.598   5.931   6.846   6.810   7.891   6.624   3.426   3.885   3.402   2.159
          1.088   2.150   4.967   4.303   2.490   0.000
  17)     2.634   3.985   5.212   5.576   6.109   4.439   2.166   3.409   3.867   3.394
          2.144   1.088   4.305   4.955   4.292   2.466   0.000
  18)     1.092   2.056   3.492   4.241   4.176   2.244   2.122   3.442   4.551   4.745
          3.909   2.521   3.835   5.524   5.808   4.564   2.229   0.000

 Min. Distance =    1.0822
 Max. Distance =    7.9743



 =====================================
 S Y M M E T R Y ,   E L E C T R O N S
 =====================================
  
 Symmetry: NOSYM

 Irreducible Representations, including subspecies
 -------------------------------------------------
 A


 Configuration of Valence Electrons
 ==================================
 ( determined in the SCF procedure )

 Total:   70

 Net Charge: 0 (Nuclei minus Electrons)

 Aufbau principle for MO occupations will be applied through SCF cycle no.     150
 Thereafter, the program will assign electrons to MOs that are spatially
 similar to the occupied MOs in a "reference" cycle ("KeepOrbitals").
 The reference cycle is always the PREVIOUS cycle: it will evolve with
 the SCF procedure.
1
 ***************************************************************************************************



                                      ****************************************
                                      *  B U I L D : (Fragments, Functions)  *
                                      ****************************************
  



 =======
 S F O s  ***  (Symmetrized Fragment Orbitals)  ***
 =======
  
 SFOs are linear combinations of (valence) Fragment Orbitals (FOs), such that the SFOs transform as the
 irreducible representations of the (molecular) symmetry group. Each SFO is therefore characterized by
 an irrep of the molecule and by a few (or only one) generating FOs.
 The SFOs constitute a symmetry-adapted basis for the Fock matrix. The MO eigenvector coefficients in
 this basis provide a direct interpretation of the MOs in terms of Frontier Orbital Theory.

 The SFOs are combined with auxiliary Core Functions (CFs) to ensure orthogonalization on the (frozen)
 Core Orbitals (COs). The Core-orthogonalized SFOs (CSFOs) constitute the true Fock basis.

 The FOs, and hence also the (C)SFOs are combinations of the elementary basis functions (BAS). The basis
 functions that participate in the description of the SFOs depend on the irrep. The indices of the
 involved functions are printed below for each irrep.
 (The complete list of primitive basis functions is printed in another section)

 Total nr. of (C)SFOs (summation over all irreps) :   348

 NOTE: a (C)SFO that is defined as a combination of more than one FO is usually NOT normalized.



                                       === A ===
 Nr. of SFOs :  348
 Cartesian basis functions that participate in this irrep (total number =   396) :
      1     2     3     4     5     6     9    12     7    10
     13     8    11    14    15    16    17    18    19    20
     21    22    23    24    25    26    27    28    29    30
     31    32    33    34    35    36    39    42    37    40
     43    38    41    44    45    46    47    48    49    50
     51    52    53    54    55    56    57    58    59    60
     61    62    63    64    65    66    69    72    67    70
     73    68    71    74    75    76    77    78    79    80
     81    82    83    84    85    86    87    88    89    90
     91    92    93    94    95    96    99   102    97   100
    103    98   101   104   105   106   107   108   109   110
    111   112   113   114   115   116   117   118   119   120
    121   122   123   124   125   126   129   132   127   130
    133   128   131   134   135   136   137   138   139   140
    141   142   143   144   145   146   147   148   149   150
    151   152   153   154   155   156   159   162   157   160
    163   158   161   164   165   166   167   168   169   170
    171   172   173   174   175   176   177   178   179   180
    181   182   183   184   185   186   189   192   187   190
    193   188   191   194   195   196   197   198   199   200
    201   202   203   204   205   206   207   208   209   210
    211   212   213   214   215   216   219   222   217   220
    223   218   221   224   225   226   227   228   229   230
    231   232   233   234   235   236   237   238   239   240
    241   242   243   244   245   246   249   252   247   250
    253   248   251   254   255   256   257   258   259   260
    261   262   263   264   265   266   267   268   269   270
    271   272   273   274   275   276   279   282   277   280
    283   278   281   284   285   286   287   288   289   290
    291   292   293   294   295   296   297   298   299   300
    301   302   303   304   305   306   307   308   309   310
    311   312   313   314   315   316   317   318   319   320
    321   322   323   324   325   326   327   328   329   330
    331   332   333   334   335   336   337   338   339   340
    341   342   343   344   345   346   347   348   349   350
    351   352   353   354   355   356   357   358   359   360
    361   362   363   364   365   366   367   368   369   370
    371   372   373   374   375   376   377   378   379   380
    381   382   383   384   385   386   387   388   389   390
    391   392   393   394   395   396

    SFO  (index         Fragment          Generating    Expansion in Fragment Orbitals
  indx  incl.CFs)   Occup   Orb.Energy   FragmentType  Coeff.   Orbital     on Fragment
 --------------------------------------------------------------------------------------
     1       1      2.000     -10.064 au  C             1.00      1 S               1
                        (    -273.865 eV)
     2       2      2.000      -0.507 au  C             1.00      2 S               1
                        (     -13.802 eV)
     3       3       --         0.384 au  C             1.00      3 S               1
                        (      10.456 eV)
     4       4       --         5.458 au  C             1.00      4 S               1
                        (     148.511 eV)
     5       5       --        49.970 au  C             1.00      5 S               1
                        (    1359.766 eV)
     6       6      0.667      -0.189 au  C             1.00      1 P:x             1
                        (      -5.135 eV)
     7       7       --         0.168 au  C             1.00      2 P:x             1
                        (       4.559 eV)
     8       8       --         2.056 au  C             1.00      3 P:x             1
                        (      55.959 eV)
     9       9      0.667      -0.189 au  C             1.00      1 P:y             1
                        (      -5.135 eV)
    10      10       --         0.168 au  C             1.00      2 P:y             1
                        (       4.559 eV)
    11      11       --         2.056 au  C             1.00      3 P:y             1
                        (      55.959 eV)
    12      12      0.667      -0.189 au  C             1.00      1 P:z             1
                        (      -5.135 eV)
    13      13       --         0.168 au  C             1.00      2 P:z             1
                        (       4.559 eV)
    14      14       --         2.056 au  C             1.00      3 P:z             1
                        (      55.959 eV)
    15      15       --         1.235 au  C             1.00      1 D:z2            1
                        (      33.605 eV)
    16      16       --         1.235 au  C             1.00      1 D:x2-y2         1
                        (      33.605 eV)
    17      17       --         1.235 au  C             1.00      1 D:xy            1
                        (      33.605 eV)
    18      18       --         1.235 au  C             1.00      1 D:xz            1
                        (      33.605 eV)
    19      19       --         1.235 au  C             1.00      1 D:yz            1
                        (      33.605 eV)
    20      20       --         4.005 au  C             1.00      1 F:z3            1
                        (     108.969 eV)
    21      21       --         4.005 au  C             1.00      1 F:z             1
                        (     108.969 eV)
    22      22       --         4.005 au  C             1.00      1 F:xyz           1
                        (     108.969 eV)
    23      23       --         4.005 au  C             1.00      1 F:z2x           1
                        (     108.969 eV)
    24      24       --         4.005 au  C             1.00      1 F:z2y           1
                        (     108.969 eV)
    25      25       --         4.005 au  C             1.00      1 F:x             1
                        (     108.969 eV)
    26      26       --         4.005 au  C             1.00      1 F:y             1
                        (     108.969 eV)
    27      27      2.000     -10.064 au  C             1.00      1 S               2
                        (    -273.865 eV)
    28      28      2.000      -0.507 au  C             1.00      2 S               2
                        (     -13.802 eV)
    29      29       --         0.384 au  C             1.00      3 S               2
                        (      10.456 eV)
    30      30       --         5.458 au  C             1.00      4 S               2
                        (     148.511 eV)
    31      31       --        49.970 au  C             1.00      5 S               2
                        (    1359.766 eV)
    32      32      0.667      -0.189 au  C             1.00      1 P:x             2
                        (      -5.135 eV)
    33      33       --         0.168 au  C             1.00      2 P:x             2
                        (       4.559 eV)
    34      34       --         2.056 au  C             1.00      3 P:x             2
                        (      55.959 eV)
    35      35      0.667      -0.189 au  C             1.00      1 P:y             2
                        (      -5.135 eV)
    36      36       --         0.168 au  C             1.00      2 P:y             2
                        (       4.559 eV)
    37      37       --         2.056 au  C             1.00      3 P:y             2
                        (      55.959 eV)
    38      38      0.667      -0.189 au  C             1.00      1 P:z             2
                        (      -5.135 eV)
    39      39       --         0.168 au  C             1.00      2 P:z             2
                        (       4.559 eV)
    40      40       --         2.056 au  C             1.00      3 P:z             2
                        (      55.959 eV)
    41      41       --         1.235 au  C             1.00      1 D:z2            2
                        (      33.605 eV)
    42      42       --         1.235 au  C             1.00      1 D:x2-y2         2
                        (      33.605 eV)
    43      43       --         1.235 au  C             1.00      1 D:xy            2
                        (      33.605 eV)
    44      44       --         1.235 au  C             1.00      1 D:xz            2
                        (      33.605 eV)
    45      45       --         1.235 au  C             1.00      1 D:yz            2
                        (      33.605 eV)
    46      46       --         4.005 au  C             1.00      1 F:z3            2
                        (     108.969 eV)
    47      47       --         4.005 au  C             1.00      1 F:z             2
                        (     108.969 eV)
    48      48       --         4.005 au  C             1.00      1 F:xyz           2
                        (     108.969 eV)
    49      49       --         4.005 au  C             1.00      1 F:z2x           2
                        (     108.969 eV)
    50      50       --         4.005 au  C             1.00      1 F:z2y           2
                        (     108.969 eV)
    51      51       --         4.005 au  C             1.00      1 F:x             2
                        (     108.969 eV)
    52      52       --         4.005 au  C             1.00      1 F:y             2
                        (     108.969 eV)
    53      53      2.000     -10.064 au  C             1.00      1 S               3
                        (    -273.865 eV)
    54      54      2.000      -0.507 au  C             1.00      2 S               3
                        (     -13.802 eV)
    55      55       --         0.384 au  C             1.00      3 S               3
                        (      10.456 eV)
    56      56       --         5.458 au  C             1.00      4 S               3
                        (     148.511 eV)
    57      57       --        49.970 au  C             1.00      5 S               3
                        (    1359.766 eV)
    58      58      0.667      -0.189 au  C             1.00      1 P:x             3
                        (      -5.135 eV)
    59      59       --         0.168 au  C             1.00      2 P:x             3
                        (       4.559 eV)
    60      60       --         2.056 au  C             1.00      3 P:x             3
                        (      55.959 eV)
    61      61      0.667      -0.189 au  C             1.00      1 P:y             3
                        (      -5.135 eV)
    62      62       --         0.168 au  C             1.00      2 P:y             3
                        (       4.559 eV)
    63      63       --         2.056 au  C             1.00      3 P:y             3
                        (      55.959 eV)
    64      64      0.667      -0.189 au  C             1.00      1 P:z             3
                        (      -5.135 eV)
    65      65       --         0.168 au  C             1.00      2 P:z             3
                        (       4.559 eV)
    66      66       --         2.056 au  C             1.00      3 P:z             3
                        (      55.959 eV)
    67      67       --         1.235 au  C             1.00      1 D:z2            3
                        (      33.605 eV)
    68      68       --         1.235 au  C             1.00      1 D:x2-y2         3
                        (      33.605 eV)
    69      69       --         1.235 au  C             1.00      1 D:xy            3
                        (      33.605 eV)
    70      70       --         1.235 au  C             1.00      1 D:xz            3
                        (      33.605 eV)
    71      71       --         1.235 au  C             1.00      1 D:yz            3
                        (      33.605 eV)
    72      72       --         4.005 au  C             1.00      1 F:z3            3
                        (     108.969 eV)
    73      73       --         4.005 au  C             1.00      1 F:z             3
                        (     108.969 eV)
    74      74       --         4.005 au  C             1.00      1 F:xyz           3
                        (     108.969 eV)
    75      75       --         4.005 au  C             1.00      1 F:z2x           3
                        (     108.969 eV)
    76      76       --         4.005 au  C             1.00      1 F:z2y           3
                        (     108.969 eV)
    77      77       --         4.005 au  C             1.00      1 F:x             3
                        (     108.969 eV)
    78      78       --         4.005 au  C             1.00      1 F:y             3
                        (     108.969 eV)
    79      79      2.000     -10.064 au  C             1.00      1 S               4
                        (    -273.865 eV)
    80      80      2.000      -0.507 au  C             1.00      2 S               4
                        (     -13.802 eV)
    81      81       --         0.384 au  C             1.00      3 S               4
                        (      10.456 eV)
    82      82       --         5.458 au  C             1.00      4 S               4
                        (     148.511 eV)
    83      83       --        49.970 au  C             1.00      5 S               4
                        (    1359.766 eV)
    84      84      0.667      -0.189 au  C             1.00      1 P:x             4
                        (      -5.135 eV)
    85      85       --         0.168 au  C             1.00      2 P:x             4
                        (       4.559 eV)
    86      86       --         2.056 au  C             1.00      3 P:x             4
                        (      55.959 eV)
    87      87      0.667      -0.189 au  C             1.00      1 P:y             4
                        (      -5.135 eV)
    88      88       --         0.168 au  C             1.00      2 P:y             4
                        (       4.559 eV)
    89      89       --         2.056 au  C             1.00      3 P:y             4
                        (      55.959 eV)
    90      90      0.667      -0.189 au  C             1.00      1 P:z             4
                        (      -5.135 eV)
    91      91       --         0.168 au  C             1.00      2 P:z             4
                        (       4.559 eV)
    92      92       --         2.056 au  C             1.00      3 P:z             4
                        (      55.959 eV)
    93      93       --         1.235 au  C             1.00      1 D:z2            4
                        (      33.605 eV)
    94      94       --         1.235 au  C             1.00      1 D:x2-y2         4
                        (      33.605 eV)
    95      95       --         1.235 au  C             1.00      1 D:xy            4
                        (      33.605 eV)
    96      96       --         1.235 au  C             1.00      1 D:xz            4
                        (      33.605 eV)
    97      97       --         1.235 au  C             1.00      1 D:yz            4
                        (      33.605 eV)
    98      98       --         4.005 au  C             1.00      1 F:z3            4
                        (     108.969 eV)
    99      99       --         4.005 au  C             1.00      1 F:z             4
                        (     108.969 eV)
   100     100       --         4.005 au  C             1.00      1 F:xyz           4
                        (     108.969 eV)
   101     101       --         4.005 au  C             1.00      1 F:z2x           4
                        (     108.969 eV)
   102     102       --         4.005 au  C             1.00      1 F:z2y           4
                        (     108.969 eV)
   103     103       --         4.005 au  C             1.00      1 F:x             4
                        (     108.969 eV)
   104     104       --         4.005 au  C             1.00      1 F:y             4
                        (     108.969 eV)
   105     105      2.000     -10.064 au  C             1.00      1 S               5
                        (    -273.865 eV)
   106     106      2.000      -0.507 au  C             1.00      2 S               5
                        (     -13.802 eV)
   107     107       --         0.384 au  C             1.00      3 S               5
                        (      10.456 eV)
   108     108       --         5.458 au  C             1.00      4 S               5
                        (     148.511 eV)
   109     109       --        49.970 au  C             1.00      5 S               5
                        (    1359.766 eV)
   110     110      0.667      -0.189 au  C             1.00      1 P:x             5
                        (      -5.135 eV)
   111     111       --         0.168 au  C             1.00      2 P:x             5
                        (       4.559 eV)
   112     112       --         2.056 au  C             1.00      3 P:x             5
                        (      55.959 eV)
   113     113      0.667      -0.189 au  C             1.00      1 P:y             5
                        (      -5.135 eV)
   114     114       --         0.168 au  C             1.00      2 P:y             5
                        (       4.559 eV)
   115     115       --         2.056 au  C             1.00      3 P:y             5
                        (      55.959 eV)
   116     116      0.667      -0.189 au  C             1.00      1 P:z             5
                        (      -5.135 eV)
   117     117       --         0.168 au  C             1.00      2 P:z             5
                        (       4.559 eV)
   118     118       --         2.056 au  C             1.00      3 P:z             5
                        (      55.959 eV)
   119     119       --         1.235 au  C             1.00      1 D:z2            5
                        (      33.605 eV)
   120     120       --         1.235 au  C             1.00      1 D:x2-y2         5
                        (      33.605 eV)
   121     121       --         1.235 au  C             1.00      1 D:xy            5
                        (      33.605 eV)
   122     122       --         1.235 au  C             1.00      1 D:xz            5
                        (      33.605 eV)
   123     123       --         1.235 au  C             1.00      1 D:yz            5
                        (      33.605 eV)
   124     124       --         4.005 au  C             1.00      1 F:z3            5
                        (     108.969 eV)
   125     125       --         4.005 au  C             1.00      1 F:z             5
                        (     108.969 eV)
   126     126       --         4.005 au  C             1.00      1 F:xyz           5
                        (     108.969 eV)
   127     127       --         4.005 au  C             1.00      1 F:z2x           5
                        (     108.969 eV)
   128     128       --         4.005 au  C             1.00      1 F:z2y           5
                        (     108.969 eV)
   129     129       --         4.005 au  C             1.00      1 F:x             5
                        (     108.969 eV)
   130     130       --         4.005 au  C             1.00      1 F:y             5
                        (     108.969 eV)
   131     131      2.000     -10.064 au  C             1.00      1 S               6
                        (    -273.865 eV)
   132     132      2.000      -0.507 au  C             1.00      2 S               6
                        (     -13.802 eV)
   133     133       --         0.384 au  C             1.00      3 S               6
                        (      10.456 eV)
   134     134       --         5.458 au  C             1.00      4 S               6
                        (     148.511 eV)
   135     135       --        49.970 au  C             1.00      5 S               6
                        (    1359.766 eV)
   136     136      0.667      -0.189 au  C             1.00      1 P:x             6
                        (      -5.135 eV)
   137     137       --         0.168 au  C             1.00      2 P:x             6
                        (       4.559 eV)
   138     138       --         2.056 au  C             1.00      3 P:x             6
                        (      55.959 eV)
   139     139      0.667      -0.189 au  C             1.00      1 P:y             6
                        (      -5.135 eV)
   140     140       --         0.168 au  C             1.00      2 P:y             6
                        (       4.559 eV)
   141     141       --         2.056 au  C             1.00      3 P:y             6
                        (      55.959 eV)
   142     142      0.667      -0.189 au  C             1.00      1 P:z             6
                        (      -5.135 eV)
   143     143       --         0.168 au  C             1.00      2 P:z             6
                        (       4.559 eV)
   144     144       --         2.056 au  C             1.00      3 P:z             6
                        (      55.959 eV)
   145     145       --         1.235 au  C             1.00      1 D:z2            6
                        (      33.605 eV)
   146     146       --         1.235 au  C             1.00      1 D:x2-y2         6
                        (      33.605 eV)
   147     147       --         1.235 au  C             1.00      1 D:xy            6
                        (      33.605 eV)
   148     148       --         1.235 au  C             1.00      1 D:xz            6
                        (      33.605 eV)
   149     149       --         1.235 au  C             1.00      1 D:yz            6
                        (      33.605 eV)
   150     150       --         4.005 au  C             1.00      1 F:z3            6
                        (     108.969 eV)
   151     151       --         4.005 au  C             1.00      1 F:z             6
                        (     108.969 eV)
   152     152       --         4.005 au  C             1.00      1 F:xyz           6
                        (     108.969 eV)
   153     153       --         4.005 au  C             1.00      1 F:z2x           6
                        (     108.969 eV)
   154     154       --         4.005 au  C             1.00      1 F:z2y           6
                        (     108.969 eV)
   155     155       --         4.005 au  C             1.00      1 F:x             6
                        (     108.969 eV)
   156     156       --         4.005 au  C             1.00      1 F:y             6
                        (     108.969 eV)
   157     157      2.000     -10.064 au  C             1.00      1 S               7
                        (    -273.865 eV)
   158     158      2.000      -0.507 au  C             1.00      2 S               7
                        (     -13.802 eV)
   159     159       --         0.384 au  C             1.00      3 S               7
                        (      10.456 eV)
   160     160       --         5.458 au  C             1.00      4 S               7
                        (     148.511 eV)
   161     161       --        49.970 au  C             1.00      5 S               7
                        (    1359.766 eV)
   162     162      0.667      -0.189 au  C             1.00      1 P:x             7
                        (      -5.135 eV)
   163     163       --         0.168 au  C             1.00      2 P:x             7
                        (       4.559 eV)
[...]
                                   15.09%     1 S              -6.484  1.00    11 H
                                  -11.29%     2 P:x             4.559  0.00     8 C
                                    9.28%     1 S              -6.484  1.00    18 H
                                    9.14%     2 S               2.096  0.00    13 H
                                   -8.39%     2 P:y             4.559  0.00     9 C
                                   -5.95%     2 P:x             4.559  0.00     3 C
                                   -5.76%     2 P:x             4.559  0.00     2 C
                                   -5.44%     2 P:x             4.559  0.00     1 C
                                    4.94%     2 S               2.096  0.00    17 H
                                    4.79%     1 S              -6.484  1.00    13 H
                                   -4.28%     2 P:z             4.559  0.00     6 C
                                   -4.27%     2 P:x             4.559  0.00     6 C
                                   -4.14%     2 P:z             4.559  0.00     8 C
                                    3.89%     1 S              -6.484  1.00    17 H
                                   -3.76%     2 P:y             4.559  0.00     6 C
                                   -3.11%     2 P:z             4.559  0.00     1 C
                                    2.89%     2 S               2.096  0.00    15 H
                                   -2.86%     2 P:x             4.559  0.00     7 C
                                   -2.37%     2 P:y             4.559  0.00     3 C
                                    2.18%     1 S              -6.484  1.00    15 H
                                   -1.99%     2 P:z             4.559  0.00     2 C
                                   -1.87%     1 P:x            -5.135  0.67     2 C
                                   -1.67%     3 S              10.456  0.00     6 C
                                   -1.53%     1 P:y            -5.135  0.67     9 C
                                   -1.36%     2 P:z             4.559  0.00     3 C
                                   -1.33%     2 P:y             4.559  0.00     8 C
                                    1.31%     2 P:y             4.559  0.00     4 C
       0.922  0.00    43 A         24.19%     1 S              -6.484  1.00    15 H
                                   23.21%     2 S               2.096  0.00    15 H
                                   19.65%     2 S               2.096  0.00    11 H
                                  -18.16%     2 P:y             4.559  0.00     7 C
                                   16.82%     2 S               2.096  0.00    13 H
                                   11.37%     1 S              -6.484  1.00    11 H
                                    9.89%     2 S               2.096  0.00    17 H
                                    9.39%     1 S              -6.484  1.00    18 H
                                    9.03%     1 S              -6.484  1.00    13 H
                                    8.91%     1 S              -6.484  1.00    17 H
                                   -7.06%     2 P:y             4.559  0.00     1 C
                                    5.83%     2 S               2.096  0.00    14 H
                                    5.68%     1 S              -6.484  1.00    14 H
                                   -5.44%     2 P:x             4.559  0.00     7 C
                                    5.20%     1 S              -6.484  1.00    12 H
                                   -5.00%     2 P:x             4.559  0.00     5 C
                                    4.17%     2 S               2.096  0.00    18 H
                                   -4.15%     2 P:x             4.559  0.00     3 C
                                   -3.60%     2 P:y             4.559  0.00     4 C
                                   -3.21%     2 P:x             4.559  0.00     6 C
                                   -3.01%     2 P:y             4.559  0.00     2 C
                                    2.96%     2 S               2.096  0.00    12 H
                                    2.76%     2 S               2.096  0.00    16 H
                                    2.49%     1 S              -6.484  1.00    16 H
                                   -2.33%     2 P:z             4.559  0.00     5 C
                                   -2.23%     3 S              10.456  0.00     3 C
                                   -2.05%     2 P:z             4.559  0.00     6 C
                                    2.01%     3 S              41.380  0.00    15 H
                                   -1.97%     1 P:y            -5.135  0.67     4 C
                                   -1.71%     2 P:z             4.559  0.00     3 C
                                    1.70%     2 S             -13.802  2.00     7 C
                                   -1.70%     2 P:y             4.559  0.00     9 C
                                   -1.64%     3 S              10.456  0.00     7 C
                                    1.54%     1 P:y            -5.135  0.67     9 C
                                   -1.51%     3 S              10.456  0.00     9 C
                                   -1.48%     2 P:z             4.559  0.00     2 C
                                   -1.38%     1 P:y            -5.135  0.67     1 C
                                    1.32%     2 P:y             4.559  0.00     6 C
                                   -1.26%     2 P:z             4.559  0.00     9 C
                                   -1.21%     3 S              10.456  0.00     6 C
                                    1.18%     1 P:y            -5.135  0.67     3 C
                                   -1.09%     2 P:z             4.559  0.00     1 C
                                   -1.06%     2 P:z             4.559  0.00     8 C
                                   -1.04%     1 P:y            -5.135  0.67     7 C
       0.963  0.00    44 A         20.47%     1 P:z            -5.135  0.67     2 C
                                   15.09%     1 P:z            -5.135  0.67     3 C
                                   12.87%     1 P:z            -5.135  0.67     1 C
                                   10.40%     1 P:x            -5.135  0.67     2 C
                                    7.69%     1 P:x            -5.135  0.67     3 C
                                    6.61%     1 P:x            -5.135  0.67     1 C
                                    6.55%     1 P:z            -5.135  0.67     7 C
                                    5.68%     1 P:z            -5.135  0.67     8 C
                                   -4.44%     2 P:z             4.559  0.00     2 C
                                    4.35%     1 P:z            -8.949  1.33    10 O
                                    3.99%     1 P:z            -5.135  0.67     6 C
                                    3.32%     1 P:x            -5.135  0.67     7 C
                                    2.89%     1 P:x            -5.135  0.67     8 C
                                   -2.50%     2 P:z             4.559  0.00     1 C
                                   -2.20%     2 P:x             4.559  0.00     2 C
                                    2.18%     1 P:x            -8.949  1.33    10 O
                                   -2.10%     2 P:z             4.559  0.00     3 C
                                    2.06%     1 P:x            -5.135  0.67     6 C
                                    1.86%     1 P:y            -5.135  0.67     2 C
                                    1.53%     1 P:y            -5.135  0.67     3 C
                                   -1.46%     2 P:z             4.559  0.00     7 C
                                   -1.31%     2 P:x             4.559  0.00     1 C
                                    1.20%     1 P:z            -5.135  0.67     4 C
                                    1.11%     1 P:z            -5.135  0.67     9 C
                                    1.10%     1 P:y            -5.135  0.67     1 C
                                   -1.08%     2 P:x             4.559  0.00     3 C
                                   -1.04%     2 P:z             9.557  0.00    10 O
       1.499  0.00    45 A         20.96%     1 S              -6.484  1.00    16 H
                                   19.51%     1 S              -6.484  1.00    12 H
                                   16.06%     2 S               2.096  0.00    12 H
                                   15.84%     1 S              -6.484  1.00    17 H
                                   14.87%     1 S              -6.484  1.00    11 H
                                   13.91%     1 S              -6.484  1.00    15 H
                                   13.65%     2 S               2.096  0.00    16 H
                                  -11.26%     2 P:x             4.559  0.00     8 C
                                  -10.22%     2 P:y             4.559  0.00     7 C
                                   -9.41%     2 P:y             4.559  0.00     9 C
                                   -9.17%     2 P:y             4.559  0.00     2 C
                                    8.71%     2 S               2.096  0.00    17 H
                                    7.14%     2 S               2.096  0.00    15 H
                                    6.52%     2 S               2.096  0.00    11 H
                                    6.26%     2 S               2.096  0.00    13 H
                                   -5.74%     2 P:x             4.559  0.00     3 C
                                   -4.68%     2 P:z             4.559  0.00     8 C
                                    3.81%     1 S              -6.484  1.00    13 H
                                   -2.45%     2 P:z             4.559  0.00     9 C
                                    2.42%     3 S              41.380  0.00    16 H
                                   -2.41%     3 S              10.456  0.00     2 C
                                    2.25%     1 S              -6.484  1.00    14 H
                                   -2.16%     2 P:y             4.559  0.00     3 C
                                    2.09%     2 S             -13.802  2.00     2 C
                                    1.99%     2 S             -13.802  2.00     3 C
                                    1.86%     3 S              41.380  0.00    12 H
                                   -1.75%     2 P:x             4.559  0.00     1 C
                                   -1.73%     1 P:y            -5.135  0.67     7 C
                                    1.70%     3 S              41.380  0.00    17 H
                                    1.63%     2 S             -13.802  2.00     8 C
                                   -1.58%     2 P:x             4.559  0.00     5 C
                                   -1.55%     1 P:y            -5.135  0.67     9 C
                                    1.50%     3 S              41.380  0.00    15 H
                                    1.48%     1 P:x            -5.135  0.67     9 C
                                   -1.45%     2 P:z             4.559  0.00     3 C
                                    1.40%     2 S               2.096  0.00    14 H
                                    1.38%     1 S              -6.484  1.00    18 H
                                    1.36%     1 P:x            -5.135  0.67     7 C
                                   -1.29%     3 S              10.456  0.00     3 C
                                   -1.22%     1 P:x            -5.135  0.67     3 C
                                    1.22%     2 P:y             4.559  0.00     6 C
                                   -1.18%     3 S              10.456  0.00     5 C
                                    1.13%     3 S              41.380  0.00    11 H
                                    1.09%     1 P:y            -5.135  0.67     6 C
                                   -1.09%     2 P:z             4.559  0.00     1 C
                                   -1.03%     2 P:z             4.559  0.00     2 C
                                   -1.00%     2 P:x             4.559  0.00     7 C
       2.103  0.00    46 A         74.47%     2 S               2.096  0.00    13 H
                                   42.81%     1 S              -6.484  1.00    13 H
                                  -26.17%     2 P:x             4.559  0.00     5 C
                                   20.19%     1 S              -6.484  1.00    14 H
                                  -17.72%     2 P:y             4.559  0.00     6 C
                                  -10.81%     2 P:y             4.559  0.00     2 C
                                   -9.71%     2 P:z             4.559  0.00     5 C
                                    6.41%     2 S               2.096  0.00    18 H
                                    5.29%     1 S              -6.484  1.00    12 H
                                    5.22%     1 S              -6.484  1.00    18 H
                                   -5.19%     3 S              10.456  0.00     1 C
                                   -3.79%     1 P:y            -5.135  0.67     6 C
                                    3.61%     2 P:y             4.559  0.00     3 C
                                    3.57%     1 S              -6.484  1.00    17 H
                                    3.35%     3 S              41.380  0.00    14 H
                                    3.33%     2 P:x             4.559  0.00     1 C
                                    3.14%     2 P:x             4.559  0.00     6 C
                                    3.08%     2 P:y             4.559  0.00     7 C
                                   -3.01%     2 P:y             4.559  0.00     1 C
                                   -2.88%     2 P:z             4.559  0.00     6 C
                                   -2.63%     3 S              21.890  0.00    10 O
                                   -2.63%     1 P:x            -5.135  0.67     5 C
                                   -2.42%     2 S               2.096  0.00    12 H
                                    2.33%     2 P:z             4.559  0.00     1 C
                                    2.25%     1 P:x            -5.135  0.67     6 C
                                   -2.19%     2 P:z             4.559  0.00     4 C
                                    2.12%     1 S              -6.484  1.00    15 H
                                   -2.09%     2 P:y             9.557  0.00    10 O
                                    2.01%     2 S               2.096  0.00    15 H
                                   -1.88%     3 S              10.456  0.00     4 C
                                    1.82%     3 S              41.380  0.00    12 H
                                   -1.77%     1 P:y            -5.135  0.67     2 C
                                   -1.74%     2 P:x             4.559  0.00     2 C
                                    1.69%     1 P:y            -5.135  0.67     3 C
                                   -1.64%     2 S             -13.802  2.00     4 C
                                    1.55%     1 P:y            -5.135  0.67     7 C
                                   -1.50%     2 S             -13.802  2.00     3 C
                                    1.30%     1 P:x            -5.135  0.67     1 C
                                   -1.27%     3 S              10.456  0.00     3 C
                                    1.18%     2 S             -13.802  2.00     9 C
                                    1.17%     1 P:y            -5.135  0.67     4 C
                                   -1.02%     1 P:z            -5.135  0.67     4 C

 Energy gradients wrt nuclear displacements
 ==========================================

     Atom      Cartesian (a.u./angstrom)
                 X         Y         Z
 ----------------------------------------
     1 C    -0.000174 -0.000028  0.000138
     2 C     0.000085  0.000019  0.000033
     3 C    -0.000415 -0.000721  0.000592
     4 O    -0.000005 -0.000435  0.000197
     5 H    -0.000192 -0.000490  0.000383
     6 H    -0.000527 -0.000198  0.000425
     7 C     0.000068  0.000108  0.000036
     8 C     0.000140  0.000025  0.000011
     9 C     0.000230 -0.000101 -0.000287
    10 C     0.000364  0.000233 -0.000244
    11 C     0.000086  0.000282 -0.000374
    12 C    -0.000179  0.000352 -0.000101
    13 H     0.000218 -0.000310 -0.000025
    14 H     0.000444 -0.000066 -0.000269
    15 H     0.000400  0.000327 -0.000411
    16 H     0.000076  0.000556 -0.000273
    17 H    -0.000225  0.000364 -0.000024
    18 H    -0.000396  0.000081  0.000195
 ----------------------------------------



 =======================================================================
 Electrostatic potential at the Nuclei due to electrons and other nuclei
 =======================================================================
  
         Atom                  Potential
         ----                  ---------
     1)   C                  14.75542832
     2)   C                  14.77613536
     3)   C                  14.71379455
     4)   O                  22.40620905
     5)   H                   1.11016808
     6)   H                   1.10194113
     7)   C                  14.76215266
     8)   C                  14.78592227
     9)   C                  14.78086793
    10)   C                  14.77466567
    11)   C                  14.77723038
    12)   C                  14.77350341
    13)   H                   1.11363420
    14)   H                   1.10385546
    15)   H                   1.09805888
    16)   H                   1.09794614
    17)   H                   1.09541009
    18)   H                   1.09533303
 Mulliken charges used for AMS results%charges...


    =====================
     CALCULATION RESULTS
    =====================

Energy (hartree)            -4.10835648

Gradients (hartree/bohr)
  Index   Atom            d/dx            d/dy            d/dz
      1      C   -0.0000919155   -0.0000149886    0.0000727921
      2      C    0.0000450519    0.0000100084    0.0000172031
      3      C   -0.0002196456   -0.0003813462    0.0003131601
      4      O   -0.0000028167   -0.0002302869    0.0001040889
      5      H   -0.0001014724   -0.0002591728    0.0002028034
      6      H   -0.0002788467   -0.0001047726    0.0002247554
      7      C    0.0000357837    0.0000571337    0.0000188070
      8      C    0.0000740610    0.0000134370    0.0000057464
      9      C    0.0001217186   -0.0000532173   -0.0001519746
     10      C    0.0001928354    0.0001234744   -0.0001292278
     11      C    0.0000457488    0.0001493499   -0.0001977107
     12      C   -0.0000945986    0.0001861162   -0.0000536491
     13      H    0.0001154942   -0.0001641082   -0.0000131109
     14      H    0.0002348830   -0.0000347362   -0.0001423053
     15      H    0.0002118690    0.0001731411   -0.0002173804
     16      H    0.0000400846    0.0002943205   -0.0001443273
     17      H   -0.0001189223    0.0001928051   -0.0000129020
     18      H   -0.0002093121    0.0000428425    0.0001032318


--------------
Atomic charges
--------------
  Index   Atom    Charge
      1      C    0.3252
      2      C    0.1505
      3      C    0.6417
      4      O   -0.5143
      5      H   -0.2746
      6      H   -0.2101
      7      C   -0.0204
      8      C    0.2496
      9      C    0.2563
     10      C    0.2535
     11      C    0.2371
     12      C    0.2907
     13      H   -0.1595
     14      H   -0.2617
     15      H   -0.2426
     16      H   -0.2495
     17      H   -0.2514
     18      H   -0.2205


Dipole moment vector    (Debye):    -2.10988243   -0.73740920    1.75205062
              magnitude (Debye):     2.83990451


AMS application finished. Exiting.
NORMAL TERMINATION
     Total cpu time:     390.44
  Total system time:      12.00
 Total elapsed time:     432.84
