

 Parallel Execution: Process Information
 ==============================================================================
 Rank   Node Name                              NodeID   MyNodeRank  NodeMaster
    0   node115                                   0          0          0
    1   node115                                   0          1         -1
    2   node115                                   0          2         -1
    3   node115                                   0          3         -1
 ==============================================================================


May use up to 122928MB of RAM as shared memory on node 0

 *******************************************************************************
 *                                                                             *
 *  --------------------------------                                           *
 *   Amsterdam Modeling Suite (AMS)              2021.102                      *
 *  --------------------------------                                           *
 *                                               r95042 2021-06-07             *
 *                                                                             *
 *                                                                             *
 *                              =================                              *
 *                              |               |                              *
 *                              |     A M S     |                              *
 *                              |               |                              *
 *                              =================                              *
 *                                                                             *
 *                                                                             *
 *   Online information and documentation:  https://www.scm.com/support/       *
 *   E-mail:  support@scm.com   info@scm.com                                   *
 *                                                                             *
 *   Scientific publications using AMS results must be properly referenced     *
 *   See the User Manuals (or the web site) for recommended citations          *
 *   The terms and conditions of the End User License Agreement apply to       *
 *   the use of AMS, https://www.scm.com/license-terms/                        *
 *                                                                             *
 **********************  x86_64_linux_intel / intelmpi  ************************
 
 Licensed to: VU/FEW (+ SARA) / ALGEMEEN / Amsterdam / THE NETHERLANDS
 SCM User ID: u7668
  
 AMS 2021.102  RunTime: Jan23-2022 14:14:59  ShM Nodes: 1  Procs: 4

 AMS jobname: 14.achiral_catalyst.H_H_I2.P2
 AMS jobid  : 1665105791

 Start   directory: /scistor/tc/yhk800/MasterProject/calculations/achiral_catalyst_H_H_I2/14.achiral_catalyst.H_H_I2.P2/
 Results directory: /scistor/tc/yhk800/MasterProject/calculations/achiral_catalyst_H_H_I2/14.achiral_catalyst.H_H_I2.P2/
 Scratch directory: /scratch/3976/amstmp_14.achiral_catalyst.H_H_I2.P2_kid0.1665105791/


 Communication costs MPI_COMM_WORLD:      0.905 usec per message,   0.0061 usec per 8-byte item
 Communication costs for intra-node:      0.020 usec per message,   0.0101 usec per 8-byte item

 RNG seed: -70286096 1156215813 986783212 -1863083479 -1982340914 1128066935 1297674016 1276388045



                      ************************************************************************
                      *  ADF 2021.102  RunTime: Jan23-2022 14:14:59  ShM Nodes: 1  Procs: 4  *
                      ************************************************************************
  
       ***************************
       *  GEOMETRY OPTIMIZATION  *
       ***************************

Optimization Method                    Quasi Newton
Optimization Coordinates               Delocalized Coordinates
Optimize lattice                       F
 
 ------------------------------------------------------
 Convergence criteria (Hartree,Angstrom)
 ------------------------------------------------------
 Maximum gradient               0.001000000000
 Maximum rms gradient           0.000666666667
 Maximum step allowed           0.010000000000
 Maximum rms step allowed       0.006666666667
 Maximum energy change allowe   0.000150000000
 Maximum stress energy allowe   0.000500000000
 
Initial model Hessian                  Automatic Hessian
 
------------------------------------
Quasi-Newton Optimizer Parameters
------------------------------------
Hessian Update Method                  BFGS
Maximum number of steps                  250
First GDIIS cycle                          0
Maximum GDIIS vectors                      0
Trust radius (bohr)                        0.200000
Trust radius varies                        T
Constraints converged at all steps         T
Use projector                              T
 
 Rigid motions settings for: old optimizer
 Atomic rotations (x,y,z):     T T T
 Atomic translations (x,y,z):  T T T
 Tolerance:                   1.000000000000000E-006
 
--------
Geometry
--------
Formula: C4H8I2O
Atoms
  Index Symbol   x (angstrom)   y (angstrom)   z (angstrom)
      1      H     0.83345051    -1.35209109     1.20167740
      2      C    -0.83092072     0.03538951     0.93442801
      3      C     0.35139657    -0.78131674     0.40158875
      4      C     1.39689343     0.07225735    -0.26739819
      5      O     1.30011208     1.25282167    -0.44784372
      6      H    -1.19392452     0.69150371     0.13740680
      7      H     0.00939092    -1.50634328    -0.34451216
      8      H    -0.05768346     0.24518214     2.94899716
      9      C    -0.44138171     0.87842746     2.14736270
     10      H     0.32560687     1.60312788     1.87585802
     11      H    -1.31355949     1.41759590     2.51749654
     12      H    -1.62209815    -0.63358328     1.20166141
     13      H     2.25449427    -0.48063876    -0.58946446
     14      I     1.12240586     4.51122066    -0.93902243
     15      I     0.97329419     7.24531363    -1.35116602
 
Total System Charge             0.00000
 
 
----------------
ADF Engine Input
----------------
 
 NumericalQuality VeryGood
 SCF
 Converge 1.0e-6
 Iterations 99
 End
 SYMMETRY NOSYM
 XC
 GGA OLYP
 End
 basis
 core None
 type TZ2P
 End
 

 Title: *** (NO TITLE) ***

Bad geometry: could not add a dihedral for atom   15
 Using automatic Hessian for delocalized coordinates.
 *** GOStep1 ***

 Energy gradients wrt nuclear displacements
 ==========================================

     Atom      Cartesian (a.u./angstrom)
                 X         Y         Z
 ----------------------------------------
     1 H    -0.004136  0.006685 -0.000806
     2 C    -0.028250 -0.011736  0.002154
     3 C     0.018753 -0.019981 -0.001341
     4 C     0.036114  0.027220 -0.022072
     5 O    -0.004242 -0.045744  0.014169
     6 H     0.003135  0.001538  0.000712
     7 H    -0.003342  0.008199  0.004341
     8 H    -0.000820  0.001143 -0.006525
     9 C     0.005273 -0.000509  0.005129
    10 H    -0.000085 -0.003256 -0.004823
    11 H     0.001857 -0.004509 -0.005692
    12 H     0.025532  0.019563 -0.005940
    13 H    -0.049541  0.023146  0.020033
    14 I     0.000986 -0.025927  0.004381
    15 I    -0.001234  0.024168 -0.003721
 ----------------------------------------
 Mulliken charges used for AMS results%charges...
 
----------------------------------------------------------------------
Geometry Convergence after Step   1       (Hartree/Angstrom,Angstrom)
----------------------------------------------------------------------
current energy                               -2.64686234 Hartree
energy change                      -2.64686234     0.00015000    F
constrained gradient max            0.04954549     0.00100000    F
constrained gradient rms            0.01676708     0.00066667    F
gradient max                        0.04954661
gradient rms                        0.01676708
cart. step max                      0.21145267     0.01000000    F
cart. step rms                      0.09592209     0.00666667    F
 
 
--------
Geometry
--------
Formula: C4H8I2O
Atoms
  Index Symbol   x (angstrom)   y (angstrom)   z (angstrom)
      1      H     0.89575220    -1.31040941     1.12902391
      2      C    -0.83962992     0.00365321     0.99044222
      3      C     0.37201734    -0.71225423     0.37222208
      4      C     1.41079767     0.14441163    -0.32118361
      5      O     1.32872972     1.34272260    -0.52571437
      6      H    -1.26176431     0.67983399     0.24025363
      7      H     0.04123400    -1.42836479    -0.39277157
      8      H    -0.10959168     0.13263979     3.03833815
      9      C    -0.53124189     0.78890046     2.27106283
     10      H     0.17728162     1.59528905     2.08125315
     11      H    -1.44515669     1.23232994     2.67446259
     12      H    -1.59441054    -0.74411163     1.21590220
     13      H     2.27800837    -0.42355892    -0.68473857
     14      I     1.24440189     4.59360079    -1.09886416
     15      I     1.14104887     7.30418428    -1.56261869
 
Total System Charge             0.00000
 
 *** GOStep2 ***

 Energy gradients wrt nuclear displacements
 ==========================================

     Atom      Cartesian (a.u./angstrom)
                 X         Y         Z
 ----------------------------------------
     1 H    -0.003549  0.004846  0.000763
     2 C    -0.014233 -0.008711  0.002801
     3 C     0.006027 -0.012627 -0.005703
     4 C     0.022499 -0.019047 -0.004314
     5 O    -0.002268  0.015325 -0.002842
     6 H     0.002966 -0.000029  0.000263
     7 H    -0.001190  0.004834  0.001721
     8 H    -0.000733  0.000423 -0.002969
     9 C     0.000073  0.003431  0.005605
    10 H    -0.002243 -0.002829 -0.001081
    11 H     0.001332 -0.001008 -0.001418
    12 H     0.008995  0.008599  0.000555
    13 H    -0.017543  0.008210  0.006212
    14 I     0.000597 -0.020742  0.003764
    15 I    -0.000729  0.019324 -0.003358
 ----------------------------------------
 Mulliken charges used for AMS results%charges...

 dE(predicted):    -0.45731E-02, dE(actual):    -0.42323E-02, Trust radius:    0.400000, all in a.u.
 
----------------------------------------------------------------------
Geometry Convergence after Step   2       (Hartree/Angstrom,Angstrom)
----------------------------------------------------------------------
current energy                               -2.65109468 Hartree
energy change                      -0.00423234     0.00015000    F
constrained gradient max            0.02249675     0.00100000    F
constrained gradient rms            0.00842509     0.00066667    F
gradient max                        0.02249649
gradient rms                        0.00842509
cart. step max                      0.03075783     0.01000000    F
cart. step rms                      0.01446143     0.00666667    F
 
 
--------
Geometry
--------
Formula: C4H8I2O
Atoms
  Index Symbol   x (angstrom)   y (angstrom)   z (angstrom)
      1      H     0.92025559    -1.29694396     1.11517312
      2      C    -0.84344659    -0.00258697     0.99677958
      3      C     0.36996044    -0.70294816     0.36987227
      4      C     1.39020825     0.15333876    -0.34840046
      5      O     1.31043756     1.34820502    -0.54643632
      6      H    -1.28927773     0.66485047     0.25116394
      7      H     0.04812118    -1.43705463    -0.38626213
      8      H    -0.10641105     0.13728192     3.04817507
      9      C    -0.53882439     0.78590334     2.27742433
     10      H     0.15872844     1.60612821     2.09359342
     11      H    -1.45714916     1.21740483     2.68828656
     12      H    -1.59178682    -0.77100828     1.22177516
     13      H     2.29901660    -0.40350313    -0.67647463
     14      I     1.26583765     4.60301163    -1.11642739
     15      I     1.17180670     7.29678771    -1.56117271
 
Total System Charge             0.00000
 
 *** GOStep3 ***

 Energy gradients wrt nuclear displacements
 ==========================================

     Atom      Cartesian (a.u./angstrom)
                 X         Y         Z
 ----------------------------------------
     1 H    -0.001365  0.001022  0.000988
     2 C    -0.005087 -0.001265  0.000433
     3 C     0.003275 -0.003740  0.002223
     4 C    -0.001615 -0.006376 -0.014045
     5 O     0.002758  0.004428  0.003198
     6 H     0.001028  0.000030 -0.000147
     7 H     0.000622  0.002455 -0.000585
     8 H    -0.000051 -0.000024 -0.000355
     9 C     0.000281  0.002416  0.002286
    10 H    -0.000753 -0.000524  0.000260
    11 H     0.000250 -0.000136  0.000001
    12 H     0.000997  0.000127  0.000793
    13 H    -0.000233  0.003042  0.004550
    14 I     0.000406 -0.014794  0.002644
    15 I    -0.000513  0.013339 -0.002245
 ----------------------------------------
 Mulliken charges used for AMS results%charges...

 dE(predicted):    -0.65052E-03, dE(actual):    -0.66364E-03, Trust radius:    0.400000, all in a.u.
 
----------------------------------------------------------------------
Geometry Convergence after Step   3       (Hartree/Angstrom,Angstrom)
----------------------------------------------------------------------
current energy                               -2.65175831 Hartree
energy change                      -0.00066364     0.00015000    F
constrained gradient max            0.01480653     0.00100000    F
constrained gradient rms            0.00421677     0.00066667    F
gradient max                        0.01480658
gradient rms                        0.00421677
cart. step max                      0.13054309     0.01000000    F
cart. step rms                      0.04879741     0.00666667    F
 
 
--------
Geometry
--------
Formula: C4H8I2O
Atoms
  Index Symbol   x (angstrom)   y (angstrom)   z (angstrom)
      1      H     0.91031692    -1.31638126     1.08113749
      2      C    -0.84006766     0.02263762     0.99811326
      3      C     0.36979650    -0.66937794     0.36811644
      4      C     1.41471576     0.19939639    -0.28969590
      5      O     1.31959192     1.38029138    -0.51761791
      6      H    -1.26251109     0.73885818     0.28293726
      7      H     0.06120143    -1.37493183    -0.42613993
      8      H    -0.16043938     0.02602602     3.08103284
      9      C    -0.55007602     0.72665986     2.32961660
     10      H     0.17663456     1.53927416     2.22180056
     11      H    -1.46836148     1.16203588     2.74202575
     12      H    -1.61917110    -0.74967281     1.14984790
     13      H     2.30102297    -0.37455502    -0.70803721
     14      I     1.28469759     4.61986501    -1.19435153
     15      I     1.17012572     7.26874112    -1.69171580
 
Total System Charge             0.00000
 
 *** GOStep4 ***

 Energy gradients wrt nuclear displacements
 ==========================================

     Atom      Cartesian (a.u./angstrom)
                 X         Y         Z
 ----------------------------------------
     1 H     0.004462 -0.002146 -0.001260
     2 C     0.006688  0.008912 -0.002994
     3 C    -0.007664  0.005269 -0.003818
     4 C    -0.004515  0.024168  0.025881
     5 O    -0.000004 -0.018319 -0.005349
     6 H    -0.002250  0.000299 -0.000461
     7 H    -0.000375 -0.004113 -0.001116
     8 H     0.000703 -0.000725  0.002887
     9 C     0.001745  0.000320 -0.002867
    10 H     0.001212  0.002125  0.001948
    11 H    -0.001381  0.000444  0.001366
    12 H    -0.007813 -0.009073 -0.000672
    13 H     0.009262 -0.005683 -0.013897
    14 I     0.000089 -0.003317  0.000642
    15 I    -0.000160  0.001840 -0.000291
 ----------------------------------------
 Mulliken charges used for AMS results%charges...

 dE(predicted):    -0.77099E-03, dE(actual):     0.33959E-03, Trust radius:    0.062764, all in a.u.
 
----------------------------------------------------------------------
Geometry Convergence after Step   4       (Hartree/Angstrom,Angstrom)
----------------------------------------------------------------------
current energy                               -2.65141872 Hartree
energy change                       0.00033959     0.00015000    F
constrained gradient max            0.02588835     0.00100000    F
constrained gradient rms            0.00734376     0.00066667    F
gradient max                        0.02588836
gradient rms                        0.00734376
cart. step max                      0.02924245     0.01000000    F
cart. step rms                      0.01032611     0.00666667    F
 
 
--------
Geometry
--------
Formula: C4H8I2O
Atoms
  Index Symbol   x (angstrom)   y (angstrom)   z (angstrom)
      1      H     0.90740302    -1.31492802     1.09279496
      2      C    -0.83892680     0.01778339     0.99655295
      3      C     0.36989896    -0.67916651     0.36992004
      4      C     1.40762436     0.18922188    -0.30074672
      5      O     1.31237248     1.37746829    -0.52319011
      6      H    -1.26065583     0.72615747     0.27422570
      7      H     0.05928780    -1.39047458    -0.41560933
      8      H    -0.15346142     0.04283690     3.07260149
      9      C    -0.54523891     0.73617771     2.31762124
     10      H     0.18171528     1.54436148     2.19255811
     11      H    -1.46099582     1.17742049     2.72660107
     12      H    -1.61428045    -0.74630004     1.16229200
     13      H     2.29707414    -0.38025686    -0.69263975
     14      I     1.27915059     4.62159573    -1.18016910
     15      I     1.16650925     7.27696944    -1.66574274
 
Total System Charge             0.00000
 
 *** GOStep5 ***

 Energy gradients wrt nuclear displacements
 ==========================================

     Atom      Cartesian (a.u./angstrom)
                 X         Y         Z
 ----------------------------------------
     1 H     0.001886 -0.001285 -0.000785
     2 C     0.003351  0.004844 -0.001224
     3 C    -0.004555  0.001112 -0.002634
     4 C    -0.000686  0.005423  0.016546
     5 O    -0.000754  0.000103 -0.005443
     6 H    -0.001340 -0.000206 -0.000152
     7 H     0.000273 -0.001962 -0.000037
     8 H     0.000171 -0.000220  0.001261
     9 C     0.000955  0.000008 -0.001314
    10 H     0.000382  0.000871  0.000806
    11 H    -0.000594  0.000022  0.000668
    12 H    -0.003127 -0.003775 -0.000492
    13 H     0.004113 -0.003492 -0.007554
    14 I     0.000147 -0.004754  0.000926
    15 I    -0.000222  0.003313 -0.000573
 ----------------------------------------
 Mulliken charges used for AMS results%charges...

 dE(predicted):    -0.56487E-03, dE(actual):    -0.59157E-03, Trust radius:    0.125528, all in a.u.
 
----------------------------------------------------------------------
Geometry Convergence after Step   5       (Hartree/Angstrom,Angstrom)
----------------------------------------------------------------------
current energy                               -2.65201029 Hartree
energy change                      -0.00059157     0.00015000    F
constrained gradient max            0.01655299     0.00100000    F
constrained gradient rms            0.00353562     0.00066667    F
gradient max                        0.01655293
gradient rms                        0.00353562
cart. step max                      0.03184139     0.01000000    F
cart. step rms                      0.01212807     0.00666667    F
 
 
--------
Geometry
--------
Formula: C4H8I2O
Atoms
  Index Symbol   x (angstrom)   y (angstrom)   z (angstrom)
      1      H     0.91314762    -1.30386997     1.10229951
      2      C    -0.83946416     0.00972344     0.99634907
      3      C     0.36996020    -0.68617548     0.37007632
      4      C     1.39439540     0.18109517    -0.32174411
      5      O     1.29632321     1.37069379    -0.53411473
      6      H    -1.26405912     0.70896067     0.26752635
      7      H     0.05602763    -1.40890267    -0.40200038
      8      H    -0.14562993     0.06172992     3.06506372
      9      C    -0.54148856     0.74569924     2.30518156
     10      H     0.18506457     1.54989670     2.16160281
     11      H    -1.45456463     1.19345252     2.71100554
     12      H    -1.60942540    -0.74924265     1.17868088
     13      H     2.29933120    -0.37584904    -0.67069324
     14      I     1.27715141     4.62233249    -1.16826215
     15      I     1.17070719     7.27932262    -1.63390135
 
Total System Charge             0.00000
 
 *** GOStep6 ***

 Energy gradients wrt nuclear displacements
 ==========================================

     Atom      Cartesian (a.u./angstrom)
                 X         Y         Z
 ----------------------------------------
     1 H    -0.000270 -0.000342 -0.000164
     2 C     0.000596  0.000258  0.000601
     3 C    -0.000500  0.001063  0.000275
     4 C    -0.000792  0.000676 -0.000808
     5 O     0.000623 -0.000044 -0.000056
     6 H    -0.000184 -0.000444  0.000034
     7 H     0.000646  0.000055  0.000092
     8 H    -0.000130  0.000061 -0.000073
     9 C     0.000003 -0.000266 -0.000256
    10 H    -0.000216 -0.000133 -0.000066
    11 H    -0.000001 -0.000143  0.000111
    12 H     0.000170  0.000415 -0.000114
    13 H     0.000142  0.000259  0.000065
    14 I     0.000112 -0.003957  0.000791
    15 I    -0.000199  0.002542 -0.000432
 ----------------------------------------
 Mulliken charges used for AMS results%charges...

 dE(predicted):    -0.26657E-03, dE(actual):    -0.26519E-03, Trust radius:    0.125528, all in a.u.
 
----------------------------------------------------------------------
Geometry Convergence after Step   6       (Hartree/Angstrom,Angstrom)
----------------------------------------------------------------------
current energy                               -2.65227548 Hartree
energy change                      -0.00026519     0.00015000    F
constrained gradient max            0.00396974     0.00100000    F
constrained gradient rms            0.00079994     0.00066667    F
gradient max                        0.00396980
gradient rms                        0.00079994
cart. step max                      0.00732298     0.01000000    T
cart. step rms                      0.00228064     0.00666667    T
 
 
--------
Geometry
--------
Formula: C4H8I2O
Atoms
  Index Symbol   x (angstrom)   y (angstrom)   z (angstrom)
      1      H     0.91556097    -1.30336684     1.10296471
      2      C    -0.84010076     0.00706607     0.99643828
      3      C     0.36993860    -0.68780158     0.37060678
      4      C     1.39136156     0.18334609    -0.32079113
      5      O     1.28900022     1.37355904    -0.53282252
      6      H    -1.26435346     0.70675153     0.26763955
      7      H     0.05611073    -1.41149248    -0.40097327
      8      H    -0.14647313     0.06058792     3.06553520
      9      C    -0.54093605     0.74426032     2.30449730
     10      H     0.18762983     1.54676423     2.16022402
     11      H    -1.45305802     1.19491308     2.70937973
     12      H    -1.61019484    -0.75227550     1.17915147
     13      H     2.29905055    -0.37077494    -0.66865279
     14      I     1.27847852     4.62692418    -1.17087670
     15      I     1.17546192     7.28040564    -1.63525081
 
Total System Charge             0.00000
 
 *** GOStep7 ***

 Energy gradients wrt nuclear displacements
 ==========================================

     Atom      Cartesian (a.u./angstrom)
                 X         Y         Z
 ----------------------------------------
     1 H    -0.000077 -0.000350 -0.000069
     2 C     0.000833  0.000245  0.000223
     3 C    -0.000248  0.000786  0.000555
     4 C    -0.001227 -0.001078 -0.000141
     5 O     0.000377  0.002680 -0.000445
     6 H    -0.000165 -0.000164 -0.000011
     7 H     0.000260 -0.000167 -0.000064
     8 H    -0.000010  0.000014  0.000001
     9 C     0.000025 -0.000268 -0.000426
    10 H    -0.000022  0.000031  0.000007
    11 H    -0.000038 -0.000063  0.000078
    12 H    -0.000160 -0.000014 -0.000107
    13 H     0.000545 -0.000261  0.000046
    14 I     0.000054 -0.002567  0.000542
    15 I    -0.000147  0.001175 -0.000189
 ----------------------------------------
 Mulliken charges used for AMS results%charges...

 dE(predicted):    -0.10862E-04, dE(actual):    -0.18296E-04, Trust radius:    0.125528, all in a.u.
 
----------------------------------------------------------------------
Geometry Convergence after Step   7       (Hartree/Angstrom,Angstrom)
----------------------------------------------------------------------
current energy                               -2.65229378 Hartree
energy change                      -0.00001830     0.00015000    T
constrained gradient max            0.00266964     0.00100000    F
constrained gradient rms            0.00068753     0.00066667    F
gradient max                        0.00266958
gradient rms                        0.00068753
cart. step max                      0.01584939     0.01000000    F
cart. step rms                      0.00561058     0.00666667    T
 
 
--------
Geometry
--------
Formula: C4H8I2O
Atoms
  Index Symbol   x (angstrom)   y (angstrom)   z (angstrom)
      1      H     0.92192606    -1.29961941     1.10308068
      2      C    -0.84141313     0.00102026     0.99854023
      3      C     0.37113187    -0.68849496     0.37095974
      4      C     1.38634176     0.19001480    -0.32066424
      5      O     1.27479676     1.37945079    -0.53219404
      6      H    -1.26713364     0.70115861     0.27089212
      7      H     0.05826559    -1.41330003    -0.40004309
      8      H    -0.14894384     0.05537854     3.06844148
      9      C    -0.54287308     0.73884011     2.30684941
     10      H     0.18647835     1.54074055     2.16248421
     11      H    -1.45482471     1.19074539     2.71065211
     12      H    -1.60904221    -0.76082399     1.18157246
     13      H     2.29715988    -0.35771253    -0.66968719
     14      I     1.28429566     4.63625268    -1.17962020
     15      I     1.19131132     7.28521596    -1.64419388
 
Total System Charge             0.00000
 
 *** GOStep8 ***

 Energy gradients wrt nuclear displacements
 ==========================================

     Atom      Cartesian (a.u./angstrom)
                 X         Y         Z
 ----------------------------------------
     1 H     0.000080 -0.000049  0.000038
     2 C     0.000492 -0.000178 -0.000087
     3 C     0.000157  0.000294  0.000242
     4 C    -0.000776 -0.000808  0.000269
     5 O     0.000226  0.002556 -0.000483
     6 H     0.000019  0.000139 -0.000047
     7 H    -0.000202 -0.000184 -0.000165
     8 H     0.000095 -0.000028  0.000016
     9 C    -0.000108 -0.000096 -0.000246
    10 H     0.000083  0.000069  0.000022
    11 H    -0.000007  0.000030  0.000016
    12 H    -0.000216 -0.000157  0.000018
    13 H     0.000264 -0.000263  0.000064
    14 I    -0.000020 -0.000752  0.000219
    15 I    -0.000087 -0.000572  0.000123
 ----------------------------------------
 Mulliken charges used for AMS results%charges...

 dE(predicted):    -0.10438E-04, dE(actual):    -0.20170E-04, Trust radius:    0.125528, all in a.u.
 
----------------------------------------------------------------------
Geometry Convergence after Step   8       (Hartree/Angstrom,Angstrom)
----------------------------------------------------------------------
current energy                               -2.65231395 Hartree
energy change                      -0.00002017     0.00015000    T
constrained gradient max            0.00254606     0.00100000    F
constrained gradient rms            0.00047160     0.00066667    T
gradient max                        0.00254598
gradient rms                        0.00047160
cart. step max                      0.02720437     0.01000000    F
cart. step rms                      0.00913947     0.00666667    F
 
 
--------
Geometry
--------
Formula: C4H8I2O
Atoms
  Index Symbol   x (angstrom)   y (angstrom)   z (angstrom)
      1      H     0.93159522    -1.29321335     1.10271755
      2      C    -0.84349291    -0.00804990     1.00274158
      3      C     0.37330910    -0.68789488     0.37161783
      4      C     1.37916416     0.20019868    -0.32215554
      5      O     1.25552997     1.38829800    -0.53300190
      6      H    -1.27486766     0.69054615     0.27694659
      7      H     0.06349319    -1.41470549    -0.39847845
      8      H    -0.15010997     0.04850634     3.07265038
      9      C    -0.54723925     0.73064944     2.31154169
     10      H     0.17890181     1.53541306     2.16686133
     11      H    -1.46074678     1.17900555     2.71563859
     12      H    -1.60494896    -0.77557376     1.18672311
     13      H     2.29324874    -0.33884224    -0.67453453
     14      I     1.29512429     4.64928093    -1.19269028
     15      I     1.21851569     7.29524823    -1.65950814
 
Total System Charge             0.00000
 
 *** GOStep9 ***

 Energy gradients wrt nuclear displacements
 ==========================================

     Atom      Cartesian (a.u./angstrom)
                 X         Y         Z
 ----------------------------------------
     1 H     0.000134  0.000226  0.000077
     2 C    -0.000184 -0.000457 -0.000263
     3 C     0.000393 -0.000343 -0.000145
     4 C    -0.000048 -0.000200  0.000386
     5 O     0.000231  0.001702 -0.000469
     6 H     0.000141  0.000275 -0.000043
     7 H    -0.000407 -0.000025 -0.000110
     8 H     0.000120 -0.000040  0.000010
     9 C    -0.000142  0.000093  0.000089
    10 H     0.000099  0.000042  0.000021
    11 H     0.000039  0.000055 -0.000056
    12 H    -0.000039 -0.000095  0.000088
    13 H    -0.000212 -0.000017  0.000089
    14 I    -0.000063  0.000501 -0.000003
    15 I    -0.000063 -0.001717  0.000329
 ----------------------------------------
 Mulliken charges used for AMS results%charges...

 dE(predicted):    -0.73619E-05, dE(actual):    -0.19899E-04, Trust radius:    0.125528, all in a.u.
 
----------------------------------------------------------------------
Geometry Convergence after Step   9       (Hartree/Angstrom,Angstrom)
----------------------------------------------------------------------
current energy                               -2.65233385 Hartree
energy change                      -0.00001990     0.00015000    T
constrained gradient max            0.00173058     0.00100000    F
constrained gradient rms            0.00041557     0.00066667    T
gradient max                        0.00173072
gradient rms                        0.00041557
cart. step max                      0.08036450     0.01000000    F
cart. step rms                      0.02658552     0.00666667    F
 
 
--------
Geometry
--------
Formula: C4H8I2O
Atoms
  Index Symbol   x (angstrom)   y (angstrom)   z (angstrom)
      1      H     0.95907529    -1.27402626     1.10131516
      2      C    -0.84909450    -0.03423737     1.01528269
      3      C     0.37958506    -0.68488303     0.37383540
      4      C     1.35748029     0.22917787    -0.32772943
      5      O     1.20072730     1.41332618    -0.53609203
      6      H    -1.30027446     0.65656505     0.29421534
      7      H     0.08049985    -1.41851074    -0.39339107
      8      H    -0.14876525     0.03270489     3.08313388
      9      C    -0.56019689     0.70868137     2.32419069
     10      H     0.15170598     1.52558114     2.17694972
     11      H    -1.47965685     1.14144498     2.73153755
     12      H    -1.59061537    -0.81951967     1.20330947
     13      H     2.28041141    -0.28570264    -0.69009323
     14      I     1.32771460     4.68356135    -1.22757622
     15      I     1.29888019     7.32470364    -1.70181810
 
Total System Charge             0.00000
 
 *** GOStep10 ***

 Energy gradients wrt nuclear displacements
 ==========================================

     Atom      Cartesian (a.u./angstrom)
                 X         Y         Z
 ----------------------------------------
     1 H     0.000146  0.000661  0.000108
     2 C    -0.001561 -0.000737 -0.000505
     3 C     0.000720 -0.001641 -0.000786
     4 C     0.001267  0.000899  0.000360
     5 O     0.000377  0.000009 -0.000430
     6 H     0.000301  0.000401  0.000008
     7 H    -0.000586  0.000342  0.000083
     8 H     0.000097 -0.000049 -0.000013
     9 C    -0.000091  0.000441  0.000759
    10 H     0.000092 -0.000026  0.000007
    11 H     0.000099  0.000070 -0.000181
    12 H     0.000373  0.000074  0.000159
    13 H    -0.001071  0.000463  0.000144
    14 I    -0.000077  0.002488 -0.000352
    15 I    -0.000087 -0.003393  0.000640
 ----------------------------------------
 Mulliken charges used for AMS results%charges...

 dE(predicted):    -0.16734E-04, dE(actual):    -0.49177E-04, Trust radius:    0.125528, all in a.u.
 
----------------------------------------------------------------------
Geometry Convergence after Step  10       (Hartree/Angstrom,Angstrom)
----------------------------------------------------------------------
current energy                               -2.65238303 Hartree
energy change                      -0.00004918     0.00015000    T
constrained gradient max            0.00340524     0.00100000    F
constrained gradient rms            0.00084013     0.00066667    F
gradient max                        0.00340555
gradient rms                        0.00084013
cart. step max                      0.16206075     0.01000000    F
cart. step rms                      0.05330154     0.00666667    F
 
 
--------
Geometry
--------
Formula: C4H8I2O
Atoms
  Index Symbol   x (angstrom)   y (angstrom)   z (angstrom)
      1      H     1.01222836    -1.23179870     1.09652394
      2      C    -0.85852418    -0.08601951     1.04001702
      3      C     0.39184871    -0.67505274     0.37770446
      4      C     1.31113153     0.28863778    -0.33872170
      5      O     1.08982957     1.46291174    -0.54082070
      6      H    -1.35219910     0.58482646     0.32829715
      7      H     0.11704503    -1.42217124    -0.38463066
      8      H    -0.13922193     0.00636393     3.10100975
      9      C    -0.58585188     0.66636330     2.34806650
     10      H     0.09030371     1.51185019     2.19428742
     11      H    -1.51800153     1.06049179     2.76542574
     12      H    -1.55695465    -0.90718242     1.23658642
     13      H     2.25053957    -0.17781539    -0.72038498
     14      I     1.39436249     4.74213590    -1.29265777
     15      I     1.46094094     7.37532566    -1.78363279
 
Total System Charge             0.00000
 
 *** GOStep11 ***

 Energy gradients wrt nuclear displacements
 ==========================================

     Atom      Cartesian (a.u./angstrom)
                 X         Y         Z
 ----------------------------------------
     1 H     0.000046  0.001133  0.000131
     2 C    -0.003345 -0.000965 -0.000710
     3 C     0.001146 -0.003284 -0.001558
     4 C     0.002761  0.002503  0.000019
     5 O     0.000725 -0.002446 -0.000297
     6 H     0.000462  0.000467  0.000105
     7 H    -0.000677  0.000832  0.000407
     8 H     0.000005 -0.000054 -0.000046
     9 C     0.000067  0.000881  0.001638
    10 H     0.000060 -0.000125 -0.000021
    11 H     0.000145  0.000078 -0.000319
    12 H     0.000904  0.000340  0.000198
    13 H    -0.002131  0.000976  0.000234
    14 I     0.000119  0.004743 -0.000781
    15 I    -0.000287 -0.005078  0.001000
 ----------------------------------------
 Mulliken charges used for AMS results%charges...

 dE(predicted):    -0.42463E-04, dE(actual):    -0.10024E-03, Trust radius:    0.251057, all in a.u.
 
----------------------------------------------------------------------
Geometry Convergence after Step  11       (Hartree/Angstrom,Angstrom)
----------------------------------------------------------------------
current energy                               -2.65248327 Hartree
energy change                      -0.00010024     0.00015000    T
constrained gradient max            0.00508638     0.00100000    F
constrained gradient rms            0.00156925     0.00066667    F
gradient max                        0.00508722
gradient rms                        0.00156926
cart. step max                      0.21318818     0.01000000    F
cart. step rms                      0.06986803     0.00666667    F
 
 
--------
Geometry
--------
Formula: C4H8I2O
Atoms
  Index Symbol   x (angstrom)   y (angstrom)   z (angstrom)
      1      H     1.07838814    -1.16764831     1.08699437
      2      C    -0.86709682    -0.15178204     1.07083416
      3      C     0.40761419    -0.65507798     0.38109516
      4      C     1.24579306     0.37018877    -0.35143249
      5      O     0.94118393     1.52666119    -0.54354008
      6      H    -1.41715023     0.48785811     0.37224966
      7      H     0.16832461    -1.41753164    -0.37695947
      8      H    -0.12158771    -0.02302865     3.12104710
      9      C    -0.61864538     0.61173779     2.37827715
     10      H     0.00277135     1.49672768     2.21673960
     11      H    -1.56621810     0.94755612     2.81140103
     12      H    -1.50415117    -1.01854003     1.27691373
     13      H     2.20369249    -0.03105662    -0.75736846
     14      I     1.48042914     4.80146130    -1.37189989
     15      I     1.67412912     7.42134106    -1.88728176
 
Total System Charge             0.00000
 
 *** GOStep12 ***

 Energy gradients wrt nuclear displacements
 ==========================================

     Atom      Cartesian (a.u./angstrom)
                 X         Y         Z
 ----------------------------------------
     1 H    -0.000166  0.001511  0.000109
     2 C    -0.005265 -0.001333 -0.000749
     3 C     0.001712 -0.004785 -0.002350
     4 C     0.003921  0.004674 -0.000491
     5 O     0.001237 -0.005247 -0.000096
     6 H     0.000611  0.000435  0.000199
     7 H    -0.000643  0.001362  0.000794
     8 H    -0.000129 -0.000058 -0.000103
     9 C     0.000331  0.001340  0.002635
    10 H    -0.000004 -0.000245 -0.000071
    11 H     0.000174  0.000053 -0.000449
    12 H     0.001438  0.000718  0.000171
    13 H    -0.003207  0.001355  0.000310
    14 I     0.000739  0.006331 -0.001205
    15 I    -0.000749 -0.006110  0.001296
 ----------------------------------------
 Mulliken charges used for AMS results%charges...

 dE(predicted):    -0.13563E-03, dE(actual):    -0.13296E-03, Trust radius:    0.251057, all in a.u.
 
----------------------------------------------------------------------
Geometry Convergence after Step  12       (Hartree/Angstrom,Angstrom)
----------------------------------------------------------------------
current energy                               -2.65261623 Hartree
energy change                      -0.00013296     0.00015000    T
constrained gradient max            0.00632642     0.00100000    F
constrained gradient rms            0.00230657     0.00066667    F
gradient max                        0.00632489
gradient rms                        0.00230657
cart. step max                      0.21327758     0.01000000    F
cart. step rms                      0.06843134     0.00666667    F
 
 
--------
Geometry
--------
Formula: C4H8I2O
Atoms
  Index Symbol   x (angstrom)   y (angstrom)   z (angstrom)
      1      H     1.13727987    -1.09823955     1.07415184
      2      C    -0.87085076    -0.21290752     1.09906261
      3      C     0.42193052    -0.62817788     0.38275441
      4      C     1.17851644     0.45150776    -0.36167097
      5      O     0.79662102     1.58628293    -0.54180504
      6      H    -1.47690638     0.38896905     0.41391324
      7      H     0.22122490    -1.40202286    -0.37411928
      8      H    -0.09665449    -0.04298610     3.13539753
      9      C    -0.64973380     0.56001199     2.40613618
     10      H    -0.09428955     1.48640717     2.23785475
     11      H    -1.60986149     0.82694593     2.85909780
     12      H    -1.44244034    -1.12195564     1.31283975
     13      H     2.15072783     0.11417456    -0.78991757
     14      I     1.55450617     4.84318901    -1.44071954
     15      I     1.88740670     7.44766790    -1.98590591
 
Total System Charge             0.00000
 
 *** GOStep13 ***

 Energy gradients wrt nuclear displacements
 ==========================================

     Atom      Cartesian (a.u./angstrom)
                 X         Y         Z
 ----------------------------------------
     1 H    -0.000459  0.001410 -0.000009
     2 C    -0.006284 -0.001171 -0.000340
     3 C     0.001694 -0.005459 -0.002651
     4 C     0.004216  0.006200 -0.001287
     5 O     0.001800 -0.007134  0.000110
     6 H     0.000623  0.000048  0.000323
     7 H    -0.000166  0.001815  0.001141
     8 H    -0.000361 -0.000060 -0.000175
     9 C     0.000700  0.001587  0.003196
    10 H    -0.000154 -0.000397 -0.000132
    11 H     0.000158 -0.000057 -0.000442
    12 H     0.001729  0.001158  0.000010
    13 H    -0.003693  0.001507  0.000288
    14 I     0.001192  0.005015 -0.001079
    15 I    -0.000995 -0.004462  0.001047
 ----------------------------------------
 Mulliken charges used for AMS results%charges...
 Rebuilding optimization coordinates
Bad geometry: could not add a dihedral for atom   15

 dE(predicted):    -0.14374E-03, dE(actual):    -0.15497E-03, Trust radius:    0.502113, all in a.u.
 
----------------------------------------------------------------------
Geometry Convergence after Step  13       (Hartree/Angstrom,Angstrom)
----------------------------------------------------------------------
current energy                               -2.65277120 Hartree
energy change                      -0.00015497     0.00015000    F
constrained gradient max            0.00713244     0.00100000    F
constrained gradient rms            0.00251160     0.00066667    F
gradient max                        0.00713502
gradient rms                        0.00251161
cart. step max                      0.21822150     0.01000000    F
cart. step rms                      0.06892419     0.00666667    F
 
 
--------
Geometry
--------
Formula: C4H8I2O
Atoms
  Index Symbol   x (angstrom)   y (angstrom)   z (angstrom)
      1      H     1.19228243    -1.01994357     1.05904417
      2      C    -0.86977810    -0.27186454     1.12410801
      3      C     0.43540152    -0.59471592     0.38290716
      4      C     1.10551911     0.53675761    -0.36771362
      5      O     0.64667289     1.64502491    -0.53366382
      6      H    -1.52880512     0.28873365     0.45326758
      7      H     0.27583886    -1.37657698    -0.37536248
      8      H    -0.07071067    -0.05880971     3.14634366
      9      C    -0.67847200     0.50779055     2.43164977
     10      H    -0.19326478     1.47199700     2.25910659
     11      H    -1.64621856     0.70332143     2.90457033
     12      H    -1.37300999    -1.21948754     1.34257940
     13      H     2.09075349     0.26694758    -0.81440480
     14      I     1.61563936     4.87155613    -1.50365991
     15      I     2.10562820     7.44813616    -2.08170224
 
Total System Charge             0.00000
 
 *** GOStep14 ***

 Energy gradients wrt nuclear displacements
 ==========================================

     Atom      Cartesian (a.u./angstrom)
                 X         Y         Z
 ----------------------------------------
     1 H    -0.000613  0.001131 -0.000019
     2 C    -0.006316 -0.000964 -0.000062
     3 C     0.001718 -0.005374 -0.002529
     4 C     0.003684  0.006398 -0.001811
     5 O     0.001810 -0.007058  0.000337
     6 H     0.000604 -0.000211  0.000415
     7 H     0.000094  0.001881  0.001260
     8 H    -0.000479 -0.000112 -0.000165
     9 C     0.000901  0.001584  0.003073
    10 H    -0.000185 -0.000454 -0.000156
    11 H     0.000105 -0.000127 -0.000368
    12 H     0.001638  0.001215 -0.000073
    13 H    -0.003436  0.001271  0.000257
    14 I     0.001579  0.003797 -0.001002
    15 I    -0.001104 -0.002977  0.000844
 ----------------------------------------
 Mulliken charges used for AMS results%charges...

 dE(predicted):    -0.17628E-03, dE(actual):    -0.10657E-03, Trust radius:    0.502113, all in a.u.
 
----------------------------------------------------------------------
Geometry Convergence after Step  14       (Hartree/Angstrom,Angstrom)
----------------------------------------------------------------------
current energy                               -2.65287777 Hartree
energy change                      -0.00010657     0.00015000    T
constrained gradient max            0.00706123     0.00100000    F
constrained gradient rms            0.00239085     0.00066667    F
gradient max                        0.00706123
gradient rms                        0.00239085
cart. step max                      0.18196324     0.01000000    F
cart. step rms                      0.05581302     0.00666667    F
 
 
--------
Geometry
--------
Formula: C4H8I2O
Atoms
  Index Symbol   x (angstrom)   y (angstrom)   z (angstrom)
      1      H     1.22870387    -0.95903611     1.04328814
      2      C    -0.86624947    -0.31502509     1.14101037
      3      C     0.44362005    -0.56235653     0.38164978
      4      C     1.04830646     0.60720659    -0.36458310
      5      O     0.53468108     1.69388193    -0.51610520
      6      H    -1.56453580     0.21228432     0.48307902
      7      H     0.31750125    -1.34363451    -0.38405318
      8      H    -0.04636292    -0.07236336     3.15049315
      9      C    -0.70033247     0.46235868     2.45221556
     10      H    -0.27892535     1.45644577     2.28193580
     11      H    -1.66959129     0.59247956     2.94449231
     12      H    -1.31553384    -1.29044612     1.35710115
     13      H     2.04316182     0.39045109    -0.82175457
     14      I     1.64544182     4.89230416    -1.55054135
     15      I     2.28759145     7.43431637    -2.17115808
 
Total System Charge             0.00000
 
 *** GOStep15 ***

 Energy gradients wrt nuclear displacements
 ==========================================

     Atom      Cartesian (a.u./angstrom)
                 X         Y         Z
 ----------------------------------------
     1 H    -0.000586  0.000441 -0.000076
     2 C    -0.005006 -0.000095  0.000357
     3 C     0.000950 -0.004011 -0.001838
     4 C     0.002031  0.005023 -0.001574
     5 O     0.001524 -0.005777  0.000347
     6 H     0.000458 -0.000645  0.000428
     7 H     0.000624  0.001621  0.001124
     8 H    -0.000553 -0.000157 -0.000151
     9 C     0.001102  0.001246  0.002257
    10 H    -0.000247 -0.000470 -0.000153
    11 H     0.000027 -0.000229 -0.000187
    12 H     0.001211  0.000979 -0.000200
    13 H    -0.002215  0.000949 -0.000009
    14 I     0.001168  0.001009 -0.000509
    15 I    -0.000488  0.000115  0.000185
 ----------------------------------------
 Mulliken charges used for AMS results%charges...

 dE(predicted):    -0.59133E-04, dE(actual):    -0.10197E-03, Trust radius:    0.502113, all in a.u.
 
----------------------------------------------------------------------
Geometry Convergence after Step  15       (Hartree/Angstrom,Angstrom)
----------------------------------------------------------------------
current energy                               -2.65297974 Hartree
energy change                      -0.00010197     0.00015000    T
constrained gradient max            0.00578206     0.00100000    F
constrained gradient rms            0.00175528     0.00066667    F
gradient max                        0.00578206
gradient rms                        0.00175528
cart. step max                      0.11561450     0.01000000    F
cart. step rms                      0.04266428     0.00666667    F
 
 
--------
Geometry
--------
Formula: C4H8I2O
Atoms
  Index Symbol   x (angstrom)   y (angstrom)   z (angstrom)
      1      H     1.18702531    -1.03425391     1.04359282
      2      C    -0.87047042    -0.28022186     1.12502825
      3      C     0.43130733    -0.58363346     0.38103990
      4      C     1.10426192     0.55809514    -0.34317011
      5      O     0.65029558     1.67266719    -0.49596507
      6      H    -1.53789700     0.28040315     0.46166346
      7      H     0.27759496    -1.34956046    -0.39771392
      8      H    -0.04728716    -0.07608520     3.13550048
      9      C    -0.68584152     0.48112262     2.44012215
     10      H    -0.23633755     1.46465649     2.27944580
     11      H    -1.65109047     0.63456737     2.93409947
     12      H    -1.37134962    -1.23450049     1.32905961
     13      H     2.10103398     0.29463761    -0.77873361
     14      I     1.55417231     4.91407729    -1.51221044
     15      I     2.20205899     7.45689528    -2.17468897
 
Total System Charge             0.00000
 
 *** GOStep16 ***

 Energy gradients wrt nuclear displacements
 ==========================================

     Atom      Cartesian (a.u./angstrom)
                 X         Y         Z
 ----------------------------------------
     1 H    -0.000115 -0.000759 -0.000152
     2 C     0.000320  0.001857  0.000765
     3 C    -0.001036  0.000340  0.000362
     4 C    -0.001977 -0.000786  0.000099
     5 O     0.000890 -0.000470 -0.000368
     6 H    -0.000120 -0.000892  0.000148
     7 H     0.001141  0.000199  0.000171
     8 H    -0.000311 -0.000071 -0.000085
     9 C     0.000604 -0.000062 -0.000327
    10 H    -0.000256 -0.000242  0.000021
    11 H    -0.000088 -0.000207  0.000208
    12 H    -0.000080 -0.000038 -0.000268
    13 H     0.000916  0.000027 -0.000384
    14 I    -0.000861 -0.003065  0.000807
    15 I     0.000974  0.004170 -0.000998
 ----------------------------------------
 Mulliken charges used for AMS results%charges...
 
----------------------------------------------------------------------
Geometry Convergence after Step  16       (Hartree/Angstrom,Angstrom)
----------------------------------------------------------------------
current energy                               -2.65297876 Hartree
energy change                       0.00000098     0.00015000    T
constrained gradient max            0.00416121     0.00100000    F
constrained gradient rms            0.00101049     0.00066667    F
gradient max                        0.00416121
gradient rms                        0.00101049
cart. step max                      0.15749617     0.01000000    F
cart. step rms                      0.05308139     0.00666667    F
 
 
--------
Geometry
--------
Formula: C4H8I2O
Atoms
  Index Symbol   x (angstrom)   y (angstrom)   z (angstrom)
      1      H     1.22856215    -0.96504177     1.02979172
      2      C    -0.86549043    -0.32234039     1.13867905
      3      C     0.44196060    -0.55242297     0.37862259
      4      C     1.04319015     0.63226339    -0.33968130
      5      O     0.52456743     1.72098596    -0.47567996
      6      H    -1.56448705     0.21522254     0.48843495
      7      H     0.31695336    -1.31914746    -0.40485207
      8      H    -0.03778298    -0.10085033     3.14619558
      9      C    -0.70293479     0.43549733     2.45917228
     10      H    -0.29300601     1.43717755     2.30305670
     11      H    -1.67024243     0.54816662     2.95993393
     12      H    -1.31836633    -1.30142161     1.33810318
     13      H     2.04910989     0.42946984    -0.78583466
     14      I     1.59588795     4.92418232    -1.55777452
     15      I     2.35955516     7.41712575    -2.25109766
 
Total System Charge             0.00000
 
 *** GOStep17 ***

 Energy gradients wrt nuclear displacements
 ==========================================

     Atom      Cartesian (a.u./angstrom)
                 X         Y         Z
 ----------------------------------------
     1 H     0.000060 -0.000229  0.000046
     2 C     0.000341  0.000882  0.000204
     3 C    -0.000270  0.000189  0.000210
     4 C    -0.000959 -0.001163  0.000326
     5 O    -0.000602  0.000121  0.000104
     6 H    -0.000052 -0.000210  0.000053
     7 H     0.000299 -0.000153 -0.000062
     8 H    -0.000089 -0.000078 -0.000040
     9 C     0.000265 -0.000058 -0.000274
    10 H    -0.000005 -0.000031 -0.000012
    11 H    -0.000086 -0.000030  0.000086
    12 H    -0.000140 -0.000339 -0.000065
    13 H     0.000806 -0.000260 -0.000196
    14 I     0.000242  0.000125 -0.000165
    15 I     0.000191  0.001234 -0.000216
 ----------------------------------------
 Mulliken charges used for AMS results%charges...

 dE(predicted):    -0.60252E-04, dE(actual):    -0.10675E-03, Trust radius:    0.502113, all in a.u.
 
----------------------------------------------------------------------
Geometry Convergence after Step  17       (Hartree/Angstrom,Angstrom)
----------------------------------------------------------------------
current energy                               -2.65308552 Hartree
energy change                      -0.00010675     0.00015000    T
constrained gradient max            0.00122264     0.00100000    F
constrained gradient rms            0.00039042     0.00066667    T
gradient max                        0.00122264
gradient rms                        0.00039042
cart. step max                      0.04040276     0.01000000    F
cart. step rms                      0.01481491     0.00666667    F
 
 
--------
Geometry
--------
Formula: C4H8I2O
Atoms
  Index Symbol   x (angstrom)   y (angstrom)   z (angstrom)
      1      H     1.23627739    -0.95069468     1.02379705
      2      C    -0.86429468    -0.33074574     1.13990184
      3      C     0.44439840    -0.54185930     0.37677713
      4      C     1.03199110     0.65486924    -0.33253963
      5      O     0.49980158     1.73759794    -0.46157281
      6      H    -1.56832112     0.20654701     0.49462551
      7      H     0.32462015    -1.30366580    -0.41239804
      8      H    -0.03739066    -0.11615613     3.14900616
      9      C    -0.70749633     0.41908724     2.46582500
     10      H    -0.30552293     1.42510768     2.31643870
     11      H    -1.67539370     0.52099308     2.96757649
     12      H    -1.30837456    -1.31507569     1.33248281
     13      H     2.03993481     0.46743187    -0.77981923
     14      I     1.59728928     4.92776460    -1.56644306
     15      I     2.39995792     7.39766547    -2.28658810
 
Total System Charge             0.00000
 
 *** GOStep18 ***

 Energy gradients wrt nuclear displacements
 ==========================================

     Atom      Cartesian (a.u./angstrom)
                 X         Y         Z
 ----------------------------------------
     1 H     0.000102  0.000012  0.000069
     2 C     0.000490  0.000188  0.000006
     3 C    -0.000134  0.000378  0.000043
     4 C    -0.000716 -0.000520  0.000545
     5 O    -0.000453 -0.000775  0.000190
     6 H    -0.000047  0.000073 -0.000013
     7 H    -0.000040 -0.000244 -0.000108
     8 H     0.000033 -0.000033  0.000001
     9 C    -0.000019 -0.000123 -0.000252
    10 H     0.000060  0.000024  0.000008
    11 H    -0.000019  0.000045  0.000029
    12 H    -0.000143 -0.000235  0.000026
    13 H     0.000418 -0.000207 -0.000128
    14 I     0.000570  0.001171 -0.000476
    15 I    -0.000103  0.000245  0.000060
 ----------------------------------------
 Mulliken charges used for AMS results%charges...

 dE(predicted):    -0.99239E-05, dE(actual):    -0.26295E-04, Trust radius:    0.502113, all in a.u.
 
----------------------------------------------------------------------
Geometry Convergence after Step  18       (Hartree/Angstrom,Angstrom)
----------------------------------------------------------------------
current energy                               -2.65311181 Hartree
energy change                      -0.00002630     0.00015000    T
constrained gradient max            0.00116276     0.00100000    F
constrained gradient rms            0.00032830     0.00066667    T
gradient max                        0.00116276
gradient rms                        0.00032830
cart. step max                      0.15343713     0.01000000    F
cart. step rms                      0.05866588     0.00666667    F
 
 
--------
Geometry
--------
Formula: C4H8I2O
Atoms
  Index Symbol   x (angstrom)   y (angstrom)   z (angstrom)
      1      H     1.25964637    -0.90182098     0.99807983
      2      C    -0.86033122    -0.35780572     1.14173452
      3      C     0.45159571    -0.49738232     0.36891071
      4      C     0.99491591     0.74335746    -0.29789881
      5      O     0.41963976     1.80650481    -0.39618007
      6      H    -1.58289359     0.18011113     0.51716588
      7      H     0.35063825    -1.23328210    -0.44726380
      8      H    -0.03283838    -0.17995046     3.15547875
      9      C    -0.72465685     0.35259318     2.49179990
     10      H    -0.35791975     1.37641899     2.37454353
     11      H    -1.69326682     0.40533390     2.99925674
     12      H    -1.27227881    -1.36124270     1.30202214
     13      H     2.00946086     0.61052561    -0.74691152
     14      I     1.59495961     4.94410105    -1.59364277
     15      I     2.55080559     7.31140490    -2.44002523
 
Total System Charge             0.00000
 
 *** GOStep19 ***

 Energy gradients wrt nuclear displacements
 ==========================================

     Atom      Cartesian (a.u./angstrom)
                 X         Y         Z
 ----------------------------------------
     1 H     0.000173  0.000460  0.000055
     2 C     0.001106 -0.001405 -0.000480
     3 C    -0.000053  0.000946 -0.000180
     4 C    -0.000123  0.000745  0.001009
     5 O     0.000015 -0.002912  0.000302
     6 H    -0.000100  0.000678 -0.000152
     7 H    -0.000703 -0.000382 -0.000191
     8 H     0.000336  0.000122  0.000126
     9 C    -0.000783 -0.000364 -0.000268
    10 H     0.000176  0.000157  0.000095
    11 H     0.000179  0.000200 -0.000072
    12 H    -0.000141  0.000186  0.000184
    13 H    -0.000619 -0.000032  0.000092
    14 I     0.001260  0.003276 -0.001181
    15 I    -0.000722 -0.001675  0.000660
 ----------------------------------------
 Mulliken charges used for AMS results%charges...

 dE(predicted):    -0.30827E-04, dE(actual):    -0.55097E-04, Trust radius:    0.502113, all in a.u.
 
----------------------------------------------------------------------
Geometry Convergence after Step  19       (Hartree/Angstrom,Angstrom)
----------------------------------------------------------------------
current energy                               -2.65316691 Hartree
energy change                      -0.00005510     0.00015000    T
constrained gradient max            0.00327105     0.00100000    F
constrained gradient rms            0.00088181     0.00066667    F
gradient max                        0.00327105
gradient rms                        0.00088181
cart. step max                      0.04725339     0.01000000    F
cart. step rms                      0.01359951     0.00666667    F
 
 
--------
Geometry
--------
Formula: C4H8I2O
Atoms
  Index Symbol   x (angstrom)   y (angstrom)   z (angstrom)
      1      H     1.25524428    -0.90785285     0.99147588
      2      C    -0.86224958    -0.35439091     1.13740410
      3      C     0.45146336    -0.48957610     0.36615661
      4      C     1.00362795     0.75729572    -0.28233699
      5      O     0.43273238     1.82339432    -0.37130386
      6      H    -1.58116279     0.19399107     0.51784515
      7      H     0.34836031    -1.21251764    -0.46099759
      8      H    -0.03742666    -0.20359531     3.15478569
      9      C    -0.72744035     0.33840449     2.49694604
     10      H    -0.35919040     1.36314869     2.39338931
     11      H    -1.69679764     0.38578492     3.00341538
     12      H    -1.27802515    -1.35806497     1.28403413
     13      H     2.01920942     0.62628137    -0.72823633
     14      I     1.58469608     4.94751164    -1.58822908
     15      I     2.55443545     7.28905233    -2.48727862
 
Total System Charge             0.00000
 
 *** GOStep20 ***

 Energy gradients wrt nuclear displacements
 ==========================================

     Atom      Cartesian (a.u./angstrom)
                 X         Y         Z
 ----------------------------------------
     1 H     0.000087  0.000484 -0.000006
     2 C     0.000620 -0.001720 -0.000509
     3 C     0.000044  0.000619 -0.000318
     4 C     0.000297  0.001283  0.000892
     5 O     0.000487 -0.003495  0.000134
     6 H    -0.000068  0.000646 -0.000120
     7 H    -0.000695 -0.000152 -0.000056
     8 H     0.000325  0.000143  0.000135
     9 C    -0.000760 -0.000281 -0.000020
    10 H     0.000145  0.000138  0.000096
    11 H     0.000215  0.000163 -0.000103
    12 H    -0.000019  0.000439  0.000177
    13 H    -0.001109  0.000140  0.000180
    14 I     0.001181  0.003527 -0.001198
    15 I    -0.000749 -0.001934  0.000716
 ----------------------------------------
 Mulliken charges used for AMS results%charges...

 dE(predicted):    -0.14153E-04, dE(actual):    -0.24098E-04, Trust radius:    0.502113, all in a.u.
 
----------------------------------------------------------------------
Geometry Convergence after Step  20       (Hartree/Angstrom,Angstrom)
----------------------------------------------------------------------
current energy                               -2.65319101 Hartree
energy change                      -0.00002410     0.00015000    T
constrained gradient max            0.00352334     0.00100000    F
constrained gradient rms            0.00097523     0.00066667    F
gradient max                        0.00352334
gradient rms                        0.00097523
cart. step max                      0.08104725     0.01000000    F
cart. step rms                      0.02686247     0.00666667    F
 
 
--------
Geometry
--------
Formula: C4H8I2O
Atoms
  Index Symbol   x (angstrom)   y (angstrom)   z (angstrom)
      1      H     1.23881104    -0.93265896     0.97798186
      2      C    -0.86797177    -0.33858616     1.12660806
      3      C     0.44971313    -0.47831499     0.35975613
      4      C     1.03315973     0.77409698    -0.25255951
      5      O     0.48359685     1.85272705    -0.32051959
      6      H    -1.57556047     0.23212477     0.51511367
      7      H     0.33869234    -1.17341895    -0.48901329
      8      H    -0.04885363    -0.24475129     3.14981639
      9      C    -0.73139723     0.31982970     2.50366458
     10      H    -0.35521794     1.34375921     2.42639099
     11      H    -1.70242754     0.36115586     3.00756429
     12      H    -1.29698967    -1.33965957     1.24747731
     13      H     2.04928857     0.63552051    -0.69298572
     14      I     1.57242967     4.93853963    -1.56389948
     15      I     2.52020357     7.24850297    -2.56832587
 
Total System Charge             0.00000
 
 *** GOStep21 ***

 Energy gradients wrt nuclear displacements
 ==========================================

     Atom      Cartesian (a.u./angstrom)
                 X         Y         Z
 ----------------------------------------
     1 H    -0.000243  0.000245 -0.000180
     2 C    -0.001431 -0.001271 -0.000280
     3 C     0.000403 -0.001120 -0.000582
     4 C     0.001158  0.002048 -0.000081
     5 O     0.001197 -0.003872 -0.000202
     6 H     0.000112  0.000092  0.000058
     7 H    -0.000160  0.000669  0.000401
     8 H     0.000059  0.000096  0.000040
     9 C    -0.000134  0.000225  0.000882
    10 H    -0.000047 -0.000015  0.000003
    11 H     0.000164 -0.000059 -0.000100
    12 H     0.000410  0.000845  0.000025
    13 H    -0.001710  0.000589  0.000362
    14 I     0.000674  0.003012 -0.000816
    15 I    -0.000451 -0.001484  0.000471
 ----------------------------------------
 Mulliken charges used for AMS results%charges...

 dE(predicted):    -0.41100E-04, dE(actual):    -0.61944E-04, Trust radius:    0.502113, all in a.u.
 
----------------------------------------------------------------------
Geometry Convergence after Step  21       (Hartree/Angstrom,Angstrom)
----------------------------------------------------------------------
current energy                               -2.65325295 Hartree
energy change                      -0.00006194     0.00015000    T
constrained gradient max            0.00387437     0.00100000    F
constrained gradient rms            0.00101468     0.00066667    F
gradient max                        0.00387437
gradient rms                        0.00101468
cart. step max                      0.17551142     0.01000000    F
cart. step rms                      0.05620253     0.00666667    F
 
 
--------
Geometry
--------
Formula: C4H8I2O
Atoms
  Index Symbol   x (angstrom)   y (angstrom)   z (angstrom)
      1      H     1.23619979    -0.92040504     0.94090400
      2      C    -0.87146251    -0.33459727     1.11575491
      3      C     0.45053735    -0.43041187     0.34654270
      4      C     1.03621061     0.85389102    -0.19646748
      5      O     0.48442563     1.93367051    -0.21238229
      6      H    -1.58281428     0.25597116     0.52894460
      7      H     0.34361717    -1.07542282    -0.54078956
      8      H    -0.05278817    -0.32776344     3.14099246
      9      C    -0.74379873     0.25799388     2.52375200
     10      H    -0.38490680     1.29036109     2.49673774
     11      H    -1.71547544     0.25721993     3.02836525
     12      H    -1.29006890    -1.34463217     1.18771067
     13      H     2.05526968     0.74123801    -0.63660420
     14      I     1.58650346     4.91410557    -1.55255370
     15      I     2.55602779     7.12764819    -2.74383730
 
Total System Charge             0.00000
 
 *** GOStep22 ***

 Energy gradients wrt nuclear displacements
 ==========================================

     Atom      Cartesian (a.u./angstrom)
                 X         Y         Z
 ----------------------------------------
     1 H    -0.000580 -0.000071 -0.000338
     2 C    -0.003283 -0.000313 -0.000044
     3 C     0.000904 -0.002873 -0.000798
     4 C     0.001623  0.002599 -0.001039
     5 O     0.001252 -0.003740 -0.000277
     6 H     0.000323 -0.000528  0.000199
     7 H     0.000329  0.001285  0.000788
     8 H    -0.000233  0.000023 -0.000095
     9 C     0.000613  0.000679  0.001705
    10 H    -0.000239 -0.000150 -0.000133
    11 H     0.000035 -0.000311 -0.000080
    12 H     0.000732  0.000934 -0.000056
    13 H    -0.001713  0.000871  0.000511
    14 I     0.000503  0.002545 -0.000533
    15 I    -0.000265 -0.000950  0.000191
 ----------------------------------------
 Mulliken charges used for AMS results%charges...

 dE(predicted):    -0.46885E-04, dE(actual):    -0.97044E-04, Trust radius:    0.502113, all in a.u.
 
----------------------------------------------------------------------
Geometry Convergence after Step  22       (Hartree/Angstrom,Angstrom)
----------------------------------------------------------------------
current energy                               -2.65335000 Hartree
energy change                      -0.00009704     0.00015000    T
constrained gradient max            0.00374245     0.00100000    F
constrained gradient rms            0.00122328     0.00066667    F
gradient max                        0.00374245
gradient rms                        0.00122328
cart. step max                      0.21425555     0.01000000    F
cart. step rms                      0.07595684     0.00666667    F
 
 
--------
Geometry
--------
Formula: C4H8I2O
Atoms
  Index Symbol   x (angstrom)   y (angstrom)   z (angstrom)
      1      H     1.22497228    -0.91175280     0.88805933
      2      C    -0.87638114    -0.31134352     1.09359324
      3      C     0.45215132    -0.36395288     0.32880841
      4      C     1.05984019     0.95006895    -0.11124829
      5      O     0.52229548     2.03606020    -0.04931598
      6      H    -1.58163374     0.31761134     0.54126590
      7      H     0.34451095    -0.93449018    -0.60785117
      8      H    -0.06838420    -0.44286646     3.11795274
      9      C    -0.75740402     0.18330932     2.53985240
     10      H    -0.40301901     1.21616430     2.58622624
     11      H    -1.73215174     0.14254409     3.03721321
     12      H    -1.29676833    -1.32347608     1.09389624
     13      H     2.08106584     0.85726921    -0.55118546
     14      I     1.60975356     4.84601240    -1.52210416
     15      I     2.52862922     6.93770888    -2.95809285
 
Total System Charge             0.00000
 
 *** GOStep23 ***

 Energy gradients wrt nuclear displacements
 ==========================================

     Atom      Cartesian (a.u./angstrom)
                 X         Y         Z
 ----------------------------------------
     1 H    -0.000900 -0.000374 -0.000485
     2 C    -0.004883  0.000948  0.000409
     3 C     0.001523 -0.004397 -0.001093
     4 C     0.001526  0.002886 -0.001662
     5 O     0.000984 -0.002837 -0.000099
     6 H     0.000547 -0.001165  0.000218
     7 H     0.000649  0.001600  0.001042
     8 H    -0.000533 -0.000092 -0.000305
     9 C     0.001468  0.001132  0.002383
    10 H    -0.000450 -0.000329 -0.000302
    11 H    -0.000167 -0.000582 -0.000107
    12 H     0.000934  0.000623 -0.000099
    13 H    -0.001062  0.000904  0.000559
    14 I     0.000474  0.002085 -0.000191
    15 I    -0.000108 -0.000402 -0.000269
 ----------------------------------------
 Mulliken charges used for AMS results%charges...

 dE(predicted):    -0.83463E-04, dE(actual):    -0.10816E-03, Trust radius:    0.502113, all in a.u.
 
----------------------------------------------------------------------
Geometry Convergence after Step  23       (Hartree/Angstrom,Angstrom)
----------------------------------------------------------------------
current energy                               -2.65345815 Hartree
energy change                      -0.00010816     0.00015000    T
constrained gradient max            0.00488467     0.00100000    F
constrained gradient rms            0.00145922     0.00066667    F
gradient max                        0.00488467
gradient rms                        0.00145922
cart. step max                      0.18830121     0.01000000    F
cart. step rms                      0.05388783     0.00666667    F
 
 
--------
Geometry
--------
Formula: C4H8I2O
Atoms
  Index Symbol   x (angstrom)   y (angstrom)   z (angstrom)
      1      H     1.19853368    -0.94577391     0.86856965
      2      C    -0.87906414    -0.26381753     1.06790087
      3      C     0.45802617    -0.34603553     0.31893739
      4      C     1.12684427     0.95454298    -0.06919678
      5      O     0.64017214     2.06180308     0.03786405
      6      H    -1.55419409     0.40199336     0.52186800
      7      H     0.34076370    -0.87875088    -0.63869126
      8      H    -0.10718456    -0.48098442     3.09749630
      9      C    -0.76416302     0.18637677     2.52869343
     10      H    -0.37538402     1.20421531     2.60937332
     11      H    -1.74760249     0.16490860     3.01030316
     12      H    -1.33302153    -1.26137088     1.03469968
     13      H     2.14386623     0.83133812    -0.51284880
     14      I     1.61955632     4.72873145    -1.46106714
     15      I     2.34032800     6.84169024    -2.98683205
 
Total System Charge             0.00000
 
 *** GOStep24 ***

 Energy gradients wrt nuclear displacements
 ==========================================

     Atom      Cartesian (a.u./angstrom)
                 X         Y         Z
 ----------------------------------------
     1 H    -0.001142 -0.000585 -0.000521
     2 C    -0.005725  0.002572  0.000998
     3 C     0.002051 -0.005472 -0.001140
     4 C     0.000919  0.002786 -0.002131
     5 O     0.000819 -0.000883  0.000043
     6 H     0.000657 -0.001676  0.000190
     7 H     0.000859  0.001646  0.000989
     8 H    -0.000826 -0.000190 -0.000569
     9 C     0.002201  0.001464  0.002658
    10 H    -0.000651 -0.000533 -0.000458
    11 H    -0.000410 -0.000728 -0.000112
    12 H     0.000979  0.000007 -0.000160
    13 H     0.000067  0.000535  0.000414
    14 I     0.000353  0.000817  0.000586
    15 I    -0.000151  0.000240 -0.000788
 ----------------------------------------
 Mulliken charges used for AMS results%charges...

 dE(predicted):    -0.91157E-04, dE(actual):    -0.62356E-04, Trust radius:    0.502113, all in a.u.
 
----------------------------------------------------------------------
Geometry Convergence after Step  24       (Hartree/Angstrom,Angstrom)
----------------------------------------------------------------------
current energy                               -2.65352051 Hartree
energy change                      -0.00006236     0.00015000    T
constrained gradient max            0.00572821     0.00100000    F
constrained gradient rms            0.00163341     0.00066667    F
gradient max                        0.00572821
gradient rms                        0.00163341
cart. step max                      0.14933618     0.01000000    F
cart. step rms                      0.04098799     0.00666667    F
 
 
--------
Geometry
--------
Formula: C4H8I2O
Atoms
  Index Symbol   x (angstrom)   y (angstrom)   z (angstrom)
      1      H     1.21382451    -0.93442368     0.89876977
      2      C    -0.87257952    -0.27403011     1.07523072
      3      C     0.46140044    -0.37137254     0.32594431
      4      C     1.11046142     0.91922925    -0.11757756
      5      O     0.61798855     2.02649515    -0.03316869
      6      H    -1.55407042     0.36729068     0.50720472
      7      H     0.34850362    -0.94940285    -0.60640527
      8      H    -0.10289080    -0.41447227     3.11192007
      9      C    -0.75804477     0.23167183     2.51677505
     10      H    -0.36576558     1.25065628     2.55866008
     11      H    -1.74154399     0.23310432     2.99867041
     12      H    -1.32096955    -1.27516922     1.08030645
     13      H     2.11994700     0.78768986    -0.57784457
     14      I     1.62139176     4.68704599    -1.47391979
     15      I     2.32982397     6.91455408    -2.83749588
 
Total System Charge             0.00000
 
 *** GOStep25 ***

 Energy gradients wrt nuclear displacements
 ==========================================

     Atom      Cartesian (a.u./angstrom)
                 X         Y         Z
 ----------------------------------------
     1 H    -0.000785 -0.000507 -0.000267
     2 C    -0.003629  0.002405  0.000893
     3 C     0.001870 -0.003570 -0.000198
     4 C    -0.000217  0.001333 -0.001652
     5 O    -0.000148  0.000109  0.000840
     6 H     0.000459 -0.001210  0.000120
     7 H     0.000440  0.001017  0.000255
     8 H    -0.000635 -0.000196 -0.000473
     9 C     0.001640  0.001093  0.001411
    10 H    -0.000475 -0.000440 -0.000335
    11 H    -0.000371 -0.000461 -0.000029
    12 H     0.000519 -0.000447 -0.000090
    13 H     0.000896 -0.000062 -0.000011
    14 I     0.000637  0.000062  0.000239
    15 I    -0.000201  0.000873 -0.000703
 ----------------------------------------
 Mulliken charges used for AMS results%charges...

 dE(predicted):    -0.99019E-04, dE(actual):    -0.14279E-03, Trust radius:    0.502113, all in a.u.
 
----------------------------------------------------------------------
Geometry Convergence after Step  25       (Hartree/Angstrom,Angstrom)
----------------------------------------------------------------------
current energy                               -2.65366330 Hartree
energy change                      -0.00014279     0.00015000    T
constrained gradient max            0.00363143     0.00100000    F
constrained gradient rms            0.00111269     0.00066667    F
gradient max                        0.00363143
gradient rms                        0.00111269
cart. step max                      0.14792651     0.01000000    F
cart. step rms                      0.03985283     0.00666667    F
 
 
--------
Geometry
--------
Formula: C4H8I2O
Atoms
  Index Symbol   x (angstrom)   y (angstrom)   z (angstrom)
      1      H     1.24442251    -0.89024684     0.92078444
      2      C    -0.86047062    -0.28982413     1.08343282
      3      C     0.46751072    -0.37963901     0.33020443
      4      C     1.07229628     0.90847184    -0.16688820
      5      O     0.55705851     2.00695254    -0.09716802
      6      H    -1.55616955     0.32514555     0.50124461
      7      H     0.36553017    -1.00462843    -0.57413635
      8      H    -0.08949140    -0.35523220     3.12413646
      9      C    -0.74954566     0.26455610     2.50584029
     10      H    -0.36070009     1.28629666     2.51329901
     11      H    -1.73213036     0.28107899     2.98876558
     12      H    -1.29465777    -1.29680743     1.12194119
     13      H     2.07220088     0.78533081    -0.65017657
     14      I     1.59756371     4.63135238    -1.48464052
     15      I     2.37405931     6.92605992    -2.68956937
 
Total System Charge             0.00000
 
 *** GOStep26 ***

 Energy gradients wrt nuclear displacements
 ==========================================

     Atom      Cartesian (a.u./angstrom)
                 X         Y         Z
 ----------------------------------------
     1 H    -0.000055 -0.000049  0.000049
     2 C     0.000776  0.000722  0.000191
     3 C     0.000940  0.000523  0.000963
     4 C    -0.001551 -0.000642 -0.000193
     5 O    -0.000934  0.000376  0.001673
     6 H    -0.000033  0.000053 -0.000185
     7 H    -0.000518 -0.000291 -0.000753
     8 H    -0.000017 -0.000039 -0.000077
     9 C    -0.000035 -0.000067 -0.000744
    10 H    -0.000020 -0.000037 -0.000029
    11 H    -0.000112  0.000086  0.000004
    12 H    -0.000212 -0.000665  0.000129
    13 H     0.001206 -0.000688 -0.000276
    14 I     0.000989  0.000215 -0.000836
    15 I    -0.000424  0.000503  0.000083
 ----------------------------------------
 Mulliken charges used for AMS results%charges...

 dE(predicted):    -0.10416E-03, dE(actual):    -0.12335E-03, Trust radius:    0.502113, all in a.u.
 
----------------------------------------------------------------------
Geometry Convergence after Step  26       (Hartree/Angstrom,Angstrom)
----------------------------------------------------------------------
current energy                               -2.65378665 Hartree
energy change                      -0.00012335     0.00015000    T
constrained gradient max            0.00166863     0.00100000    F
constrained gradient rms            0.00059880     0.00066667    T
gradient max                        0.00166863
gradient rms                        0.00059880
cart. step max                      0.07726292     0.01000000    F
cart. step rms                      0.02484265     0.00666667    F
 
 
--------
Geometry
--------
Formula: C4H8I2O
Atoms
  Index Symbol   x (angstrom)   y (angstrom)   z (angstrom)
      1      H     1.26461512    -0.84610004     0.91476335
      2      C    -0.85311814    -0.29634516     1.08368329
      3      C     0.47212199    -0.35650321     0.32635184
      4      C     1.04549847     0.94305496    -0.17230445
      5      O     0.51036080     2.03137540    -0.09095927
      6      H    -1.56057624     0.31273072     0.50829030
      7      H     0.38140943    -0.98712132    -0.57572455
      8      H    -0.07902143    -0.36088636     3.12415589
      9      C    -0.74810649     0.25224680     2.50840560
     10      H    -0.37095874     1.27868326     2.52065778
     11      H    -1.72992985     0.25612023     2.99271120
     12      H    -1.27248682    -1.30957716     1.11719217
     13      H     2.04039048     0.84124175    -0.66894127
     14      I     1.56783044     4.59114987    -1.47614595
     15      I     2.43944762     6.84879700    -2.68506611
 
Total System Charge             0.00000
 
 *** GOStep27 ***

 Energy gradients wrt nuclear displacements
 ==========================================

     Atom      Cartesian (a.u./angstrom)
                 X         Y         Z
 ----------------------------------------
     1 H     0.000299  0.000237  0.000153
[...]
 
 Mode:    29      Frequency (cm-1):     1336.3239     Intensity (km/mol):        4.9320
 Index  Atom      ---- Displacements (x/y/z) ----
     1     H       0.146254   0.180825  -0.070620
     2     C      -0.047397   0.045748   0.105104
     3     C      -0.073167  -0.086403   0.034643
     4     C       0.014301   0.006285  -0.019349
     5     O       0.004320  -0.004823   0.000465
     6     H       0.123061  -0.082864  -0.239237
     7     H       0.279968   0.223764  -0.239636
     8     H      -0.047038  -0.145301  -0.077578
     9     C       0.032651   0.029939   0.004417
    10     H      -0.052388   0.046338  -0.066754
    11     H      -0.046384  -0.106391  -0.161882
    12     H       0.373673  -0.159563  -0.608873
    13     H       0.026972   0.167833  -0.025953
    14     I       0.000056   0.000081  -0.000047
    15     I      -0.000026  -0.000044   0.000023
 
 Mode:    30      Frequency (cm-1):     1345.9904     Intensity (km/mol):        7.9307
 Index  Atom      ---- Displacements (x/y/z) ----
     1     H      -0.393964  -0.371684   0.203111
     2     C      -0.059902   0.003698   0.112405
     3     C       0.069329   0.101254  -0.094280
     4     C      -0.043547  -0.041759   0.020955
     5     O       0.010631   0.006409  -0.005586
     6     H       0.385251  -0.125762  -0.585915
     7     H       0.042653  -0.204438   0.140010
     8     H      -0.057457  -0.025677   0.093646
     9     C       0.038018  -0.018801  -0.007836
    10     H      -0.101728   0.018752  -0.049159
    11     H      -0.001446  -0.016962  -0.074986
    12     H      -0.036434  -0.013536  -0.025146
    13     H      -0.049754   0.108405   0.014236
    14     I      -0.000036  -0.000018   0.000021
    15     I       0.000018   0.000023  -0.000015
 
 Mode:    31      Frequency (cm-1):     1375.7060     Intensity (km/mol):       14.4969
 Index  Atom      ---- Displacements (x/y/z) ----
     1     H      -0.042631   0.267342   0.247930
     2     C      -0.004289   0.002157   0.022797
     3     C       0.011592  -0.028764  -0.008881
     4     C      -0.016256  -0.001660   0.002423
     5     O       0.017330  -0.017757  -0.002370
     6     H       0.047941  -0.017615  -0.062990
     7     H      -0.202157   0.228255  -0.173255
     8     H      -0.135165   0.283556   0.370954
     9     C      -0.001649  -0.041247  -0.108948
    10     H      -0.045784   0.002907   0.469064
    11     H       0.226823   0.181445   0.375202
    12     H       0.021547  -0.012580  -0.056071
    13     H      -0.020264   0.176074  -0.029934
    14     I       0.000010   0.000001  -0.000007
    15     I      -0.000003   0.000000   0.000002
 
 Mode:    32      Frequency (cm-1):     1383.6888     Intensity (km/mol):       14.7789
 Index  Atom      ---- Displacements (x/y/z) ----
     1     H      -0.056876   0.247302   0.230188
     2     C       0.014859  -0.021365  -0.028148
     3     C       0.010645   0.005166  -0.006375
     4     C      -0.051928  -0.032724   0.031112
     5     O       0.054282  -0.040882  -0.014812
     6     H       0.015268   0.040390   0.031243
     7     H      -0.264925   0.189673  -0.107111
     8     H       0.059586  -0.128568  -0.161255
     9     C      -0.004391   0.018912   0.055080
    10     H       0.039647  -0.009913  -0.236990
    11     H      -0.098424  -0.096370  -0.148440
    12     H      -0.085498   0.029255   0.158815
    13     H      -0.105571   0.732767  -0.145274
    14     I       0.000018  -0.000004  -0.000006
    15     I      -0.000000   0.000017  -0.000005
 
 Mode:    33      Frequency (cm-1):     1399.6367     Intensity (km/mol):       12.7473
 Index  Atom      ---- Displacements (x/y/z) ----
     1     H       0.124367  -0.301247  -0.442516
     2     C       0.012290   0.003825  -0.018863
     3     C      -0.073829   0.035103   0.039936
     4     C      -0.015989  -0.023347   0.017126
     5     O       0.028462  -0.015222  -0.010487
     6     H      -0.014387   0.031544   0.047091
     7     H       0.435560  -0.221646   0.176347
     8     H       0.016212   0.144537   0.091677
     9     C      -0.010521  -0.020882  -0.032946
    10     H       0.013079  -0.015076   0.187421
    11     H       0.056239   0.104778   0.109298
    12     H       0.024230   0.009576   0.055036
    13     H      -0.061767   0.547202  -0.117498
    14     I       0.000036   0.000047  -0.000032
    15     I      -0.000011  -0.000007   0.000008
 
 Mode:    34      Frequency (cm-1):     1450.0659     Intensity (km/mol):        3.8795
 Index  Atom      ---- Displacements (x/y/z) ----
     1     H       0.006186   0.015721  -0.005665
     2     C      -0.056794  -0.025827  -0.033762
     3     C      -0.009441  -0.007117  -0.000523
     4     C       0.008164  -0.002160  -0.001722
     5     O      -0.005105   0.006759   0.000496
     6     H       0.351001   0.566092   0.047241
     7     H      -0.001876  -0.004963  -0.007681
     8     H      -0.139012  -0.141995   0.030980
     9     C       0.008349   0.003095  -0.003633
    10     H      -0.145816   0.042569  -0.092611
    11     H       0.060114   0.016361   0.117019
    12     H       0.534262  -0.184916   0.371131
    13     H       0.008583  -0.034132   0.003310
    14     I      -0.000005  -0.000009   0.000004
    15     I       0.000002   0.000002  -0.000001
 
 Mode:    35      Frequency (cm-1):     1465.8747     Intensity (km/mol):        7.0249
 Index  Atom      ---- Displacements (x/y/z) ----
     1     H       0.019577  -0.022270  -0.049178
     2     C       0.026680   0.021911  -0.011553
     3     C      -0.009410   0.001202   0.007039
     4     C       0.000870  -0.001462   0.000748
     5     O       0.000335   0.000180  -0.000619
     6     H      -0.097406  -0.127523  -0.003389
     7     H       0.044267  -0.016705   0.015203
     8     H      -0.485124  -0.246947   0.323247
     9     C       0.015779   0.039994  -0.016898
    10     H       0.004850   0.009498  -0.403869
    11     H       0.226759  -0.432375   0.376513
    12     H      -0.120341   0.074490   0.001858
    13     H      -0.001754   0.025245  -0.004707
    14     I      -0.000001  -0.000005   0.000002
    15     I       0.000000   0.000003  -0.000001
 
 Mode:    36      Frequency (cm-1):     1473.8431     Intensity (km/mol):        6.0332
 Index  Atom      ---- Displacements (x/y/z) ----
     1     H       0.010034   0.011438  -0.001918
     2     C      -0.038230   0.004333   0.002006
     3     C       0.004559  -0.001736  -0.003107
     4     C       0.002762  -0.001849   0.001234
     5     O      -0.002609   0.003201   0.000112
     6     H       0.083332   0.093983  -0.067603
     7     H      -0.012758  -0.006106   0.000453
     8     H       0.132377   0.407529   0.182474
     9     C      -0.045250   0.016638  -0.005244
    10     H       0.660761  -0.202660   0.002519
    11     H      -0.061008  -0.491693  -0.109275
    12     H       0.133368  -0.049494   0.051393
    13     H       0.002196  -0.020654   0.000946
    14     I      -0.000000  -0.000002   0.000001
    15     I      -0.000000   0.000001  -0.000001
 
 Mode:    37      Frequency (cm-1):     1734.5334     Intensity (km/mol):      362.4049
 Index  Atom      ---- Displacements (x/y/z) ----
     1     H       0.078401   0.247704   0.041095
     2     C       0.013673  -0.014150  -0.005181
     3     C      -0.020178   0.034413  -0.000139
     4     C       0.299924  -0.611908   0.019472
     5     O      -0.223860   0.391958   0.002526
     6     H      -0.018500  -0.048180   0.023440
     7     H      -0.055152   0.170879  -0.123643
     8     H       0.015493   0.011314  -0.009269
     9     C      -0.004069  -0.002004  -0.002021
    10     H      -0.006427  -0.005144   0.039858
    11     H       0.007050   0.037020   0.016629
    12     H      -0.119083   0.037534   0.033985
    13     H       0.196067   0.339848  -0.187159
    14     I       0.000200   0.000742  -0.000288
    15     I      -0.000123  -0.000291   0.000134
 
 Mode:    38      Frequency (cm-1):     2839.0984     Intensity (km/mol):       74.9185
 Index  Atom      ---- Displacements (x/y/z) ----
     1     H      -0.051724   0.018561  -0.036138
     2     C       0.000297   0.000108  -0.000786
     3     C       0.003489  -0.003398  -0.001270
     4     C      -0.074311  -0.000236   0.036143
     5     O      -0.000706   0.002074  -0.000211
     6     H       0.005739  -0.001942   0.003363
     7     H       0.004540   0.032916   0.053062
     8     H      -0.001333   0.000554  -0.001031
     9     C      -0.000020  -0.000090   0.000184
    10     H       0.000432   0.001228  -0.000514
    11     H       0.001168  -0.000170  -0.000481
    12     H      -0.002276  -0.000800   0.001480
    13     H       0.895439  -0.033941  -0.426461
    14     I      -0.000022  -0.000083   0.000032
    15     I       0.000015   0.000033  -0.000016
 
 Mode:    39      Frequency (cm-1):     2957.0706     Intensity (km/mol):       23.1195
 Index  Atom      ---- Displacements (x/y/z) ----
     1     H      -0.346219   0.165697  -0.273417
     2     C       0.002734   0.007759   0.000084
     3     C       0.023318  -0.057482  -0.034319
     4     C       0.007047  -0.002052  -0.003864
     5     O      -0.000845   0.001055   0.000126
     6     H      -0.006707   0.009186  -0.006221
     7     H       0.077820   0.527369   0.684647
     8     H       0.015381  -0.013277   0.012161
     9     C      -0.001018  -0.000640  -0.001062
    10     H       0.007243   0.024853  -0.001382
    11     H      -0.010905  -0.001158   0.003664
    12     H      -0.032200  -0.102515   0.008035
    13     H      -0.072967  -0.003031   0.036867
    14     I       0.000001   0.000005  -0.000002
    15     I      -0.000001  -0.000003   0.000001
 
 Mode:    40      Frequency (cm-1):     2987.0909     Intensity (km/mol):        3.3110
 Index  Atom      ---- Displacements (x/y/z) ----
     1     H       0.623997  -0.336718   0.462749
     2     C       0.016304   0.002853   0.007590
     3     C      -0.053277   0.005391  -0.065156
     4     C      -0.003358  -0.000494   0.000008
     5     O       0.000022  -0.000236  -0.000290
     6     H      -0.146728   0.117010  -0.117769
     7     H       0.022464   0.279654   0.331277
     8     H      -0.048618   0.038183  -0.036670
     9     C      -0.000084   0.000134   0.005965
    10     H      -0.014124  -0.043446   0.003125
    11     H       0.065593   0.002692  -0.030353
    12     H      -0.048240  -0.148953   0.016200
    13     H       0.026608   0.001726  -0.009680
    14     I      -0.000002  -0.000004   0.000001
    15     I       0.000001   0.000002  -0.000001
 
 Mode:    41      Frequency (cm-1):     2994.1333     Intensity (km/mol):       23.3891
 Index  Atom      ---- Displacements (x/y/z) ----
     1     H      -0.068874   0.035894  -0.048990
     2     C      -0.005312   0.002482  -0.004649
     3     C       0.005878  -0.002357   0.004356
     4     C       0.000534   0.000290  -0.000220
     5     O       0.000066  -0.000090  -0.000050
     6     H       0.063043  -0.047197   0.049822
     7     H      -0.001536  -0.007169  -0.005496
     8     H      -0.466399   0.370682  -0.386673
     9     C       0.010761   0.004188   0.049968
    10     H      -0.129976  -0.434273   0.027910
    11     H       0.466207   0.017968  -0.226900
    12     H       0.001730   0.011252  -0.000704
    13     H      -0.006576  -0.000812   0.003084
    14     I       0.000002   0.000004  -0.000002
    15     I      -0.000001  -0.000002   0.000001
 
 Mode:    42      Frequency (cm-1):     3004.2094     Intensity (km/mol):       28.1034
 Index  Atom      ---- Displacements (x/y/z) ----
     1     H      -0.129928   0.070984  -0.094982
     2     C       0.050404   0.041398   0.016844
     3     C       0.011479   0.004738   0.020439
     4     C      -0.000052  -0.000676   0.000601
     5     O      -0.000153   0.000168   0.000068
     6     H      -0.333572   0.273414  -0.263961
     7     H      -0.010125  -0.125575  -0.154913
     8     H      -0.007823   0.001220  -0.003119
     9     C      -0.008397  -0.004195   0.003914
    10     H       0.011062   0.044751  -0.001620
    11     H       0.094041   0.003863  -0.044528
    12     H      -0.259533  -0.763925   0.065463
    13     H       0.002131   0.001460  -0.001223
    14     I      -0.000001  -0.000003   0.000002
    15     I       0.000001   0.000001  -0.000001
 
 Mode:    43      Frequency (cm-1):     3040.5958     Intensity (km/mol):        5.0957
 Index  Atom      ---- Displacements (x/y/z) ----
     1     H      -0.083406   0.041643  -0.061049
     2     C       0.027857  -0.069390   0.035314
     3     C       0.007242  -0.003880   0.005323
     4     C       0.000504  -0.000431  -0.000114
     5     O      -0.000334   0.000294  -0.000016
     6     H      -0.509929   0.378040  -0.392086
     7     H       0.001868  -0.002733  -0.001587
     8     H       0.160235  -0.125477   0.135748
     9     C      -0.022498   0.029750  -0.003306
    10     H      -0.086981  -0.251319   0.010941
    11     H       0.195206   0.018044  -0.104280
    12     H       0.172454   0.460285  -0.030935
    13     H      -0.000241   0.000013   0.000393
    14     I       0.000001   0.000002  -0.000000
    15     I      -0.000000  -0.000001   0.000000
 
 Mode:    44      Frequency (cm-1):     3064.6274     Intensity (km/mol):       33.4660
 Index  Atom      ---- Displacements (x/y/z) ----
     1     H       0.035751  -0.017569   0.022849
     2     C      -0.016123   0.025064  -0.015773
     3     C      -0.002512   0.001167  -0.002490
     4     C      -0.000262   0.000542  -0.000031
     5     O       0.000224  -0.000270  -0.000044
     6     H       0.230220  -0.171852   0.179627
     7     H      -0.000393   0.003320   0.005181
     8     H       0.382240  -0.311189   0.337947
     9     C      -0.079620   0.030400  -0.000983
    10     H      -0.048476  -0.084130   0.002531
    11     H       0.618148   0.034101  -0.325265
    12     H      -0.048193  -0.128848   0.007584
    13     H       0.000149  -0.000342  -0.000176
    14     I       0.000000   0.000001  -0.000001
    15     I       0.000000  -0.000001   0.000000
 
 Mode:    45      Frequency (cm-1):     3082.2620     Intensity (km/mol):       29.8837
 Index  Atom      ---- Displacements (x/y/z) ----
     1     H       0.009069  -0.003899   0.005941
     2     C      -0.001584   0.020294  -0.007036
     3     C      -0.000919   0.000452  -0.000159
     4     C      -0.000426   0.000389   0.000153
     5     O       0.000190  -0.000201  -0.000244
     6     H       0.086409  -0.063431   0.068040
     7     H      -0.000255  -0.001592  -0.001728
     8     H       0.168500  -0.109141   0.127533
     9     C       0.037522   0.076450  -0.028355
    10     H      -0.244900  -0.806066   0.028726
    11     H      -0.372192   0.001595   0.186363
    12     H      -0.062977  -0.175405   0.010608
    13     H       0.001524  -0.000474  -0.000264
    14     I      -0.000002  -0.000005   0.000002
    15     I       0.000001   0.000002  -0.000001

PES point character: Geometry corresponds to a local minimum on the PES.




 ============================
 Statistical Thermal Analysis  ***  ideal gas assumed  ***
 ============================
  
 Pressure:                  1.000000 atm.
 Temperature:             298.150000 K



 Moments of Inertia [amu*bohr^2] and principal axis
 ==================================================

         288.3398       9562.6382       9732.5442
 ------------------------------------------------
          -0.3458         -0.4345          0.8316
          -0.8262          0.5610         -0.0505
           0.4447          0.7046          0.5530


 The rotational contribution to the molecular entropy includes
 a term, dependent on the symmetry number sigma. The results 
 reported below were computed using sigma = 1, determined from
 the point group symmetry of the input geometry (NOSYM). 
 If this is not the correct symmetry, try symmetrizing the molecule before
 running the calculation (note: linear molecules should be aligned along one
 of the Cartesian axes).
 Contributions from frequencies below 20 1/cm are not included in vibrational sums.
 Their contributions, if any, are reported separately.


     Temp                                                        Transl      Rotat     Vibrat     Total
     ----                                                        ------      -----     ------     -----

     298.15   Entropy (cal/mol-K):                               43.239     31.662     34.828    109.730
              Nuclear Internal Energy (kcal/mol):                 0.889      0.889     74.595     76.372
              Constant Volume Heat Capacity (cal/mol-K):          2.981      2.981     24.827     30.789
          (c) Constant Volume Heat Capacity (cal/mol-K):          2.981      2.981     21.619     27.580

 Contributions from frequencies below 20 1/cm
 Frequency (1/cm):                                   17.875
 Entropy (cal/mol-K):                                 6.857
 Nuclear Internal Energy (kcal/mol):                  0.593
 Constant Volume Heat Capacity (cal/mol-K):           1.986

       Summary of energy terms
                                                   hartree              eV         kcal/mol           kJ/mol
                                      --------------------     -----------       ----------      -----------
      Energy from Engine:               -2.654009994826394        -72.2193         -1665.42         -6968.10
      Nuclear Internal Energy:           0.121706624036801          3.3118            76.37           319.54
  (c) Nuclear Internal Energy:           0.120088792985002          3.2678            75.36           315.29
      Internal Energy U:                -2.532303370789592        -68.9075         -1589.04         -6648.56
      pV/n = RT:                         0.000944186013486          0.0257             0.59             2.48
      Enthalpy H:                       -2.531359184776106        -68.8818         -1588.45         -6646.08
      -T*S:                             -0.052136148089303         -1.4187           -32.72          -136.88
  (c) -T*S:                             -0.051735079483405         -1.4078           -32.46          -135.83
      Gibbs free energy:                -2.583495332865409        -70.3005         -1621.17         -6782.97
 
 
 
  (c) The properties marked with this symbol have been corrected using 'low vibrational frequency free rotor
      interpolation corrections'. For those terms all positive frequencies are used (also ones below 20 1/cm),
      but the contribution to the partition function of small vibrational frequencies is modified as described
      in the following paper:
      S. Grimme, 'Supramolecular Binding Thermodynamics by Dispersion-Corrected Density Functional Theory'
      (Chem. Eur. J. 2012, 18, 9955-9964)
      Configuration: Dampener Frequency          :   100.000 1/cm
                     Dampener Alpha              :     4.000
                     Averaging Moment of Inertia : 1.000E-44 kg m2

--------------
Atomic charges
--------------
  Index   Atom    Charge
      1      H   -0.1646
      2      C    0.4478
      3      C    0.3698
      4      C    0.7089
      5      O   -0.5026
      6      H   -0.1865
      7      H   -0.1640
      8      H   -0.2189
      9      C    0.6344
     10      H   -0.1874
     11      H   -0.2262
     12      H   -0.2047
     13      H   -0.2525
     14      I    0.0256
     15      I   -0.0789


Dipole moment vector    (Debye):    -0.15832535   -4.57780798    1.26815634
              magnitude (Debye):     4.75285317


Final PES point is a local minimum. Geometry optimization successful!


AMS application finished. Exiting.
NORMAL TERMINATION
     Total cpu time:   15315.14
  Total system time:     103.45
 Total elapsed time:   19726.67
