

 Parallel Execution: Process Information
 ==============================================================================
 Rank   Node Name                              NodeID   MyNodeRank  NodeMaster
    0   node115                                   0          0          0
    1   node115                                   0          1         -1
    2   node115                                   0          2         -1
    3   node115                                   0          3         -1
 ==============================================================================


May use up to 122928MB of RAM as shared memory on node 0

 *******************************************************************************
 *                                                                             *
 *  --------------------------------                                           *
 *   Amsterdam Modeling Suite (AMS)              2021.102                      *
 *  --------------------------------                                           *
 *                                               r95042 2021-06-07             *
 *                                                                             *
 *                                                                             *
 *                              =================                              *
 *                              |               |                              *
 *                              |     A M S     |                              *
 *                              |               |                              *
 *                              =================                              *
 *                                                                             *
 *                                                                             *
 *   Online information and documentation:  https://www.scm.com/support/       *
 *   E-mail:  support@scm.com   info@scm.com                                   *
 *                                                                             *
 *   Scientific publications using AMS results must be properly referenced     *
 *   See the User Manuals (or the web site) for recommended citations          *
 *   The terms and conditions of the End User License Agreement apply to       *
 *   the use of AMS, https://www.scm.com/license-terms/                        *
 *                                                                             *
 **********************  x86_64_linux_intel / intelmpi  ************************
 
 Licensed to: VU/FEW (+ SARA) / ALGEMEEN / Amsterdam / THE NETHERLANDS
 SCM User ID: u7668
  
 AMS 2021.102  RunTime: Jan23-2022 07:18:28  ShM Nodes: 1  Procs: 4

 AMS jobname: 19.achiral_catalyst.H_H_ZnCl2.P1
 AMS jobid  : 875480370

 Start   directory: /scistor/tc/yhk800/MasterProject/calculations/achiral_catalyst_H_H_ZnCl2/19.achiral_catalyst.H_H_ZnCl2.P1/
 Results directory: /scistor/tc/yhk800/MasterProject/calculations/achiral_catalyst_H_H_ZnCl2/19.achiral_catalyst.H_H_ZnCl2.P1/
 Scratch directory: /scratch/3977/amstmp_19.achiral_catalyst.H_H_ZnCl2.P1_kid0.875480370/


 Communication costs MPI_COMM_WORLD:      2.215 usec per message,   0.0053 usec per 8-byte item
 Communication costs for intra-node:      0.042 usec per message,   0.0075 usec per 8-byte item

 RNG seed: 989683719 18266764 -1439178685 -240109565 -1419767096 -1822738239 -1710289019 1547474452



                      ************************************************************************
                      *  ADF 2021.102  RunTime: Jan23-2022 07:18:29  ShM Nodes: 1  Procs: 4  *
                      ************************************************************************
  
       ***************************
       *  GEOMETRY OPTIMIZATION  *
       ***************************

Optimization Method                    Quasi Newton
Optimization Coordinates               Delocalized Coordinates
Optimize lattice                       F
 
 ------------------------------------------------------
 Convergence criteria (Hartree,Angstrom)
 ------------------------------------------------------
 Maximum gradient               0.001000000000
 Maximum rms gradient           0.000666666667
 Maximum step allowed           0.010000000000
 Maximum rms step allowed       0.006666666667
 Maximum energy change allowe   0.000150000000
 Maximum stress energy allowe   0.000500000000
 
Initial model Hessian                  Automatic Hessian
 
------------------------------------
Quasi-Newton Optimizer Parameters
------------------------------------
Hessian Update Method                  BFGS
Maximum number of steps                  250
First GDIIS cycle                          0
Maximum GDIIS vectors                      0
Trust radius (bohr)                        0.200000
Trust radius varies                        T
Constraints converged at all steps         T
Use projector                              T
 
 Rigid motions settings for: old optimizer
 Atomic rotations (x,y,z):     T T T
 Atomic translations (x,y,z):  T T T
 Tolerance:                   1.000000000000000E-006
 
--------
Geometry
--------
Formula: C4H7Cl2OSn
Atoms
  Index Symbol   x (angstrom)   y (angstrom)   z (angstrom)
      1      H     0.30883566    -1.71322737     0.34845077
      2      C    -0.85933175     0.07325638     0.95361639
      3      C     0.30566658    -0.62207952     0.35697327
      4      C     1.44363467     0.02246096    -0.23005168
      5      O     1.61592302     1.24992601    -0.30213575
      6      H    -0.69195270     1.15283717     0.94428296
      7      H    -1.40849480    -1.48746718     2.39475159
      8      C    -1.20706757    -0.41125312     2.37345100
      9      H    -0.38777363    -0.20492454     3.06899219
     10      H    -2.09949902     0.10683830     2.73788510
     11      H    -1.70568492    -0.10955427     0.32499363
     12      H     2.18584514    -0.63577321    -0.63098981
     13     Sn     2.05590296     4.51894516    -0.20247893
     14     Cl     3.29838098     5.71295869     1.44143904
     15     Cl     1.57030629     6.27143069    -1.74027784
 
Total System Charge             0.00000
 
 
----------------
ADF Engine Input
----------------
 
 NumericalQuality VeryGood
 SCF
 Converge 1.0e-6
 Iterations 99
 End
 SYMMETRY NOSYM
 SpinPolarization 1.0
 Unrestricted Yes
 XC
 GGA OLYP
 End
 basis
 core None
 type TZ2P
 End
 

 Title: *** (NO TITLE) ***

Bad geometry: added dihedral    12    4   13   14
 Using automatic Hessian for delocalized coordinates.
 *** GOStep1 ***

 Energy gradients wrt nuclear displacements
 ==========================================

     Atom      Cartesian (a.u./angstrom)
                 X         Y         Z
 ----------------------------------------
     1 H     0.000159 -0.000039  0.000092
     2 C    -0.029190 -0.005912 -0.021174
     3 C     0.000211 -0.001937 -0.001117
     4 C     0.028825 -0.020701 -0.015761
     5 O     0.004112 -0.001972 -0.001646
     6 H    -0.001697 -0.001396 -0.000190
     7 H     0.000038 -0.000266  0.000088
     8 C    -0.000773 -0.000030 -0.001989
     9 H     0.000272  0.000288 -0.000142
    10 H     0.000061  0.000115  0.000043
    11 H     0.032542  0.007113  0.023609
    12 H    -0.033689  0.030445  0.018134
    13 Sn    0.004904  0.015028  0.000396
    14 Cl   -0.008352 -0.008412 -0.010348
    15 Cl    0.002577 -0.012325  0.010004
 ----------------------------------------
 Mulliken charges used for AMS results%charges...
 
----------------------------------------------------------------------
Geometry Convergence after Step   1       (Hartree/Angstrom,Angstrom)
----------------------------------------------------------------------
current energy                               -2.72154927 Hartree
energy change                      -2.72154927     0.00015000    F
constrained gradient max            0.03369821     0.00100000    F
constrained gradient rms            0.01307698     0.00066667    F
gradient max                        0.03369821
gradient rms                        0.01307698
cart. step max                      0.02329219     0.01000000    F
cart. step rms                      0.00765662     0.00666667    F
 
 
--------
Geometry
--------
Formula: C4H7Cl2OSn
Atoms
  Index Symbol   x (angstrom)   y (angstrom)   z (angstrom)
      1      H     0.30873010    -1.71455967     0.34935075
      2      C    -0.86234887     0.07090789     0.95316677
      3      C     0.30489675    -0.62344111     0.35836850
      4      C     1.44373992     0.02187636    -0.22667703
      5      O     1.60048439     1.25343275    -0.29530606
      6      H    -0.69110571     1.15081115     0.94396340
      7      H    -1.40823766    -1.48807499     2.39748261
      8      C    -1.20596107    -0.41217085     2.37556423
      9      H    -0.38532402    -0.20679555     3.06964887
     10      H    -2.09754090     0.10608008     2.74179536
     11      H    -1.72767031    -0.11583577     0.31301581
     12      H     2.20913733    -0.64814039    -0.63704054
     13     Sn     2.04246695     4.52459419    -0.19568952
     14     Cl     3.31261786     5.72141733     1.43769395
     15     Cl     1.58080617     6.28427273    -1.74643516
 
Total System Charge             0.00000
 
 *** GOStep2 ***

 Energy gradients wrt nuclear displacements
 ==========================================

     Atom      Cartesian (a.u./angstrom)
                 X         Y         Z
 ----------------------------------------
     1 H     0.000285  0.000106 -0.000129
     2 C    -0.010671 -0.002558 -0.007103
     3 C    -0.000221  0.001140  0.000310
     4 C     0.010621 -0.009793 -0.005287
     5 O     0.001408  0.005218 -0.000394
     6 H    -0.000139 -0.000251  0.000372
     7 H     0.000037 -0.000093 -0.000025
     8 C     0.000258  0.000277 -0.000520
     9 H    -0.000030 -0.000020  0.000183
    10 H     0.000002  0.000020  0.000036
    11 H     0.009719  0.002199  0.007197
    12 H    -0.010460  0.009252  0.005318
    13 Sn    0.003900  0.009562  0.000058
    14 Cl   -0.006471 -0.006030 -0.007686
    15 Cl    0.001762 -0.009030  0.007671
 ----------------------------------------
 Mulliken charges used for AMS results%charges...

 dE(predicted):    -0.13263E-02, dE(actual):    -0.17861E-02, Trust radius:    0.200000, all in a.u.
 
----------------------------------------------------------------------
Geometry Convergence after Step   2       (Hartree/Angstrom,Angstrom)
----------------------------------------------------------------------
current energy                               -2.72333541 Hartree
energy change                      -0.00178615     0.00015000    F
constrained gradient max            0.01067544     0.00100000    F
constrained gradient rms            0.00516603     0.00066667    F
gradient max                        0.01067544
gradient rms                        0.00516603
cart. step max                      0.02445699     0.01000000    F
cart. step rms                      0.00884855     0.00666667    F
 
 
--------
Geometry
--------
Formula: C4H7Cl2OSn
Atoms
  Index Symbol   x (angstrom)   y (angstrom)   z (angstrom)
      1      H     0.31077330    -1.71674163     0.34943730
      2      C    -0.86440000     0.06627258     0.95420763
      3      C     0.30354098    -0.62555565     0.35855857
      4      C     1.43824981     0.02670446    -0.22512922
      5      O     1.58383944     1.25846143    -0.28978818
      6      H    -0.69528591     1.14679756     0.94303611
      7      H    -1.40637901    -1.49379058     2.39945571
      8      C    -1.20622882    -0.41756548     2.37723154
      9      H    -0.38503364    -0.21042946     3.06998854
     10      H    -2.09855359     0.09886653     2.74412106
     11      H    -1.73927877    -0.12542156     0.30769350
     12      H     2.22299047    -0.64656098    -0.63327760
     13     Sn     2.01949279     4.53539580    -0.18477510
     14     Cl     3.33707484     5.72900499     1.42900648
     15     Cl     1.60388902     6.29893614    -1.76086441
 
Total System Charge             0.00000
 
 *** GOStep3 ***

 Energy gradients wrt nuclear displacements
 ==========================================

     Atom      Cartesian (a.u./angstrom)
                 X         Y         Z
 ----------------------------------------
     1 H     0.000138 -0.000127 -0.000184
     2 C    -0.000256 -0.000098  0.000129
     3 C     0.000778  0.002315  0.000481
     4 C    -0.000607  0.000341 -0.001089
     5 O     0.000089  0.003485  0.000802
     6 H     0.000367  0.000276  0.000319
     7 H    -0.000014 -0.000055  0.000008
     8 C     0.000420  0.000033  0.000234
     9 H    -0.000097 -0.000074  0.000058
    10 H    -0.000057 -0.000026 -0.000004
    11 H    -0.001144 -0.000271 -0.000735
    12 H     0.001026 -0.000617 -0.000014
    13 Sn    0.002724  0.003174 -0.000345
    14 Cl   -0.004197 -0.003219 -0.004555
    15 Cl    0.000828 -0.005138  0.004896
 ----------------------------------------
 Mulliken charges used for AMS results%charges...

 dE(predicted):    -0.35536E-03, dE(actual):    -0.45811E-03, Trust radius:    0.200000, all in a.u.
 
----------------------------------------------------------------------
Geometry Convergence after Step   3       (Hartree/Angstrom,Angstrom)
----------------------------------------------------------------------
current energy                               -2.72379352 Hartree
energy change                      -0.00045811     0.00015000    F
constrained gradient max            0.00515794     0.00100000    F
constrained gradient rms            0.00177716     0.00066667    F
gradient max                        0.00515794
gradient rms                        0.00177716
cart. step max                      0.03440779     0.01000000    F
cart. step rms                      0.01107664     0.00666667    F
 
 
--------
Geometry
--------
Formula: C4H7Cl2OSn
Atoms
  Index Symbol   x (angstrom)   y (angstrom)   z (angstrom)
      1      H     0.31789851    -1.71791081     0.35178988
      2      C    -0.86599058     0.05987191     0.95639545
      3      C     0.30524948    -0.62686244     0.36194426
      4      C     1.43766473     0.03481530    -0.21561508
      5      O     1.57047775     1.26715883    -0.28435211
      6      H    -0.70269855     1.14117042     0.94427232
      7      H    -1.40569596    -1.50279092     2.39958228
      8      C    -1.21008329    -0.42577509     2.37822105
      9      H    -0.39126652    -0.21522076     3.07276204
     10      H    -2.10543649     0.08691253     2.74284422
     11      H    -1.74139231    -0.13666807     0.30568939
     12      H     2.22423733    -0.63497395    -0.63908516
     13     Sn     1.98874719     4.55126332    -0.16890994
     14     Cl     3.37148263     5.73348933     1.41139277
     15     Cl     1.63149699     6.30989455    -1.77802946
 
Total System Charge             0.00000
 
 *** GOStep4 ***

 Energy gradients wrt nuclear displacements
 ==========================================

     Atom      Cartesian (a.u./angstrom)
                 X         Y         Z
 ----------------------------------------
     1 H     0.000040 -0.000177  0.000015
     2 C     0.003528  0.001033  0.002639
     3 C     0.000135  0.001682 -0.001168
     4 C    -0.002239  0.004432  0.004938
     5 O    -0.000898  0.002404 -0.000400
     6 H     0.000244  0.000279  0.000157
     7 H    -0.000020 -0.000012 -0.000010
     8 C     0.000156 -0.000072  0.000357
     9 H    -0.000058 -0.000029 -0.000052
    10 H    -0.000048 -0.000044 -0.000001
    11 H    -0.004185 -0.001002 -0.003027
    12 H     0.003755 -0.003616 -0.003350
    13 Sn    0.001689 -0.001926 -0.000671
    14 Cl   -0.002318 -0.000939 -0.002140
    15 Cl    0.000218 -0.002012  0.002711
 ----------------------------------------
 Mulliken charges used for AMS results%charges...

 dE(predicted):    -0.11195E-03, dE(actual):    -0.16332E-03, Trust radius:    0.400000, all in a.u.
 
----------------------------------------------------------------------
Geometry Convergence after Step   4       (Hartree/Angstrom,Angstrom)
----------------------------------------------------------------------
current energy                               -2.72395684 Hartree
energy change                      -0.00016332     0.00015000    F
constrained gradient max            0.00494159     0.00100000    F
constrained gradient rms            0.00197891     0.00066667    F
gradient max                        0.00494159
gradient rms                        0.00197891
cart. step max                      0.06560901     0.01000000    F
cart. step rms                      0.02219513     0.00666667    F
 
 
--------
Geometry
--------
Formula: C4H7Cl2OSn
Atoms
  Index Symbol   x (angstrom)   y (angstrom)   z (angstrom)
      1      H     0.33090900    -1.71825378     0.35280532
      2      C    -0.87175654     0.04726831     0.95968016
      3      C     0.30567672    -0.62767832     0.36411192
      4      C     1.42580541     0.05246697    -0.21778197
      5      O     1.54456677     1.28589629    -0.27818419
      6      H    -0.72151491     1.13010590     0.94538210
      7      H    -1.39969795    -1.52046694     2.40131821
      8      C    -1.21452190    -0.44169370     2.38044018
      9      H    -0.39863531    -0.22310967     3.07602886
     10      H    -2.11523538     0.06262541     2.74329415
     11      H    -1.74610780    -0.15922380     0.30638316
     12      H     2.23454998    -0.60794445    -0.62377141
     13     Sn     1.92313818     4.58402951    -0.13705582
     14     Cl     3.43133969     5.73291895     1.37399793
     15     Cl     1.69617496     6.32743347    -1.80774667
 
Total System Charge             0.00000
 
 *** GOStep5 ***

 Energy gradients wrt nuclear displacements
 ==========================================

     Atom      Cartesian (a.u./angstrom)
                 X         Y         Z
 ----------------------------------------
     1 H    -0.000346 -0.000117 -0.000144
     2 C     0.006464  0.002518  0.004554
     3 C     0.000952 -0.000407  0.000406
     4 C    -0.008063  0.008789  0.001106
     5 O    -0.000016  0.000865  0.001229
     6 H    -0.000098  0.000065 -0.000110
     7 H    -0.000004  0.000061 -0.000039
     8 C    -0.000333 -0.000309  0.000434
     9 H     0.000048  0.000054 -0.000192
    10 H    -0.000020 -0.000029 -0.000037
    11 H    -0.005969 -0.001457 -0.004426
    12 H     0.007472 -0.005808 -0.002547
    13 Sn   -0.001305 -0.010548 -0.000636
    14 Cl    0.001249  0.003026  0.001249
    15 Cl   -0.000031  0.003295 -0.000846
 ----------------------------------------
 Mulliken charges used for AMS results%charges...

 dE(predicted):    -0.19372E-03, dE(actual):    -0.19673E-03, Trust radius:    0.800000, all in a.u.
 
----------------------------------------------------------------------
Geometry Convergence after Step   5       (Hartree/Angstrom,Angstrom)
----------------------------------------------------------------------
current energy                               -2.72415357 Hartree
energy change                      -0.00019673     0.00015000    F
constrained gradient max            0.01054727     0.00100000    F
constrained gradient rms            0.00335691     0.00066667    F
gradient max                        0.01054727
gradient rms                        0.00335691
cart. step max                      0.06708798     0.01000000    F
cart. step rms                      0.02271281     0.00666667    F
 
 
--------
Geometry
--------
Formula: C4H7Cl2OSn
Atoms
  Index Symbol   x (angstrom)   y (angstrom)   z (angstrom)
      1      H     0.34946948    -1.71423235     0.35698130
      2      C    -0.87762983     0.03618134     0.96279455
      3      C     0.31006063    -0.62433749     0.36984357
      4      C     1.42373661     0.07276231    -0.20706252
      5      O     1.52328531     1.30791272    -0.26960762
      6      H    -0.74083901     1.12055885     0.94938898
      7      H    -1.39479800    -1.53882898     2.39989396
      8      C    -1.22134224    -0.45810076     2.38111320
      9      H    -0.41097869    -0.23155805     3.08072515
     10      H    -2.12895705     0.03608474     2.74054815
     11      H    -1.74460278    -0.17915962     0.30697775
     12      H     2.23382383    -0.57395098    -0.62397554
     13     Sn     1.85605020     4.61936562    -0.10282385
     14     Cl     3.48933605     5.72085239     1.32517642
     15     Cl     1.75807641     6.33082440    -1.83107157
 
Total System Charge             0.00000
 
 *** GOStep6 ***

 Energy gradients wrt nuclear displacements
 ==========================================

     Atom      Cartesian (a.u./angstrom)
                 X         Y         Z
 ----------------------------------------
     1 H    -0.000312  0.000093 -0.000043
     2 C     0.004364  0.002659  0.003766
     3 C    -0.000049 -0.002215 -0.000608
     4 C    -0.003906  0.007719  0.003082
     5 O    -0.000412  0.000382  0.000069
     6 H    -0.000412 -0.000220 -0.000268
     7 H     0.000043  0.000082 -0.000067
     8 C    -0.000654 -0.000263  0.000145
     9 H     0.000125  0.000082 -0.000165
    10 H     0.000070 -0.000031 -0.000039
    11 H    -0.003674 -0.000904 -0.002816
    12 H     0.004769 -0.004040 -0.002764
    13 Sn   -0.004658 -0.015718  0.000036
    14 Cl    0.003917  0.005703  0.002544
    15 Cl    0.000787  0.006670 -0.002872
 ----------------------------------------
 Mulliken charges used for AMS results%charges...

 dE(predicted):    -0.14216E-03, dE(actual):    -0.19679E-03, Trust radius:    0.800000, all in a.u.
 
----------------------------------------------------------------------
Geometry Convergence after Step   6       (Hartree/Angstrom,Angstrom)
----------------------------------------------------------------------
current energy                               -2.72435036 Hartree
energy change                      -0.00019679     0.00015000    F
constrained gradient max            0.01572724     0.00100000    F
constrained gradient rms            0.00357963     0.00066667    F
gradient max                        0.01572724
gradient rms                        0.00357963
cart. step max                      0.05671891     0.01000000    F
cart. step rms                      0.01937885     0.00666667    F
 
 
--------
Geometry
--------
Formula: C4H7Cl2OSn
Atoms
  Index Symbol   x (angstrom)   y (angstrom)   z (angstrom)
      1      H     0.36900088    -1.70489358     0.36217223
      2      C    -0.88279474     0.03010732     0.96363785
      3      C     0.31548644    -0.61573932     0.37465724
      4      C     1.42336255     0.09337817    -0.20016806
      5      O     1.50957541     1.33037408    -0.26486802
      6      H    -0.75773476     1.11582347     0.95239717
      7      H    -1.38718660    -1.55188310     2.39717348
      8      C    -1.22522822    -0.46928557     2.38004002
      9      H    -0.42017264    -0.23516979     3.08339997
     10      H    -2.13931320     0.01466884     2.73703708
     11      H    -1.73856191    -0.19237001     0.30862631
     12      H     2.22929406    -0.53853528    -0.62093246
     13     Sn     1.79933129     4.65392624    -0.07317766
     14     Cl     3.53169899     5.68037831     1.29453940
     15     Cl     1.79793336     6.31359437    -1.85563262
 
Total System Charge             0.00000
 
 *** GOStep7 ***

 Energy gradients wrt nuclear displacements
 ==========================================

     Atom      Cartesian (a.u./angstrom)
                 X         Y         Z
 ----------------------------------------
     1 H    -0.000112  0.000371 -0.000011
     2 C    -0.002588  0.000969 -0.000635
     3 C    -0.000880 -0.003028 -0.000901
     4 C     0.004509  0.001235  0.001082
     5 O    -0.000222  0.000735 -0.000804
     6 H    -0.000570 -0.000478 -0.000286
     7 H     0.000065  0.000060 -0.000047
     8 C    -0.000594 -0.000047 -0.000417
     9 H     0.000117  0.000060  0.000026
    10 H     0.000124  0.000003 -0.000032
    11 H     0.002951  0.000861  0.002091
    12 H    -0.003145  0.001947  0.000326
    13 Sn   -0.005647 -0.015711  0.000449
    14 Cl    0.004818  0.005894  0.002729
    15 Cl    0.001176  0.007130 -0.003572
 ----------------------------------------
 Mulliken charges used for AMS results%charges...

 dE(predicted):    -0.22313E-03, dE(actual):    -0.34262E-03, Trust radius:    0.800000, all in a.u.
 
----------------------------------------------------------------------
Geometry Convergence after Step   7       (Hartree/Angstrom,Angstrom)
----------------------------------------------------------------------
current energy                               -2.72469297 Hartree
energy change                      -0.00034262     0.00015000    F
constrained gradient max            0.01570957     0.00100000    F
constrained gradient rms            0.00327060     0.00066667    F
gradient max                        0.01570957
gradient rms                        0.00327060
cart. step max                      0.09501601     0.01000000    F
cart. step rms                      0.03279412     0.00666667    F
 
 
--------
Geometry
--------
Formula: C4H7Cl2OSn
Atoms
  Index Symbol   x (angstrom)   y (angstrom)   z (angstrom)
      1      H     0.40199692    -1.68456862     0.36999722
      2      C    -0.89125491     0.02364411     0.96291067
      3      C     0.32445519    -0.59673954     0.38005598
      4      C     1.42085932     0.13075736    -0.19390482
      5      O     1.48528151     1.37064049    -0.25840108
      6      H    -0.78475002     1.11157731     0.95541164
      7      H    -1.37041630    -1.56886491     2.39341541
      8      C    -1.22779412    -0.48340326     2.37766112
      9      H    -0.42994187    -0.23602697     3.08471299
     10      H    -2.15170466    -0.01668964     2.73262600
     11      H    -1.73311922    -0.21206207     0.30821465
     12      H     2.23187028    -0.47954595    -0.60700660
     13     Sn     1.70615687     4.71286408    -0.02394312
     14     Cl     3.58643858     5.58536230     1.24568301
     15     Cl     1.85661335     6.26742946    -1.88853114
 
Total System Charge             0.00000
 
 *** GOStep8 ***

 Energy gradients wrt nuclear displacements
 ==========================================

     Atom      Cartesian (a.u./angstrom)
                 X         Y         Z
 ----------------------------------------
     1 H     0.000237  0.000494 -0.000102
     2 C    -0.011204 -0.001739 -0.005962
     3 C    -0.000860 -0.002474 -0.000342
     4 C     0.013664 -0.008083 -0.004307
     5 O     0.000088  0.001601 -0.000748
     6 H    -0.000274 -0.000476 -0.000086
     7 H     0.000061 -0.000018 -0.000002
     8 C    -0.000146  0.000327 -0.000886
     9 H     0.000035 -0.000032  0.000253
    10 H     0.000120  0.000042  0.000001
    11 H     0.009978  0.002945  0.007493
    12 H    -0.012197  0.008770  0.005049
    13 Sn   -0.006442 -0.013084  0.001104
    14 Cl    0.005062  0.005254  0.001960
    15 Cl    0.001877  0.006473 -0.003425
 ----------------------------------------
 Mulliken charges used for AMS results%charges...

 dE(predicted):    -0.34532E-03, dE(actual):    -0.50287E-03, Trust radius:    0.800000, all in a.u.
 
----------------------------------------------------------------------
Geometry Convergence after Step   8       (Hartree/Angstrom,Angstrom)
----------------------------------------------------------------------
current energy                               -2.72519584 Hartree
energy change                      -0.00050287     0.00015000    F
constrained gradient max            0.01366485     0.00100000    F
constrained gradient rms            0.00514264     0.00066667    F
gradient max                        0.01366485
gradient rms                        0.00514264
cart. step max                      0.15798233     0.01000000    F
cart. step rms                      0.03688962     0.00666667    F
 
 
--------
Geometry
--------
Formula: C4H7Cl2OSn
Atoms
  Index Symbol   x (angstrom)   y (angstrom)   z (angstrom)
      1      H     0.43581476    -1.65387232     0.37861028
      2      C    -0.89555465     0.02692908     0.95844515
      3      C     0.33526999    -0.56744421     0.38334166
      4      C     1.42044645     0.17363548    -0.18842058
      5      O     1.46551769     1.41593470    -0.25564739
      6      H    -0.80617538     1.11694572     0.95541905
      7      H    -1.34623879    -1.57534199     2.38791781
      8      C    -1.22304708    -0.48730625     2.37271304
      9      H    -0.43121310    -0.22637600     3.08153065
     10      H    -2.15593988    -0.03818052     2.72745138
     11      H    -1.72627897    -0.22234113     0.30377070
     12      H     2.23787552    -0.41899431    -0.59270549
     13     Sn     1.62826297     4.77522386     0.02167096
     14     Cl     3.61190786     5.42737997     1.23599577
     15     Cl     1.87404352     6.17818207    -1.93119108
 
Total System Charge             0.00000
 
 *** GOStep9 ***

 Energy gradients wrt nuclear displacements
 ==========================================

     Atom      Cartesian (a.u./angstrom)
                 X         Y         Z
 ----------------------------------------
     1 H     0.000597  0.000323 -0.000082
     2 C    -0.016708 -0.005396 -0.011092
     3 C    -0.000677  0.001357  0.000079
     4 C     0.019363 -0.017265 -0.007428
     5 O     0.000222  0.002595 -0.000611
     6 H     0.000485 -0.000127  0.000348
     7 H    -0.000008 -0.000145  0.000097
     8 C     0.000878  0.000730 -0.001161
     9 H    -0.000140 -0.000168  0.000466
    10 H     0.000007  0.000083  0.000053
    11 H     0.014765  0.004501  0.011220
    12 H    -0.019421  0.013755  0.008574
    13 Sn    0.000094 -0.003757 -0.000847
    14 Cl    0.000798  0.001485  0.000914
    15 Cl   -0.000255  0.002028 -0.000529
 ----------------------------------------
 Mulliken charges used for AMS results%charges...

 dE(predicted):    -0.50635E-03, dE(actual):    -0.66849E-03, Trust radius:    0.800000, all in a.u.
 
----------------------------------------------------------------------
Geometry Convergence after Step   9       (Hartree/Angstrom,Angstrom)
----------------------------------------------------------------------
current energy                               -2.72586433 Hartree
energy change                      -0.00066849     0.00015000    F
constrained gradient max            0.01941242     0.00100000    F
constrained gradient rms            0.00699182     0.00066667    F
gradient max                        0.01941242
gradient rms                        0.00699182
cart. step max                      0.20029451     0.01000000    F
cart. step rms                      0.05915877     0.00666667    F
 
 
--------
Geometry
--------
Formula: C4H7Cl2OSn
Atoms
  Index Symbol   x (angstrom)   y (angstrom)   z (angstrom)
      1      H     0.48701650    -1.61130762     0.38397548
      2      C    -0.90236355     0.02536881     0.95811519
      3      C     0.35189359    -0.52820359     0.38949799
      4      C     1.41587165     0.24544129    -0.17619675
      5      O     1.42094441     1.48911726    -0.23932594
      6      H    -0.84496440     1.11796761     0.96036523
      7      H    -1.31239374    -1.59407624     2.38133547
      8      C    -1.22153208    -0.50274426     2.36944226
      9      H    -0.44143434    -0.22018500     3.08276971
     10      H    -2.16939101    -0.08297782     2.72084938
     11      H    -1.72384831    -0.24860492     0.29486734
     12      H     2.26261899    -0.32123693    -0.56983362
     13     Sn     1.48033130     4.87046236     0.10390422
     14     Cl     3.63794804     5.22708546     1.10933430
     15     Cl     1.98399387     6.05826774    -1.93019833
 
Total System Charge             0.00000
 
 *** GOStep10 ***

 Energy gradients wrt nuclear displacements
 ==========================================

     Atom      Cartesian (a.u./angstrom)
                 X         Y         Z
 ----------------------------------------
     1 H     0.000807 -0.000042 -0.000286
     2 C    -0.014581 -0.004942 -0.008620
     3 C     0.000962  0.003564  0.000274
     4 C     0.015346 -0.016866 -0.007355
     5 O    -0.000070  0.002086  0.000233
     6 H     0.001030  0.000430  0.000715
     7 H    -0.000097 -0.000226  0.000140
     8 C     0.001150  0.000909 -0.000696
     9 H    -0.000242 -0.000201  0.000364
    10 H    -0.000127  0.000081  0.000137
    11 H     0.010622  0.003478  0.008342
    12 H    -0.015036  0.010110  0.006975
    13 Sn   -0.004991 -0.002847  0.001513
    14 Cl    0.001002  0.002835 -0.004090
    15 Cl    0.004224  0.001630  0.002356
 ----------------------------------------
 Mulliken charges used for AMS results%charges...

 dE(predicted):    -0.86672E-03, dE(actual):    -0.51731E-03, Trust radius:    0.800000, all in a.u.
 
----------------------------------------------------------------------
Geometry Convergence after Step  10       (Hartree/Angstrom,Angstrom)
----------------------------------------------------------------------
current energy                               -2.72638164 Hartree
energy change                      -0.00051731     0.00015000    F
constrained gradient max            0.01685462     0.00100000    F
constrained gradient rms            0.00590209     0.00066667    F
gradient max                        0.01685462
gradient rms                        0.00590209
cart. step max                      0.09005945     0.01000000    F
cart. step rms                      0.02651690     0.00666667    F
 
 
--------
Geometry
--------
Formula: C4H7Cl2OSn
Atoms
  Index Symbol   x (angstrom)   y (angstrom)   z (angstrom)
      1      H     0.48220218    -1.59999194     0.37041577
      2      C    -0.89367073     0.03916808     0.95740556
      3      C     0.35284288    -0.51584182     0.38160303
      4      C     1.41274297     0.26089453    -0.18337713
      5      O     1.41835810     1.50180093    -0.24052491
      6      H    -0.84046478     1.13205645     0.95689946
      7      H    -1.29808681    -1.58109830     2.38268667
      8      C    -1.20917106    -0.48981340     2.37047602
      9      H    -0.42495846    -0.20452544     3.07784986
     10      H    -2.15609725    -0.07107874     2.72544688
     11      H    -1.73786240    -0.24246411     0.28614044
     12      H     2.29323947    -0.31967437    -0.57278640
     13     Sn     1.48951624     4.88656877     0.10545656
     14     Cl     3.60729949     5.13805303     1.19939375
     15     Cl     1.92880106     5.99032047    -1.97818363
 
Total System Charge             0.00000
 
 *** GOStep11 ***

 Energy gradients wrt nuclear displacements
 ==========================================

     Atom      Cartesian (a.u./angstrom)
                 X         Y         Z
 ----------------------------------------
     1 H     0.000072 -0.000923 -0.000350
     2 C     0.008161  0.001437  0.004969
     3 C     0.001984  0.006048  0.001238
     4 C    -0.014451  0.001946  0.001865
     5 O     0.000117 -0.000793  0.001631
     6 H     0.001043  0.000933  0.000665
     7 H    -0.000202 -0.000115  0.000086
     8 C     0.000697  0.000104  0.000754
     9 H    -0.000171 -0.000014 -0.000314
    10 H    -0.000290 -0.000007  0.000166
    11 H    -0.009220 -0.003247 -0.006966
    12 H     0.012139 -0.006865 -0.003545
    13 Sn    0.006611  0.003516 -0.002970
    14 Cl   -0.004571 -0.000582 -0.001340
    15 Cl   -0.001920 -0.001438  0.004111
 ----------------------------------------
 Mulliken charges used for AMS results%charges...

 dE(predicted):    -0.11119E-02, dE(actual):    -0.58504E-03, Trust radius:    0.800000, all in a.u.
 
----------------------------------------------------------------------
Geometry Convergence after Step  11       (Hartree/Angstrom,Angstrom)
----------------------------------------------------------------------
current energy                               -2.72696669 Hartree
energy change                      -0.00058504     0.00015000    F
constrained gradient max            0.01444451     0.00100000    F
constrained gradient rms            0.00427195     0.00066667    F
gradient max                        0.01444451
gradient rms                        0.00427195
cart. step max                      0.05946630     0.01000000    F
cart. step rms                      0.01796641     0.00666667    F
 
 
--------
Geometry
--------
Formula: C4H7Cl2OSn
Atoms
  Index Symbol   x (angstrom)   y (angstrom)   z (angstrom)
      1      H     0.50044213    -1.58821626     0.37629467
      2      C    -0.89318760     0.03836349     0.95772803
      3      C     0.35972671    -0.50585027     0.38505811
      4      C     1.41357223     0.28254046    -0.17685009
      5      O     1.40589001     1.52371473    -0.23836213
      6      H    -0.85122717     1.13134635     0.95620538
      7      H    -1.28846017    -1.58531792     2.38076681
      8      C    -1.20939509    -0.49329607     2.36916073
      9      H    -0.43107235    -0.20138633     3.08056784
     10      H    -2.16145297    -0.08295376     2.71989508
     11      H    -1.72589485    -0.24888399     0.28769073
     12      H     2.28463006    -0.28569538    -0.57690446
     13     Sn     1.44969747     4.91280659     0.12949907
     14     Cl     3.60803685     5.07858673     1.16160114
     15     Cl     1.96338566     5.94861578    -1.97344898
 
Total System Charge             0.00000
 
 *** GOStep12 ***

 Energy gradients wrt nuclear displacements
 ==========================================

     Atom      Cartesian (a.u./angstrom)
                 X         Y         Z
 ----------------------------------------
     1 H     0.000110 -0.000497 -0.000072
     2 C     0.002596  0.000195  0.000970
     3 C     0.000863  0.003756 -0.000218
     4 C    -0.005146 -0.001883  0.002098
     5 O     0.000191 -0.000802  0.000200
     6 H     0.000493  0.000426  0.000403
     7 H    -0.000123 -0.000065  0.000055
     8 C     0.000412  0.000086  0.000242
     9 H    -0.000088  0.000005 -0.000125
    10 H    -0.000134  0.000034  0.000066
    11 H    -0.002596 -0.001025 -0.002111
    12 H     0.003558 -0.002131 -0.001434
    13 Sn    0.002643  0.002334 -0.001294
    14 Cl   -0.002861  0.000252 -0.002414
    15 Cl    0.000084 -0.000686  0.003634
 ----------------------------------------
 Mulliken charges used for AMS results%charges...

 dE(predicted):    -0.25207E-03, dE(actual):    -0.30008E-03, Trust radius:    0.800000, all in a.u.
 
----------------------------------------------------------------------
Geometry Convergence after Step  12       (Hartree/Angstrom,Angstrom)
----------------------------------------------------------------------
current energy                               -2.72726677 Hartree
energy change                      -0.00030008     0.00015000    F
constrained gradient max            0.00513776     0.00100000    F
constrained gradient rms            0.00171455     0.00066667    F
gradient max                        0.00513776
gradient rms                        0.00171455
cart. step max                      0.01909413     0.01000000    F
cart. step rms                      0.00475721     0.00666667    T
 
 
--------
Geometry
--------
Formula: C4H7Cl2OSn
Atoms
  Index Symbol   x (angstrom)   y (angstrom)   z (angstrom)
      1      H     0.50349404    -1.58811917     0.37745230
      2      C    -0.89180913     0.03800497     0.95827832
      3      C     0.36095736    -0.50643584     0.38449557
      4      C     1.41267507     0.28578956    -0.18012370
      5      O     1.40176235     1.52676094    -0.24307117
      6      H    -0.85278349     1.13070024     0.95347289
      7      H    -1.28547627    -1.58409013     2.38262146
      8      C    -1.20816045    -0.49201439     2.37001341
      9      H    -0.43086409    -0.19843959     3.08207039
     10      H    -2.16094302    -0.08248459     2.71936915
     11      H    -1.72079097    -0.24994019     0.29161798
     12      H     2.27670028    -0.27851668    -0.58468356
     13     Sn     1.45026811     4.91475858     0.13022624
     14     Cl     3.60465009     5.07178802     1.18069527
     15     Cl     1.96501104     5.93661242    -1.98353263
 
Total System Charge             0.00000
 
 *** GOStep13 ***

 Energy gradients wrt nuclear displacements
 ==========================================

     Atom      Cartesian (a.u./angstrom)
                 X         Y         Z
 ----------------------------------------
     1 H    -0.000039 -0.000066  0.000078
     2 C    -0.000639 -0.000192 -0.001234
     3 C     0.000016  0.000912 -0.000504
     4 C     0.000798 -0.002788  0.000571
     5 O     0.000322 -0.001139 -0.000292
     6 H    -0.000049 -0.000035  0.000086
     7 H    -0.000035  0.000009  0.000006
     8 C    -0.000034 -0.000005 -0.000059
     9 H     0.000004  0.000016 -0.000001
    10 H     0.000001  0.000039  0.000002
    11 H     0.001395  0.000482  0.000963
    12 H    -0.001592  0.000779  0.000423
    13 Sn    0.001707  0.002010 -0.000856
    14 Cl   -0.001717  0.000106 -0.001316
    15 Cl   -0.000137 -0.000128  0.002133
 ----------------------------------------
 Mulliken charges used for AMS results%charges...

 dE(predicted):    -0.62855E-04, dE(actual):    -0.78024E-04, Trust radius:    0.800000, all in a.u.
 
----------------------------------------------------------------------
Geometry Convergence after Step  13       (Hartree/Angstrom,Angstrom)
----------------------------------------------------------------------
current energy                               -2.72734479 Hartree
energy change                      -0.00007802     0.00015000    T
constrained gradient max            0.00278072     0.00100000    F
constrained gradient rms            0.00090293     0.00066667    F
gradient max                        0.00278072
gradient rms                        0.00090293
cart. step max                      0.06762479     0.01000000    F
cart. step rms                      0.01853950     0.00666667    F
 
 
--------
Geometry
--------
Formula: C4H7Cl2OSn
Atoms
  Index Symbol   x (angstrom)   y (angstrom)   z (angstrom)
      1      H     0.51777347    -1.57512092     0.37648041
      2      C    -0.89035693     0.04012296     0.95844325
      3      C     0.36577780    -0.49508829     0.38297249
      4      C     1.40798366     0.30974090    -0.18477882
      5      O     1.38299986     1.55008476    -0.24634390
      6      H    -0.86207803     1.13285891     0.95030504
      7      H    -1.26949704    -1.58334775     2.38444814
      8      C    -1.20212265    -0.49069046     2.37080840
      9      H    -0.42737417    -0.18956480     3.08262437
     10      H    -2.15842140    -0.08918687     2.71957023
     11      H    -1.71708033    -0.25572313     0.29341214
     12      H     2.27651337    -0.24495024    -0.59063958
     13     Sn     1.42242941     4.93957419     0.14783222
     14     Cl     3.58813719     5.00416324     1.18989206
     15     Cl     1.99000669     5.87150167    -1.99612452
 
Total System Charge             0.00000
 
 *** GOStep14 ***

 Energy gradients wrt nuclear displacements
 ==========================================

     Atom      Cartesian (a.u./angstrom)
                 X         Y         Z
 ----------------------------------------
     1 H    -0.000264  0.000218  0.000145
     2 C    -0.000560  0.000456 -0.001236
     3 C    -0.000410 -0.001164 -0.000263
     4 C     0.002212 -0.001414 -0.000531
     5 O     0.000410 -0.001874 -0.000198
     6 H    -0.000401 -0.000308 -0.000183
     7 H     0.000029  0.000078 -0.000034
     8 C    -0.000400 -0.000161 -0.000080
     9 H     0.000070  0.000024  0.000050
    10 H     0.000097  0.000029 -0.000046
    11 H     0.002000  0.000809  0.001422
    12 H    -0.002393  0.001008  0.000942
    13 Sn   -0.000164  0.002102  0.000025
    14 Cl   -0.000544 -0.000010 -0.001043
    15 Cl    0.000318  0.000207  0.001029
 ----------------------------------------
 Mulliken charges used for AMS results%charges...
 Rebuilding optimization coordinates

 dE(predicted):    -0.51611E-04, dE(actual):    -0.69763E-04, Trust radius:    1.000000, all in a.u.
 
----------------------------------------------------------------------
Geometry Convergence after Step  14       (Hartree/Angstrom,Angstrom)
----------------------------------------------------------------------
current energy                               -2.72741456 Hartree
energy change                      -0.00006976     0.00015000    T
constrained gradient max            0.00238041     0.00100000    F
constrained gradient rms            0.00090083     0.00066667    F
gradient max                        0.00238041
gradient rms                        0.00090083
cart. step max                      0.05493009     0.01000000    F
cart. step rms                      0.01443150     0.00666667    F
 
 
--------
Geometry
--------
Formula: C4H7Cl2OSn
Atoms
  Index Symbol   x (angstrom)   y (angstrom)   z (angstrom)
      1      H     0.52527218    -1.56726228     0.37251756
      2      C    -0.89084015     0.04090316     0.95837576
      3      C     0.36657861    -0.48838096     0.37889545
      4      C     1.40099010     0.32538088    -0.19345865
      5      O     1.36458437     1.56507281    -0.25344882
      6      H    -0.86907788     1.13369100     0.94647218
      7      H    -1.25457218    -1.58114621     2.38963895
      8      C    -1.19437050    -0.48813071     2.37316055
      9      H    -0.41901906    -0.18041401     3.08154396
     10      H    -2.15195764    -0.09189451     2.72428950
     11      H    -1.71937503    -0.26157660     0.29667798
     12      H     2.27384904    -0.22250339    -0.60235781
     13     Sn     1.41404820     4.95153983     0.15296887
     14     Cl     3.56817630     4.97252355     1.22816417
     15     Cl     2.01040455     5.81657158    -2.01453773
 
Total System Charge             0.00000
 
 *** GOStep15 ***

 Energy gradients wrt nuclear displacements
 ==========================================

     Atom      Cartesian (a.u./angstrom)
                 X         Y         Z
 ----------------------------------------
     1 H    -0.000383  0.000350  0.000152
     2 C     0.000123  0.001225 -0.000230
     3 C    -0.000627 -0.002472  0.000112
     4 C     0.002267  0.000387 -0.001016
     5 O     0.000160 -0.002426 -0.000008
     6 H    -0.000443 -0.000337 -0.000326
     7 H     0.000064  0.000106 -0.000058
     8 C    -0.000544 -0.000185 -0.000037
     9 H     0.000088  0.000014  0.000075
    10 H     0.000128  0.000018 -0.000054
    11 H     0.000997  0.000568  0.000690
    12 H    -0.001404  0.000330  0.000608
    13 Sn   -0.000727  0.002262  0.000421
    14 Cl    0.000329 -0.000346  0.000097
    15 Cl   -0.000028  0.000508 -0.000427
 ----------------------------------------
 Mulliken charges used for AMS results%charges...

 dE(predicted):    -0.43757E-04, dE(actual):    -0.61666E-04, Trust radius:    1.000000, all in a.u.
 
----------------------------------------------------------------------
Geometry Convergence after Step  15       (Hartree/Angstrom,Angstrom)
----------------------------------------------------------------------
current energy                               -2.72747622 Hartree
energy change                      -0.00006167     0.00015000    T
constrained gradient max            0.00247080     0.00100000    F
constrained gradient rms            0.00084525     0.00066667    F
gradient max                        0.00247080
gradient rms                        0.00084525
cart. step max                      0.02331636     0.01000000    F
cart. step rms                      0.00604684     0.00666667    T
 
 
--------
Geometry
--------
Formula: C4H7Cl2OSn
Atoms
  Index Symbol   x (angstrom)   y (angstrom)   z (angstrom)
      1      H     0.52798248    -1.56331059     0.37016141
      2      C    -0.89272371     0.04039939     0.95809551
      3      C     0.36563216    -0.48484397     0.37670337
      4      C     1.39679458     0.33182088    -0.19657553
      5      O     1.35631745     1.57150015    -0.25579661
      6      H    -0.87356135     1.13334964     0.94574191
      7      H    -1.24736959    -1.58142160     2.39214706
      8      C    -1.19065577    -0.48820754     2.37422646
      9      H    -0.41440747    -0.17719792     3.08012754
     10      H    -2.14859785    -0.09473569     2.72763707
     11      H    -1.72219762    -0.26535605     0.29814169
     12      H     2.27166504    -0.21307885    -0.60684565
     13     Sn     1.41049957     4.95548639     0.15365389
     14     Cl     3.55893366     4.96671470     1.24037131
     15     Cl     2.02637935     5.79325522    -2.01888751
 
Total System Charge             0.00000
 
 *** GOStep16 ***

 Energy gradients wrt nuclear displacements
 ==========================================

     Atom      Cartesian (a.u./angstrom)
                 X         Y         Z
 ----------------------------------------
     1 H    -0.000304  0.000228  0.000142
     2 C     0.000215  0.001161  0.000053
     3 C    -0.000434 -0.001859  0.000091
     4 C     0.001628  0.000203 -0.000765
     5 O     0.000094 -0.002399  0.000015
     6 H    -0.000242 -0.000201 -0.000248
     7 H     0.000038  0.000073 -0.000036
     8 C    -0.000369 -0.000105 -0.000036
     9 H     0.000055  0.000007  0.000058
    10 H     0.000084  0.000020 -0.000029
    11 H     0.000460  0.000355  0.000273
    12 H    -0.000807  0.000064  0.000347
    13 Sn   -0.000738  0.002364  0.000497
    14 Cl    0.000320 -0.000358  0.000084
    15 Cl   -0.000001  0.000446 -0.000445
 ----------------------------------------
 Mulliken charges used for AMS results%charges...

 dE(predicted):    -0.13832E-04, dE(actual):    -0.25869E-04, Trust radius:    1.000000, all in a.u.
 
----------------------------------------------------------------------
Geometry Convergence after Step  16       (Hartree/Angstrom,Angstrom)
----------------------------------------------------------------------
current energy                               -2.72750209 Hartree
energy change                      -0.00002587     0.00015000    T
constrained gradient max            0.00238685     0.00100000    F
constrained gradient rms            0.00071154     0.00066667    F
gradient max                        0.00238685
gradient rms                        0.00071154
cart. step max                      0.21147970     0.01000000    F
cart. step rms                      0.05680596     0.00666667    F
 
 
--------
Geometry
--------
Formula: C4H7Cl2OSn
Atoms
  Index Symbol   x (angstrom)   y (angstrom)   z (angstrom)
      1      H     0.54597447    -1.53113823     0.34445792
      2      C    -0.91210355     0.03256635     0.95679935
      3      C     0.35159081    -0.45698770     0.35332637
      4      C     1.35238332     0.38452300    -0.23112626
      5      O     1.27865856     1.62432824    -0.28339080
      6      H    -0.91846273     1.12643217     0.93828129
      7      H    -1.17840333    -1.58352577     2.41825349
      8      C    -1.15420373    -0.48916668     2.38600374
      9      H    -0.36859931    -0.14681164     3.06612094
     10      H    -2.11360071    -0.12050052     2.76264535
     11      H    -1.74958548    -0.30427315     0.31821059
     12      H     2.24010425    -0.13353749    -0.65608105
     13     Sn     1.39754611     4.97676213     0.14229851
     14     Cl     3.46803307     4.96392791     1.37409162
     15     Cl     2.18535917     5.58177553    -2.05098913
 
Total System Charge             0.00000
 
 *** GOStep17 ***

 Energy gradients wrt nuclear displacements
 ==========================================

     Atom      Cartesian (a.u./angstrom)
                 X         Y         Z
 ----------------------------------------
     1 H     0.000406 -0.000691  0.000083
     2 C    -0.000680  0.000209  0.001389
     3 C     0.001171  0.002540 -0.000293
     4 C    -0.002118 -0.003428  0.000793
     5 O    -0.000108 -0.000874 -0.000236
     6 H     0.001264  0.000782  0.000302
     7 H    -0.000148 -0.000196  0.000155
     8 C     0.000969  0.000595 -0.000251
     9 H    -0.000179 -0.000052 -0.000074
    10 H    -0.000238  0.000019  0.000175
    11 H    -0.002183 -0.000850 -0.001695
    12 H     0.002299 -0.000803 -0.001025
    13 Sn   -0.000354  0.003200  0.000964
    14 Cl    0.000188 -0.000358  0.000522
    15 Cl   -0.000287 -0.000093 -0.000809
 ----------------------------------------
 Mulliken charges used for AMS results%charges...

 dE(predicted):    -0.13620E-03, dE(actual):    -0.17935E-03, Trust radius:    1.000000, all in a.u.
 
----------------------------------------------------------------------
Geometry Convergence after Step  17       (Hartree/Angstrom,Angstrom)
----------------------------------------------------------------------
current energy                               -2.72768144 Hartree
energy change                      -0.00017935     0.00015000    F
constrained gradient max            0.00341991     0.00100000    F
constrained gradient rms            0.00115827     0.00066667    F
gradient max                        0.00341991
gradient rms                        0.00115827
cart. step max                      0.11321643     0.01000000    F
cart. step rms                      0.03441228     0.00666667    F
 
 
--------
Geometry
--------
Formula: C4H7Cl2OSn
Atoms
  Index Symbol   x (angstrom)   y (angstrom)   z (angstrom)
      1      H     0.54994364    -1.51486370     0.32591835
      2      C    -0.92501650     0.02560064     0.95816301
      3      C     0.33892651    -0.44357259     0.33829709
      4      C     1.32218118     0.41133054    -0.25286659
      5      O     1.23199828     1.65084231    -0.29977542
      6      H    -0.94960192     1.11935665     0.93561122
      7      H    -1.13575719    -1.58698794     2.43332682
      8      C    -1.13228868    -0.49251185     2.39425647
      9      H    -0.34162233    -0.13141773     3.05845526
     10      H    -2.09184778    -0.13958836     2.78565129
     11      H    -1.76618257    -0.33043818     0.33495218
     12      H     2.21351859    -0.09209625    -0.68844924
     13     Sn     1.40194677     4.97822742     0.12236244
     14     Cl     3.41262802     5.00193407     1.45073661
     15     Cl     2.29586490     5.46855910    -2.05773756
 
Total System Charge             0.00000
 
 *** GOStep18 ***

 Energy gradients wrt nuclear displacements
 ==========================================

     Atom      Cartesian (a.u./angstrom)
                 X         Y         Z
 ----------------------------------------
     1 H     0.000720 -0.000926  0.000071
     2 C    -0.001496 -0.000212  0.001557
     3 C     0.001870  0.004359 -0.000752
     4 C    -0.003317 -0.005327  0.001505
     5 O    -0.000054 -0.000464 -0.000570
     6 H     0.001635  0.001087  0.000425
     7 H    -0.000215 -0.000285  0.000236
     8 C     0.001398  0.000785 -0.000420
     9 H    -0.000247 -0.000070 -0.000124
    10 H    -0.000349  0.000010  0.000241
    11 H    -0.002405 -0.001087 -0.001841
    12 H     0.002804 -0.000611 -0.001313
    13 Sn    0.000126  0.003284  0.001063
    14 Cl   -0.000010 -0.000110  0.000564
    15 Cl   -0.000459 -0.000434 -0.000641
 ----------------------------------------
 Mulliken charges used for AMS results%charges...

 dE(predicted):    -0.58313E-04, dE(actual):    -0.95951E-04, Trust radius:    1.000000, all in a.u.
 
----------------------------------------------------------------------
Geometry Convergence after Step  18       (Hartree/Angstrom,Angstrom)
----------------------------------------------------------------------
current energy                               -2.72777739 Hartree
energy change                      -0.00009595     0.00015000    T
constrained gradient max            0.00531941     0.00100000    F
constrained gradient rms            0.00157719     0.00066667    F
gradient max                        0.00531941
gradient rms                        0.00157719
cart. step max                      0.20833007     0.01000000    F
cart. step rms                      0.05982026     0.00666667    F
 
 
--------
Geometry
--------
Formula: C4H7Cl2OSn
Atoms
  Index Symbol   x (angstrom)   y (angstrom)   z (angstrom)
      1      H     0.54943361    -1.49010599     0.29028181
      2      C    -0.94598424     0.01155114     0.96373932
      3      C     0.31411247    -0.42412088     0.31261956
      4      C     1.26751367     0.45445121    -0.28972696
      5      O     1.15118545     1.69272973    -0.32488104
      6      H    -1.00750530     1.10347357     0.93369272
      7      H    -1.06110981    -1.59439666     2.45696476
      8      C    -1.09529455    -0.50083620     2.40953861
      9      H    -0.29879016    -0.10767007     3.04800617
     10      H    -2.05483782    -0.17641159     2.82486266
     11      H    -1.79074402    -0.37824369     0.36897679
     12      H     2.15994026    -0.02553534    -0.74603323
     13     Sn     1.41890817     4.97021430     0.07539458
     14     Cl     3.31366822     5.09782577     1.56191543
     15     Cl     2.50419496     5.29144885    -2.04644925
 
Total System Charge             0.00000
 
 *** GOStep19 ***

 Energy gradients wrt nuclear displacements
 ==========================================

     Atom      Cartesian (a.u./angstrom)
                 X         Y         Z
 ----------------------------------------
     1 H     0.000827 -0.000772  0.000109
     2 C    -0.002273 -0.000368  0.001154
     3 C     0.002088  0.004985 -0.001474
     4 C    -0.003247 -0.006980  0.001914
     5 O     0.000128 -0.000124 -0.001261
     6 H     0.001321  0.000979  0.000315
     7 H    -0.000212 -0.000267  0.000235
     8 C     0.001303  0.000664 -0.000516
     9 H    -0.000230 -0.000044 -0.000133
    10 H    -0.000344 -0.000012  0.000249
    11 H    -0.001157 -0.000717 -0.000982
    12 H     0.001933  0.000112 -0.001053
    13 Sn    0.000510  0.003011  0.001074
    14 Cl   -0.000068  0.000423  0.000346
    15 Cl   -0.000579 -0.000890  0.000022
 ----------------------------------------
 Mulliken charges used for AMS results%charges...

 dE(predicted):    -0.11364E-03, dE(actual):    -0.16677E-03, Trust radius:    1.000000, all in a.u.
 
----------------------------------------------------------------------
Geometry Convergence after Step  19       (Hartree/Angstrom,Angstrom)
----------------------------------------------------------------------
current energy                               -2.72794416 Hartree
energy change                      -0.00016677     0.00015000    F
constrained gradient max            0.00697096     0.00100000    F
constrained gradient rms            0.00169350     0.00066667    F
gradient max                        0.00697096
gradient rms                        0.00169350
cart. step max                      0.13508852     0.01000000    F
cart. step rms                      0.03414956     0.00666667    F
 
 
--------
Geometry
--------
Formula: C4H7Cl2OSn
Atoms
  Index Symbol   x (angstrom)   y (angstrom)   z (angstrom)
      1      H     0.54047963    -1.48154465     0.26630998
      2      C    -0.95754783     0.00049154     0.97013484
      3      C     0.29692891    -0.41825694     0.29956535
      4      C     1.23488946     0.47471550    -0.30760259
      5      O     1.10646558     1.71137214    -0.33069441
      6      H    -1.04333768     1.09007241     0.93657931
      7      H    -1.02182912    -1.60296549     2.46840816
      8      C    -1.07718995    -0.51053179     2.41975097
      9      H    -0.27901510    -0.10108239     3.04599028
     10      H    -2.03660789    -0.20235228     2.84695056
     11      H    -1.80321905    -0.40757314     0.39213804
     12      H     2.12393023     0.00574103    -0.77792031
     13     Sn     1.44056532     4.95356434     0.03572844
     14     Cl     3.26089492     5.18254407     1.60289198
     15     Cl     2.63928349     5.23017981    -2.02932867
 
Total System Charge             0.00000
 
 *** GOStep20 ***

 Energy gradients wrt nuclear displacements
 ==========================================

     Atom      Cartesian (a.u./angstrom)
                 X         Y         Z
 ----------------------------------------
     1 H     0.000430 -0.000261  0.000166
     2 C    -0.001568  0.000130  0.000372
     3 C     0.001414  0.003258 -0.001356
     4 C    -0.001834 -0.004801  0.001043
     5 O     0.000215 -0.001569 -0.001391
     6 H     0.000388  0.000320  0.000074
     7 H    -0.000118 -0.000092  0.000087
     8 C     0.000571  0.000218 -0.000371
     9 H    -0.000095  0.000004 -0.000072
    10 H    -0.000159 -0.000011  0.000117
    11 H     0.000366  0.000013  0.000037
    12 H     0.000371  0.000468 -0.000290
    13 Sn    0.000323  0.002245  0.000838
    14 Cl    0.000170  0.000892 -0.000087
    15 Cl   -0.000474 -0.000813  0.000833
 ----------------------------------------
 Mulliken charges used for AMS results%charges...

 dE(predicted):    -0.83112E-04, dE(actual):    -0.12751E-03, Trust radius:    1.000000, all in a.u.
 
----------------------------------------------------------------------
Geometry Convergence after Step  20       (Hartree/Angstrom,Angstrom)
----------------------------------------------------------------------
current energy                               -2.72807167 Hartree
energy change                      -0.00012751     0.00015000    T
constrained gradient max            0.00479722     0.00100000    F
constrained gradient rms            0.00114479     0.00066667    F
gradient max                        0.00479722
gradient rms                        0.00114479
cart. step max                      0.14137739     0.01000000    F
cart. step rms                      0.03693473     0.00666667    F
 
 
--------
Geometry
--------
Formula: C4H7Cl2OSn
Atoms
  Index Symbol   x (angstrom)   y (angstrom)   z (angstrom)
      1      H     0.54029896    -1.46463063     0.24108591
      2      C    -0.96580207    -0.00946444     0.97618579
      3      C     0.28420441    -0.40564772     0.28705984
      4      C     1.20070221     0.51080155    -0.32381569
      5      O     1.04979126     1.74488443    -0.33135322
      6      H    -1.08334920     1.07614874     0.93722085
      7      H    -0.97254053    -1.60752207     2.48051170
      8      C    -1.05546972    -0.51719545     2.42986721
      9      H    -0.25945564    -0.08637466     3.04477372
     10      H    -2.01664994    -0.23006381     2.86674012
     11      H    -1.80954803    -0.44119446     0.41540748
     12      H     2.08816285     0.05893336    -0.80957941
     13     Sn     1.44988843     4.94964997    -0.01045964
     14     Cl     3.19379705     5.21172301     1.63902209
     15     Cl     2.78066088     5.13432635    -2.00376481
 
Total System Charge             0.00000
 
 *** GOStep21 ***

 Energy gradients wrt nuclear displacements
 ==========================================

     Atom      Cartesian (a.u./angstrom)
                 X         Y         Z
 ----------------------------------------
     1 H    -0.000336  0.000421  0.000330
     2 C     0.000280  0.001266 -0.000555
     3 C    -0.000240 -0.000866 -0.000449
     4 C     0.001254 -0.002168 -0.000741
     5 O    -0.000105 -0.001289 -0.001425
     6 H    -0.000812 -0.000641 -0.000265
     7 H     0.000025  0.000171 -0.000131
     8 C    -0.000552 -0.000347 -0.000065
     9 H     0.000105  0.000056  0.000056
    10 H     0.000131  0.000009 -0.000076
    11 H     0.001703  0.000880  0.000968
    12 H    -0.001453  0.000210  0.000653
    13 Sn   -0.000753  0.001865  0.000776
    14 Cl    0.000866  0.001164 -0.000378
    15 Cl   -0.000113 -0.000731  0.001301
 ----------------------------------------
 Mulliken charges used for AMS results%charges...

 dE(predicted):    -0.78687E-04, dE(actual):    -0.13945E-03, Trust radius:    1.000000, all in a.u.
 
----------------------------------------------------------------------
Geometry Convergence after Step  21       (Hartree/Angstrom,Angstrom)
----------------------------------------------------------------------
current energy                               -2.72821112 Hartree
energy change                      -0.00013945     0.00015000    T
constrained gradient max            0.00216371     0.00100000    F
constrained gradient rms            0.00084206     0.00066667    F
gradient max                        0.00216371
gradient rms                        0.00084206
cart. step max                      0.21985712     0.01000000    F
cart. step rms                      0.06317942     0.00666667    F
 
 
--------
Geometry
--------
Formula: C4H7Cl2OSn
Atoms
  Index Symbol   x (angstrom)   y (angstrom)   z (angstrom)
      1      H     0.54105062    -1.43263282     0.19631287
      2      C    -0.97910016    -0.02386213     0.98366077
      3      C     0.26285711    -0.38138665     0.26377090
      4      C     1.14335172     0.57278205    -0.34955983
      5      O     0.95487276     1.80249962    -0.33072823
      6      H    -1.14574793     1.05413106     0.93798674
      7      H    -0.88659722    -1.60829537     2.49886176
      8      C    -1.01480056    -0.52287132     2.44390150
      9      H    -0.22210609    -0.05599481     3.03675665
     10      H    -1.97624907    -0.26990762     2.89981842
     11      H    -1.81963527    -0.49469543     0.45203568
     12      H     2.02963547     0.15154384    -0.86090438
     13     Sn     1.47009856     4.94024259    -0.08960724
     14     Cl     3.06654296     5.24562540     1.70009433
     15     Cl     3.00051799     4.94719574    -1.94349800
 
Total System Charge             0.00000
 
 *** GOStep22 ***

 Energy gradients wrt nuclear displacements
 ==========================================

     Atom      Cartesian (a.u./angstrom)
                 X         Y         Z
 ----------------------------------------
     1 H    -0.001302  0.001091  0.000605
     2 C     0.003147  0.002947 -0.001539
     3 C    -0.002371 -0.006183  0.000759
     4 C     0.004860 -0.000494 -0.002469
     5 O    -0.000845  0.001317 -0.001627
     6 H    -0.002065 -0.001780 -0.000589
     7 H     0.000172  0.000466 -0.000372
     8 C    -0.001852 -0.001015  0.000384
     9 H     0.000333  0.000114  0.000207
    10 H     0.000456  0.000050 -0.000301
    11 H     0.002514  0.001660  0.001570
    12 H    -0.003030 -0.000629  0.001380
    13 Sn   -0.001271  0.001668  0.000416
    14 Cl    0.001546  0.001471 -0.000305
    15 Cl   -0.000292 -0.000683  0.001883
 ----------------------------------------
 Mulliken charges used for AMS results%charges...

 dE(predicted):    -0.20484E-03, dE(actual):    -0.22244E-03, Trust radius:    1.000000, all in a.u.
 
----------------------------------------------------------------------
Geometry Convergence after Step  22       (Hartree/Angstrom,Angstrom)
----------------------------------------------------------------------
current energy                               -2.72843356 Hartree
energy change                      -0.00022244     0.00015000    F
constrained gradient max            0.00618559     0.00100000    F
constrained gradient rms            0.00184549     0.00066667    F
gradient max                        0.00618559
gradient rms                        0.00184549
cart. step max                      0.21712075     0.01000000    F
cart. step rms                      0.06664559     0.00666667    F
 
 
--------
Geometry
--------
Formula: C4H7Cl2OSn
Atoms
  Index Symbol   x (angstrom)   y (angstrom)   z (angstrom)
      1      H     0.54115887    -1.39444685     0.14534420
      2      C    -0.99138646    -0.03757827     0.99059435
      3      C     0.24069575    -0.35243388     0.23929606
      4      C     1.08359125     0.64299370    -0.36914467
      5      O     0.85471593     1.86682666    -0.31582450
      6      H    -1.20979641     1.03006079     0.94159698
      7      H    -0.79459462    -1.60588172     2.51225284
      8      C    -0.97085580    -0.52760855     2.45564314
      9      H    -0.18428042    -0.02357283     3.02618578
     10      H    -1.93106926    -0.31166216     2.93164879
     11      H    -1.82569710    -0.54886084     0.48859977
     12      H     1.96946869     0.25669118    -0.90500617
     13     Sn     1.49754890     4.92486639    -0.18519763
     14     Cl     2.92755283     5.25901727     1.73844112
     15     Cl     3.21763874     4.74596328    -1.85552813
 
Total System Charge             0.00000
 
 *** GOStep23 ***

 Energy gradients wrt nuclear displacements
 ==========================================

     Atom      Cartesian (a.u./angstrom)
                 X         Y         Z
 ----------------------------------------
     1 H    -0.002371  0.001698  0.000967
     2 C     0.006542  0.004992 -0.002763
     3 C    -0.004589 -0.012146  0.002209
     4 C     0.008897  0.000207 -0.004846
     5 O    -0.002395  0.005615 -0.001238
     6 H    -0.003218 -0.003023 -0.000874
     7 H     0.000307  0.000767 -0.000614
     8 C    -0.003164 -0.001784  0.000943
     9 H     0.000585  0.000181  0.000346
    10 H     0.000788  0.000122 -0.000568
    11 H     0.002972  0.002361  0.001979
    12 H    -0.004361 -0.002039  0.002184
    13 Sn   -0.001583  0.001751 -0.000131
    14 Cl    0.002239  0.001661 -0.000306
    15 Cl   -0.000649 -0.000362  0.002712
 ----------------------------------------
 Mulliken charges used for AMS results%charges...

 dE(predicted):    -0.61679E-03, dE(actual):    -0.35063E-03, Trust radius:    1.000000, all in a.u.
 
----------------------------------------------------------------------
Geometry Convergence after Step  23       (Hartree/Angstrom,Angstrom)
----------------------------------------------------------------------
current energy                               -2.72878419 Hartree
energy change                      -0.00035063     0.00015000    F
constrained gradient max            0.01214989     0.00100000    F
constrained gradient rms            0.00334734     0.00066667    F
gradient max                        0.01214989
gradient rms                        0.00334734
cart. step max                      0.21240121     0.01000000    F
cart. step rms                      0.06588121     0.00666667    F
 
 
--------
Geometry
--------
Formula: C4H7Cl2OSn
Atoms
  Index Symbol   x (angstrom)   y (angstrom)   z (angstrom)
      1      H     0.53670594    -1.35222916     0.08838606
      2      C    -1.00260237    -0.05138361     0.99846316
      3      C     0.21771518    -0.32088875     0.21746484
      4      C     1.02521078     0.72107941    -0.37283218
      5      O     0.75440717     1.93712419    -0.27057664
      6      H    -1.27368615     1.00308720     0.95200606
      7      H    -0.70565283    -1.60628975     2.51733074
      8      C    -0.92977934    -0.53708572     2.46531016
      9      H    -0.15267823     0.00103614     3.01795184
     10      H    -1.88806722    -0.36007228     2.95948099
     11      H    -1.82821859    -0.60092087     0.52327623
     12      H     1.91233660     0.37280440    -0.92918350
     13     Sn     1.54215078     4.89399595    -0.30608413
     14     Cl     2.78680923     5.24435822     1.74191498
     15     Cl     3.43003995     4.57975877    -1.76400668
 
Total System Charge             0.00000
 
 *** GOStep24 ***

 Energy gradients wrt nuclear displacements
 ==========================================

     Atom      Cartesian (a.u./angstrom)
                 X         Y         Z
 ----------------------------------------
     1 H    -0.003842  0.002414  0.001507
     2 C     0.011560  0.008135 -0.004521
     3 C    -0.007547 -0.020764  0.004531
     4 C     0.014775  0.000534 -0.009357
     5 O    -0.006241  0.013341  0.000966
     6 H    -0.004501 -0.004626 -0.001205
     7 H     0.000473  0.001171 -0.000929
     8 C    -0.004765 -0.002870  0.001829
     9 H     0.000916  0.000282  0.000529
    10 H     0.001212  0.000274 -0.000952
    11 H     0.002783  0.002921  0.002242
    12 H    -0.005431 -0.004675  0.003239
    13 Sn   -0.001288  0.001556 -0.001078
    14 Cl    0.002899  0.001688 -0.000327
    15 Cl   -0.001002  0.000619  0.003526
 ----------------------------------------
 Mulliken charges used for AMS results%charges...

 dE(predicted):    -0.99423E-03, dE(actual):    -0.53181E-03, Trust radius:    1.000000, all in a.u.
 
----------------------------------------------------------------------
Geometry Convergence after Step  24       (Hartree/Angstrom,Angstrom)
----------------------------------------------------------------------
current energy                               -2.72931600 Hartree
energy change                      -0.00053181     0.00015000    F
constrained gradient max            0.02076939     0.00100000    F
constrained gradient rms            0.00572086     0.00066667    F
gradient max                        0.02076939
gradient rms                        0.00572086
cart. step max                      0.20746381     0.01000000    F
cart. step rms                      0.06673255     0.00666667    F
 
 
--------
Geometry
--------
Formula: C4H7Cl2OSn
Atoms
  Index Symbol   x (angstrom)   y (angstrom)   z (angstrom)
      1      H     0.53403048    -1.30365720     0.03034093
      2      C    -1.00942038    -0.06028382     1.00414596
      3      C     0.19780100    -0.28410805     0.19464185
      4      C     0.97037296     0.80166018    -0.37556756
      5      O     0.66249020     2.01111487    -0.22678342
      6      H    -1.33084003     0.97911796     0.96285315
      7      H    -0.61512336    -1.59962703     2.51659229
      8      C    -0.88552780    -0.54122240     2.47106561
      9      H    -0.11953777     0.02930345     3.00694878
     10      H    -1.84002513    -0.40286887     2.98332132
     11      H    -1.82393569    -0.64637994     0.55396531
     12      H     1.85521533     0.48989346    -0.95391719
     13     Sn     1.58845829     4.85817722    -0.41878130
     14     Cl     2.63850227     5.22095938     1.73601045
     15     Cl     3.60223054     4.37229496    -1.64593423
 
Total System Charge             0.00000
 
 *** GOStep25 ***

 Energy gradients wrt nuclear displacements
 ==========================================

     Atom      Cartesian (a.u./angstrom)
                 X         Y         Z
 ----------------------------------------
     1 H    -0.005313  0.002863  0.002170
     2 C     0.016000  0.011398 -0.006267
     3 C    -0.010028 -0.030551  0.006299
     4 C     0.021620 -0.003423 -0.013647
     5 O    -0.011577  0.026633  0.004004
     6 H    -0.005454 -0.006273 -0.001491
     7 H     0.000589  0.001527 -0.001186
     8 C    -0.006166 -0.004045  0.002671
     9 H     0.001228  0.000382  0.000696
    10 H     0.001588  0.000421 -0.001283
    11 H     0.002446  0.003310  0.002463
    12 H    -0.006210 -0.007396  0.003733
    13 Sn   -0.000828  0.002057 -0.002331
    14 Cl    0.003519  0.001574  0.000183
    15 Cl   -0.001413  0.001523  0.003987
 ----------------------------------------
 Mulliken charges used for AMS results%charges...
 Rebuilding optimization coordinates

 dE(predicted):    -0.69880E-03, dE(actual):    -0.43139E-03, Trust radius:    1.000000, all in a.u.
 
----------------------------------------------------------------------
Geometry Convergence after Step  25       (Hartree/Angstrom,Angstrom)
----------------------------------------------------------------------
current energy                               -2.72974739 Hartree
energy change                      -0.00043139     0.00015000    F
constrained gradient max            0.03055690     0.00100000    F
constrained gradient rms            0.00867148     0.00066667    F
gradient max                        0.03055690
gradient rms                        0.00867148
cart. step max                      0.21387724     0.01000000    F
cart. step rms                      0.04889343     0.00666667    F
 
 
--------
Geometry
--------
Formula: C4H7Cl2OSn
Atoms
  Index Symbol   x (angstrom)   y (angstrom)   z (angstrom)
      1      H     0.53832598    -1.31178404     0.05264342
      2      C    -1.01101655    -0.06164089     1.00602795
      3      C     0.20768467    -0.29077883     0.21782451
      4      C     0.99815955     0.79585648    -0.33314251
      5      O     0.70504563     2.00010256    -0.17341496
      6      H    -1.32031032     0.98155064     0.96820871
      7      H    -0.66393883    -1.61846312     2.51249387
      8      C    -0.92077599    -0.55652995     2.47129135
      9      H    -0.15789915    -0.00022516     3.02635767
     10      H    -1.88299034    -0.41035298     2.96629022
     11      H    -1.82655371    -0.63439680     0.53641822
     12      H     1.89476444     0.47495873    -0.88942926
     13     Sn     1.59095392     4.86289713    -0.43955911
     14     Cl     2.69878639     5.10700819     1.69756398
     15     Cl     3.57445520     4.58617220    -1.78067212
 
Total System Charge             0.00000
 
 *** GOStep26 ***

 Energy gradients wrt nuclear displacements
 ==========================================

     Atom      Cartesian (a.u./angstrom)
                 X         Y         Z
 ----------------------------------------
     1 H    -0.005611  0.002988  0.002248
     2 C     0.018692  0.012009 -0.006391
     3 C    -0.010423 -0.030958  0.007483
     4 C     0.017173  0.011351 -0.015296
     5 O    -0.008261  0.013224  0.004899
     6 H    -0.005425 -0.006327 -0.001735
     7 H     0.000703  0.001568 -0.001161
     8 C    -0.006502 -0.004162  0.002904
     9 H     0.001287  0.000326  0.000774
    10 H     0.001731  0.000463 -0.001406
    11 H     0.000721  0.002392  0.001958
    12 H    -0.005839 -0.007844  0.004907
    13 Sn   -0.000078  0.002002 -0.001937
    14 Cl    0.002627  0.001170 -0.000703
    15 Cl   -0.000795  0.001798  0.003457
 ----------------------------------------
 Mulliken charges used for AMS results%charges...

 dE(predicted):    -0.93196E-03, dE(actual):    -0.10956E-03, Trust radius:    0.044255, all in a.u.
 
----------------------------------------------------------------------
Geometry Convergence after Step  26       (Hartree/Angstrom,Angstrom)
----------------------------------------------------------------------
current energy                               -2.72985695 Hartree
energy change                      -0.00010956     0.00015000    T
constrained gradient max            0.03096505     0.00100000    F
constrained gradient rms            0.00808596     0.00066667    F
gradient max                        0.03096505
gradient rms                        0.00808596
cart. step max                      0.07906181     0.01000000    F
cart. step rms                      0.01620872     0.00666667    F
 
 
--------
Geometry
--------
Formula: C4H7Cl2OSn
Atoms
  Index Symbol   x (angstrom)   y (angstrom)   z (angstrom)
      1      H     0.54729658    -1.29440644     0.04460356
      2      C    -1.01292966    -0.06164709     1.00673954
      3      C     0.20732756    -0.27681112     0.21506550
      4      C     0.98999271     0.81558920    -0.33208999
      5      O     0.68779054     2.02051229    -0.17522584
      6      H    -1.32967739     0.97996665     0.97325857
      7      H    -0.64542743    -1.61803121     2.50951765
      8      C    -0.91195475    -0.55826704     2.47068852
      9      H    -0.15208388     0.00431263     3.02323595
     10      H    -1.87349352    -0.42189475     2.97028210
     11      H    -1.82429526    -0.64059681     0.53795907
     12      H     1.88701991     0.50492276    -0.89432593
     13     Sn     1.59671293     4.86355466    -0.45340320
     14     Cl     2.66843718     5.10006004     1.70344585
     15     Cl     3.58997539     4.50711039    -1.76084943
 
Total System Charge             0.00000
 
 *** GOStep27 ***

[...]
    15    Cl       0.000443  -0.000252  -0.000187
 
 Mode:    29      Frequency (cm-1):     1183.6364     Intensity (km/mol):       14.9696
 Index  Atom      ---- Displacements (x/y/z) ----
     1     H      -0.606262  -0.283400   0.339413
     2     C       0.069077  -0.122703  -0.058414
     3     C      -0.114500   0.009493   0.060419
     4     C       0.081203   0.019106  -0.054058
     5     O      -0.018829   0.047525   0.017795
     6     H       0.380339  -0.024552  -0.082996
     7     H      -0.007492   0.098500  -0.254956
     8     C      -0.006006   0.060545   0.041101
     9     H       0.093835  -0.165255   0.078439
    10     H      -0.023048  -0.167308   0.000487
    11     H       0.007438   0.157885  -0.197176
    12     H       0.099059   0.074551  -0.041281
    13    Sn       0.000175  -0.000488   0.000084
    14    Cl      -0.000168  -0.000076  -0.000185
    15    Cl      -0.000418   0.000450   0.000070
 
 Mode:    30      Frequency (cm-1):     1235.5883     Intensity (km/mol):       23.8816
 Index  Atom      ---- Displacements (x/y/z) ----
     1     H      -0.089187   0.012029   0.015420
     2     C       0.074537   0.026385  -0.039862
     3     C      -0.038615   0.018700   0.053180
     4     C       0.022035   0.034431  -0.017220
     5     O      -0.000822  -0.012257  -0.000315
     6     H       0.213319   0.107242  -0.268588
     7     H       0.159483  -0.020648   0.104148
     8     C      -0.062512  -0.063978  -0.027971
     9     H       0.030605   0.187352  -0.290816
    10     H       0.024429   0.072051   0.132312
    11     H      -0.298885  -0.317577   0.683504
    12     H       0.028092   0.016835  -0.007409
    13    Sn       0.000131  -0.000530   0.000237
    14    Cl      -0.000184   0.000077  -0.000296
    15    Cl      -0.000281   0.000364  -0.000057
 
 Mode:    31      Frequency (cm-1):     1280.1563     Intensity (km/mol):      253.1773
 Index  Atom      ---- Displacements (x/y/z) ----
     1     H      -0.122679  -0.082038   0.077646
     2     C       0.041424   0.009903  -0.088311
     3     C       0.091334   0.042031  -0.037874
     4     C       0.010384  -0.146160  -0.017288
     5     O      -0.044691   0.098644   0.040962
     6     H      -0.239146  -0.202301   0.586512
     7     H       0.051185   0.071951  -0.089056
     8     C      -0.043833   0.034965   0.020203
     9     H       0.083291  -0.085756  -0.031477
    10     H      -0.000502  -0.131415   0.109889
    11     H      -0.178841  -0.104620   0.283107
    12     H      -0.085877  -0.526629  -0.045107
    13    Sn      -0.000453   0.002168  -0.001043
    14    Cl       0.000808  -0.000344   0.001225
    15    Cl       0.001303  -0.001301   0.000222
 
 Mode:    32      Frequency (cm-1):     1299.0152     Intensity (km/mol):       70.7736
 Index  Atom      ---- Displacements (x/y/z) ----
     1     H      -0.118257  -0.089496   0.090070
     2     C       0.064677   0.014239  -0.099765
     3     C       0.004083  -0.019736   0.002240
     4     C      -0.085420   0.133721   0.059074
     5     O       0.058989  -0.117882  -0.051498
     6     H      -0.268232  -0.223073   0.640416
     7     H       0.056863   0.089307  -0.156395
     8     C      -0.035158   0.036921   0.037258
     9     H       0.110744  -0.080526  -0.039455
    10     H      -0.029012  -0.104100   0.043608
    11     H      -0.056101  -0.064180   0.110862
    12     H      -0.000888   0.524470   0.080194
    13    Sn       0.000246  -0.001602   0.000831
    14    Cl      -0.000514   0.000410  -0.000791
    15    Cl      -0.000743   0.000821  -0.000264
 
 Mode:    33      Frequency (cm-1):     1366.8452     Intensity (km/mol):       11.0453
 Index  Atom      ---- Displacements (x/y/z) ----
     1     H       0.104553   0.040782  -0.040288
     2     C      -0.011967   0.006167   0.002438
     3     C      -0.015494  -0.018207   0.004989
     4     C       0.015436  -0.015880  -0.012146
     5     O      -0.006060   0.016347   0.005954
     6     H       0.020306  -0.002033   0.093582
     7     H       0.052767   0.080767  -0.571764
     8     C       0.004827  -0.059144   0.111789
     9     H       0.143885   0.386092  -0.355901
    10     H      -0.229902   0.303757  -0.412365
    11     H       0.070223  -0.032045  -0.067091
    12     H       0.018701  -0.007875  -0.011510
    13    Sn       0.000068   0.000072  -0.000013
    14    Cl      -0.000059  -0.000078  -0.000133
    15    Cl      -0.000135   0.000053   0.000061
 
 Mode:    34      Frequency (cm-1):     1425.5835     Intensity (km/mol):       20.9920
 Index  Atom      ---- Displacements (x/y/z) ----
     1     H      -0.194234  -0.104780   0.061231
     2     C       0.052783  -0.036890   0.031138
     3     C       0.056706   0.023659  -0.020655
     4     C      -0.027057   0.028073   0.019121
     5     O       0.004899  -0.020131  -0.005470
     6     H      -0.515737  -0.111110  -0.421859
     7     H       0.079394   0.018262  -0.045313
     8     C      -0.002725  -0.013754   0.016825
     9     H       0.060085   0.006112  -0.062365
    10     H      -0.046564   0.081607  -0.089454
    11     H      -0.355357   0.545511   0.062730
    12     H      -0.051295  -0.122807   0.023257
    13    Sn      -0.000097  -0.000034   0.000039
    14    Cl       0.000055   0.000081   0.000103
    15    Cl       0.000190  -0.000143  -0.000071
 
 Mode:    35      Frequency (cm-1):     1447.2771     Intensity (km/mol):      149.1162
 Index  Atom      ---- Displacements (x/y/z) ----
     1     H       0.124470   0.151492  -0.079428
     2     C       0.026513  -0.010867  -0.006733
     3     C      -0.025258   0.050620   0.020932
     4     C      -0.014366  -0.220091  -0.005485
     5     O       0.004302   0.055474   0.005232
     6     H      -0.115478  -0.037188  -0.090477
     7     H       0.166044   0.038262   0.076593
     8     C      -0.018727   0.003252   0.000496
     9     H       0.094637  -0.149854  -0.011646
    10     H      -0.029039   0.051137  -0.035921
    11     H      -0.101943   0.129253   0.043708
    12     H       0.134941   0.870002  -0.018829
    13    Sn       0.000086   0.001633  -0.000957
    14    Cl       0.000438  -0.000252   0.000802
    15    Cl       0.000340  -0.000303   0.000270
 
 Mode:    36      Frequency (cm-1):     1457.4647     Intensity (km/mol):       72.5639
 Index  Atom      ---- Displacements (x/y/z) ----
     1     H       0.259725   0.114295  -0.143700
     2     C       0.024822   0.012829  -0.024034
     3     C      -0.093239  -0.082484   0.050220
     4     C       0.061953   0.050257  -0.036220
     5     O      -0.013534   0.015162   0.010304
     6     H      -0.176887  -0.068581   0.094950
     7     H       0.590450   0.160927   0.048762
     8     C      -0.041260  -0.006382  -0.013583
     9     H       0.064427  -0.413095   0.176146
    10     H       0.004485   0.433855   0.036880
    11     H       0.011624   0.086836  -0.078209
    12     H       0.038589  -0.188008  -0.036731
    13    Sn       0.000130  -0.000608   0.000277
    14    Cl      -0.000263  -0.000023  -0.000414
    15    Cl      -0.000453   0.000381   0.000028
 
 Mode:    37      Frequency (cm-1):     1461.7731     Intensity (km/mol):       62.3693
 Index  Atom      ---- Displacements (x/y/z) ----
     1     H      -0.168463  -0.081748   0.096951
     2     C      -0.020240  -0.024361   0.000687
     3     C       0.053269   0.045934  -0.029695
     4     C      -0.034497  -0.022558   0.020488
     5     O       0.007508  -0.009275  -0.005717
     6     H       0.117890   0.011631   0.012001
     7     H       0.160010   0.076052  -0.377008
     8     C       0.004044  -0.045986  -0.022287
     9     H      -0.434584   0.142555   0.339136
    10     H       0.199595   0.487642   0.380124
    11     H      -0.001653  -0.042173  -0.003667
    12     H      -0.026676   0.082929   0.019338
    13    Sn      -0.000084   0.000308  -0.000139
    14    Cl       0.000147   0.000013   0.000229
    15    Cl       0.000257  -0.000217  -0.000020
 
 Mode:    38      Frequency (cm-1):     1474.7920     Intensity (km/mol):       50.4313
 Index  Atom      ---- Displacements (x/y/z) ----
     1     H      -0.267131  -0.149562   0.160943
     2     C      -0.084395  -0.009945   0.038577
     3     C       0.106678   0.069030  -0.061328
     4     C      -0.058239  -0.001117   0.036596
     5     O       0.012115  -0.026096  -0.010772
     6     H       0.325633   0.129578  -0.050841
     7     H       0.443111   0.091221   0.214202
     8     C      -0.038459   0.003259   0.008363
     9     H       0.335114  -0.377148  -0.125141
    10     H      -0.167159   0.176202  -0.296863
    11     H       0.094306  -0.185261  -0.032443
    12     H      -0.070729  -0.020671   0.039196
    13    Sn      -0.000149   0.000245  -0.000073
    14    Cl       0.000165   0.000075   0.000256
    15    Cl       0.000365  -0.000316  -0.000079
 
 Mode:    39      Frequency (cm-1):     2948.7993     Intensity (km/mol):        6.5795
 Index  Atom      ---- Displacements (x/y/z) ----
     1     H       0.005287  -0.013092   0.000031
     2     C      -0.058440  -0.019533  -0.041434
     3     C      -0.002094   0.000176  -0.000015
     4     C      -0.000386   0.000946  -0.000291
     5     O       0.000119  -0.000142  -0.000057
     6     H       0.040472  -0.187720  -0.044679
     7     H       0.006442  -0.011005  -0.001271
     8     C       0.004157   0.002214   0.001105
     9     H      -0.034228  -0.021926  -0.033220
    10     H      -0.029610   0.002247   0.015935
    11     H       0.683258   0.428020   0.548888
    12     H       0.002297  -0.001358  -0.000975
    13    Sn      -0.000001   0.000000  -0.000002
    14    Cl       0.000002   0.000002   0.000006
    15    Cl       0.000003  -0.000004   0.000000
 
 Mode:    40      Frequency (cm-1):     2999.6232     Intensity (km/mol):       43.2816
 Index  Atom      ---- Displacements (x/y/z) ----
     1     H      -0.004526   0.013101   0.002246
     2     C       0.000444  -0.001838  -0.000104
     3     C      -0.000215  -0.001221   0.000136
     4     C      -0.000144   0.000179   0.000152
     5     O      -0.000016  -0.000070   0.000002
     6     H      -0.005567   0.018577   0.002587
     7     H       0.163281  -0.587382  -0.107295
     8     C      -0.001045   0.028448  -0.039316
     9     H       0.361029   0.235740   0.329638
    10     H      -0.511964   0.015336   0.238501
    11     H       0.004476   0.001221   0.003465
    12     H       0.004920  -0.000432  -0.002976
    13    Sn      -0.000009   0.000006  -0.000008
    14    Cl       0.000012   0.000005   0.000022
    15    Cl       0.000021  -0.000011  -0.000003
 
 Mode:    41      Frequency (cm-1):     3023.8901     Intensity (km/mol):       11.5420
 Index  Atom      ---- Displacements (x/y/z) ----
     1     H      -0.046694   0.097731   0.030590
     2     C      -0.000004   0.002729   0.000695
     3     C       0.005663  -0.005369  -0.003596
     4     C      -0.071626   0.006765   0.044580
     5     O      -0.000003   0.001815  -0.000129
     6     H       0.010626  -0.030431  -0.006188
     7     H      -0.002433   0.008877   0.001417
     8     C       0.000117  -0.000693  -0.000023
     9     H      -0.000326  -0.000296  -0.000423
    10     H       0.000788  -0.000084  -0.000289
    11     H      -0.004706  -0.002637  -0.003902
    12     H       0.830611  -0.133125  -0.520804
    13    Sn      -0.000033  -0.000054   0.000049
    14    Cl       0.000004   0.000017   0.000000
    15    Cl       0.000000  -0.000110  -0.000004
 
 Mode:    42      Frequency (cm-1):     3062.5885     Intensity (km/mol):        3.5897
 Index  Atom      ---- Displacements (x/y/z) ----
     1     H       0.033762  -0.081602  -0.022083
     2     C       0.011862  -0.065900  -0.017792
     3     C      -0.003243   0.006513   0.001811
     4     C      -0.002997  -0.000299   0.001808
     5     O      -0.000301   0.000096   0.000142
     6     H      -0.226259   0.748505   0.139454
     7     H       0.115880  -0.420330  -0.069853
     8     C      -0.014261   0.043488   0.028045
     9     H      -0.186262  -0.104256  -0.160746
    10     H       0.237955   0.006379  -0.105837
    11     H       0.097793   0.046934   0.073121
    12     H       0.034839  -0.004480  -0.021575
    13    Sn      -0.000003   0.000003   0.000000
    14    Cl       0.000003   0.000001   0.000003
    15    Cl       0.000004  -0.000007  -0.000000
 
 Mode:    43      Frequency (cm-1):     3080.7819     Intensity (km/mol):       19.6769
 Index  Atom      ---- Displacements (x/y/z) ----
     1     H      -0.036479   0.091239   0.023900
     2     C      -0.008656   0.035239   0.008490
     3     C       0.003538  -0.007781  -0.002178
     4     C       0.001816   0.000312  -0.000961
     5     O       0.000155  -0.000033  -0.000087
     6     H       0.121582  -0.404927  -0.073081
     7     H       0.115681  -0.473245  -0.076485
     8     C      -0.073153   0.032141   0.022010
     9     H       0.116007   0.092704   0.128387
    10     H       0.644770  -0.004180  -0.311779
    11     H      -0.035290  -0.016121  -0.026428
    12     H      -0.018362   0.002176   0.010971
    13    Sn       0.000003  -0.000005   0.000004
    14    Cl      -0.000005  -0.000003  -0.000012
    15    Cl      -0.000007   0.000006   0.000000
 
 Mode:    44      Frequency (cm-1):     3084.7362     Intensity (km/mol):       12.5309
 Index  Atom      ---- Displacements (x/y/z) ----
     1     H      -0.033964   0.084181   0.022444
     2     C      -0.001656   0.032077   0.011017
     3     C       0.002998  -0.007170  -0.002024
     4     C       0.001494   0.000164  -0.000869
     5     O       0.000100  -0.000026  -0.000070
     6     H       0.100278  -0.335942  -0.060052
     7     H       0.122009  -0.380524  -0.059524
     8     C       0.054901   0.056932   0.033372
     9     H      -0.509258  -0.318256  -0.476029
    10     H      -0.266490   0.019506   0.139804
    11     H      -0.085411  -0.046595  -0.070012
    12     H      -0.016273   0.001789   0.010387
    13    Sn       0.000001  -0.000002   0.000003
    14    Cl      -0.000003  -0.000000  -0.000008
    15    Cl      -0.000001   0.000003  -0.000002
 
 Mode:    45      Frequency (cm-1):     3116.2035     Intensity (km/mol):       12.1152
 Index  Atom      ---- Displacements (x/y/z) ----
     1     H      -0.370891   0.869385   0.245441
     2     C      -0.000005  -0.013720  -0.003190
     3     C       0.030203  -0.075360  -0.020459
     4     C       0.009755   0.000347  -0.005993
     5     O      -0.000353   0.000813   0.000423
     6     H      -0.044731   0.142631   0.027911
     7     H      -0.014094   0.053938   0.006155
     8     C       0.001092  -0.004879  -0.002033
     9     H       0.013420   0.007289   0.011630
    10     H      -0.012412   0.000436   0.004605
    11     H       0.031574   0.017111   0.021960
    12     H      -0.086295   0.009589   0.053610
    13    Sn       0.000005   0.000008  -0.000009
    14    Cl      -0.000001  -0.000003   0.000000
    15    Cl      -0.000007   0.000013   0.000006

PES point character: Geometry corresponds to a local minimum on the PES.




 ============================
 Statistical Thermal Analysis  ***  ideal gas assumed  ***
 ============================
  
 Pressure:                  1.000000 atm.
 Temperature:             298.150000 K



 Moments of Inertia [amu*bohr^2] and principal axis
 ==================================================

        1402.2571       4526.9698       5181.0864
 ------------------------------------------------
          -0.4722          0.3442         -0.8115
          -0.8217         -0.5050          0.2640
           0.3190         -0.7915         -0.5213


 The rotational contribution to the molecular entropy includes
 a term, dependent on the symmetry number sigma. The results 
 reported below were computed using sigma = 1, determined from
 the point group symmetry of the input geometry (NOSYM). 
 If this is not the correct symmetry, try symmetrizing the molecule before
 running the calculation (note: linear molecules should be aligned along one
 of the Cartesian axes).
 Contributions from frequencies below 20 1/cm are not included in vibrational sums.
 Their contributions, if any, are reported separately.


     Temp                                                        Transl      Rotat     Vibrat     Total
     ----                                                        ------      -----     ------     -----

     298.15   Entropy (cal/mol-K):                               42.576     31.864     44.970    119.411
              Nuclear Internal Energy (kcal/mol):                 0.889      0.889     69.506     71.283
              Constant Volume Heat Capacity (cal/mol-K):          2.981      2.981     31.210     37.172
          (c) Constant Volume Heat Capacity (cal/mol-K):          2.981      2.981     25.973     31.934

       Summary of energy terms
                                                   hartree              eV         kcal/mol           kJ/mol
                                      --------------------     -----------       ----------      -----------
      Energy from Engine:               -2.737932001903067        -74.5029         -1718.08         -7188.44
      Nuclear Internal Energy:           0.113597355901485          3.0911            71.28           298.25
  (c) Nuclear Internal Energy:           0.110997197592566          3.0204            69.65           291.42
      Internal Energy U:                -2.624334646001582        -71.4118         -1646.80         -6890.19
      pV/n = RT:                         0.000944186013486          0.0257             0.59             2.48
      Enthalpy H:                       -2.623390459988096        -71.3861         -1646.20         -6887.71
      -T*S:                             -0.056735840983388         -1.5439           -35.60          -148.96
  (c) -T*S:                             -0.053320157562594         -1.4509           -33.46          -139.99
      Gibbs free energy:                -2.680126300971484        -72.9299         -1681.80         -7036.67
 
 
 
  (c) The properties marked with this symbol have been corrected using 'low vibrational frequency free rotor
      interpolation corrections'. For those terms all positive frequencies are used (also ones below 20 1/cm),
      but the contribution to the partition function of small vibrational frequencies is modified as described
      in the following paper:
      S. Grimme, 'Supramolecular Binding Thermodynamics by Dispersion-Corrected Density Functional Theory'
      (Chem. Eur. J. 2012, 18, 9955-9964)
      Configuration: Dampener Frequency          :   100.000 1/cm
                     Dampener Alpha              :     4.000
                     Averaging Moment of Inertia : 1.000E-44 kg m2

--------------
Atomic charges
--------------
  Index   Atom    Charge
      1      H   -0.1990
      2      C    0.3802
      3      C    0.2583
      4      C    0.6412
      5      O   -0.5883
      6      H   -0.1722
      7      H   -0.2082
      8      C    0.6394
      9      H   -0.1909
     10      H   -0.2000
     11      H   -0.1614
     12      H   -0.2176
     13     Sn    0.7847
     14     Cl   -0.3721
     15     Cl   -0.3940


Dipole moment vector    (Debye):    -4.66173486   -4.85540918   -0.32393688
              magnitude (Debye):     6.73882077


Final PES point is a local minimum. Geometry optimization successful!


AMS application finished. Exiting.
NORMAL TERMINATION
     Total cpu time:   37472.24
  Total system time:     148.42
 Total elapsed time:   75563.26
 WARNING: total elapsed time is much higher than the (CPU+system) time. 
 Make sure the machine is not oversubscribed and has enough memory, SCM_TMPDIR p
 oints to a fast file system, and the network is fast enough.
