

 Parallel Execution: Process Information
 ==============================================================================
 Rank   Node Name                              NodeID   MyNodeRank  NodeMaster
    0   node115                                   0          0          0
    1   node115                                   0          1         -1
    2   node115                                   0          2         -1
    3   node115                                   0          3         -1
 ==============================================================================


May use up to 122928MB of RAM as shared memory on node 0

 *******************************************************************************
 *                                                                             *
 *  --------------------------------                                           *
 *   Amsterdam Modeling Suite (AMS)              2021.102                      *
 *  --------------------------------                                           *
 *                                               r95042 2021-06-07             *
 *                                                                             *
 *                                                                             *
 *                              =================                              *
 *                              |               |                              *
 *                              |     A M S     |                              *
 *                              |               |                              *
 *                              =================                              *
 *                                                                             *
 *                                                                             *
 *   Online information and documentation:  https://www.scm.com/support/       *
 *   E-mail:  support@scm.com   info@scm.com                                   *
 *                                                                             *
 *   Scientific publications using AMS results must be properly referenced     *
 *   See the User Manuals (or the web site) for recommended citations          *
 *   The terms and conditions of the End User License Agreement apply to       *
 *   the use of AMS, https://www.scm.com/license-terms/                        *
 *                                                                             *
 **********************  x86_64_linux_intel / intelmpi  ************************
 
 Licensed to: VU/FEW (+ SARA) / ALGEMEEN / Amsterdam / THE NETHERLANDS
 SCM User ID: u7668
  
 AMS 2021.102  RunTime: Jan23-2022 05:55:39  ShM Nodes: 1  Procs: 4

 AMS jobname: 38.achiral_catalyst.H_H_TiCl4.P1
 AMS jobid  : 1586998739

 Start   directory: /scistor/tc/yhk800/MasterProject/calculations/achiral_catalyst_H_H_TiCl4/38.achiral_catalyst.H_H_TiCl4.P1/
 Results directory: /scistor/tc/yhk800/MasterProject/calculations/achiral_catalyst_H_H_TiCl4/38.achiral_catalyst.H_H_TiCl4.P1/
 Scratch directory: /scratch/3981/amstmp_38.achiral_catalyst.H_H_TiCl4.P1_kid0.1586998739/


 Communication costs MPI_COMM_WORLD:      0.897 usec per message,   0.0066 usec per 8-byte item
 Communication costs for intra-node:      0.853 usec per message,   0.0064 usec per 8-byte item

 RNG seed: -214959850 1714343523 -1509607675 -741043395 -1503450502 241694685 -2117497462 -1817054061



                      ************************************************************************
                      *  ADF 2021.102  RunTime: Jan23-2022 05:55:40  ShM Nodes: 1  Procs: 4  *
                      ************************************************************************
  
       ***************************
       *  GEOMETRY OPTIMIZATION  *
       ***************************

Optimization Method                    Quasi Newton
Optimization Coordinates               Delocalized Coordinates
Optimize lattice                       F
 
 ------------------------------------------------------
 Convergence criteria (Hartree,Angstrom)
 ------------------------------------------------------
 Maximum gradient               0.001000000000
 Maximum rms gradient           0.000666666667
 Maximum step allowed           0.010000000000
 Maximum rms step allowed       0.006666666667
 Maximum energy change allowe   0.000170000000
 Maximum stress energy allowe   0.000500000000
 
Initial model Hessian                  Automatic Hessian
 
------------------------------------
Quasi-Newton Optimizer Parameters
------------------------------------
Hessian Update Method                  BFGS
Maximum number of steps                  250
First GDIIS cycle                          0
Maximum GDIIS vectors                      0
Trust radius (bohr)                        0.200000
Trust radius varies                        T
Constraints converged at all steps         T
Use projector                              T
 
 Rigid motions settings for: old optimizer
 Atomic rotations (x,y,z):     T T T
 Atomic translations (x,y,z):  T T T
 Tolerance:                   1.000000000000000E-006
 
--------
Geometry
--------
Formula: C4H7Cl4OTi
Atoms
  Index Symbol   x (angstrom)   y (angstrom)   z (angstrom)
      1      H     0.30883566    -1.71322737     0.34845077
      2      C    -0.85933175     0.07325638     0.95361639
      3      C     0.30566658    -0.62207952     0.35697327
      4      C     1.44363467     0.02246096    -0.23005168
      5      O     1.61592302     1.24992601    -0.30213575
      6      H    -0.69195270     1.15283717     0.94428296
      7      H    -1.40849480    -1.48746718     2.39475159
      8      C    -1.20706757    -0.41125312     2.37345100
      9      H    -0.38777363    -0.20492454     3.06899219
     10      H    -2.09949902     0.10683830     2.73788510
     11      H    -1.70568492    -0.10955427     0.32499363
     12      H     2.18584514    -0.63577321    -0.63098981
     13     Ti     2.42160415     6.61766239    -0.15033132
     14     Cl     2.05590296     4.51894516    -0.20247893
     15     Cl     3.00703118     7.18799737     1.81767884
     16     Cl     0.64528404     7.66193283    -0.69370677
     17     Cl     3.97819842     7.10177420    -1.52281840
 
Total System Charge             0.00000
 
 
----------------
ADF Engine Input
----------------
 
 NumericalQuality VeryGood
 SCF
 Converge 1.0e-6
 Iterations 99
 End
 SYMMETRY NOSYM
 SpinPolarization 1.0
 Unrestricted Yes
 XC
 GGA OLYP
 End
 basis
 core None
 type TZ2P
 End
 

 Title: *** (NO TITLE) ***

Bad geometry: added dihedral    15   13    4   12
Bad geometry: added dihedral    15   13    4   12
Bad geometry: added dihedral    16   13    4   12
Bad geometry: added dihedral    16   13    4   12
Bad geometry: added dihedral    17   13    4   12
Bad geometry: added dihedral    17   13    4   12
 Using automatic Hessian for delocalized coordinates.
 *** GOStep1 ***

 Energy gradients wrt nuclear displacements
 ==========================================

     Atom      Cartesian (a.u./angstrom)
                 X         Y         Z
 ----------------------------------------
     1 H     0.000409  0.000462 -0.000007
     2 C    -0.028394 -0.006053 -0.021454
     3 C    -0.000639 -0.001060 -0.000974
     4 C     0.028753 -0.027728 -0.015678
     5 O     0.004558  0.001018 -0.002000
     6 H    -0.002239 -0.001545 -0.000058
     7 H     0.000061  0.000028 -0.000022
     8 C    -0.000763 -0.000394 -0.001294
     9 H     0.000181  0.000273 -0.000182
    10 H     0.000253  0.000090 -0.000255
    11 H     0.032736  0.007003  0.023467
    12 H    -0.034343  0.031787  0.018525
    13 Ti    0.001049  0.009034  0.000591
    14 Cl    0.005028  0.028030  0.000702
    15 Cl   -0.011349 -0.011156 -0.038180
    16 Cl    0.034549 -0.020403  0.010512
    17 Cl   -0.029851 -0.009385  0.026308
 ----------------------------------------
 Mulliken charges used for AMS results%charges...
 
----------------------------------------------------------------------
Geometry Convergence after Step   1       (Hartree/Angstrom,Angstrom)
----------------------------------------------------------------------
current energy                               -3.14814997 Hartree
energy change                      -3.14814997     0.00017000    F
constrained gradient max            0.03818576     0.00100000    F
constrained gradient rms            0.01620023     0.00066667    F
gradient max                        0.03818576
gradient rms                        0.01620023
cart. step max                      0.03557002     0.01000000    F
cart. step rms                      0.01454721     0.00666667    F
 
 
--------
Geometry
--------
Formula: C4H7Cl4OTi
Atoms
  Index Symbol   x (angstrom)   y (angstrom)   z (angstrom)
      1      H     0.30099239    -1.72604776     0.35203347
      2      C    -0.85441700     0.07552745     0.94559209
      3      C     0.30696753    -0.63463218     0.35724074
      4      C     1.45088458     0.00385554    -0.22616114
      5      O     1.61344065     1.23387731    -0.29408944
      6      H    -0.66823153     1.15299863     0.92886020
      7      H    -1.42052079    -1.46563282     2.40159736
      8      C    -1.20519848    -0.39230790     2.37119507
      9      H    -0.38230551    -0.19169895     3.06408876
     10      H    -2.09052623     0.13947426     2.73364773
     11      H    -1.72145471    -0.10457461     0.30581295
     12      H     2.21333923    -0.67134323    -0.63560862
     13     Ti     2.41291546     6.61610282    -0.14327598
     14     Cl     2.04867829     4.50255601    -0.19778675
     15     Cl     3.02312330     7.18905405     1.83972220
     16     Cl     0.61103214     7.66903274    -0.67026376
     17     Cl     3.96940211     7.11311021    -1.54404180
 
Total System Charge             0.00000
 
 *** GOStep2 ***

 Energy gradients wrt nuclear displacements
 ==========================================

     Atom      Cartesian (a.u./angstrom)
                 X         Y         Z
 ----------------------------------------
     1 H     0.000327  0.000124 -0.000114
     2 C    -0.010003 -0.002652 -0.007500
     3 C    -0.000402  0.001521  0.000284
     4 C     0.010294 -0.014319 -0.005010
     5 O     0.001280  0.007076 -0.000446
     6 H    -0.000243 -0.000280  0.000430
     7 H     0.000045  0.000051 -0.000096
     8 C     0.000227  0.000198 -0.000075
     9 H    -0.000072 -0.000014  0.000138
    10 H     0.000061  0.000026 -0.000056
    11 H     0.009775  0.002094  0.007083
    12 H    -0.010719  0.010020  0.005431
    13 Ti    0.000439  0.004490  0.000394
    14 Cl    0.002943  0.016379  0.000434
    15 Cl   -0.007104 -0.006666 -0.023078
    16 Cl    0.021047 -0.012311  0.006105
    17 Cl   -0.017897 -0.005736  0.016076
 ----------------------------------------
 Mulliken charges used for AMS results%charges...

 dE(predicted):    -0.27723E-02, dE(actual):    -0.40599E-02, Trust radius:    0.200000, all in a.u.
 
----------------------------------------------------------------------
Geometry Convergence after Step   2       (Hartree/Angstrom,Angstrom)
----------------------------------------------------------------------
current energy                               -3.15220990 Hartree
energy change                      -0.00405993     0.00017000    F
constrained gradient max            0.02308172     0.00100000    F
constrained gradient rms            0.00781898     0.00066667    F
gradient max                        0.02308172
gradient rms                        0.00781898
cart. step max                      0.03857982     0.01000000    F
cart. step rms                      0.01402006     0.00666667    F
 
 
--------
Geometry
--------
Formula: C4H7Cl4OTi
Atoms
  Index Symbol   x (angstrom)   y (angstrom)   z (angstrom)
      1      H     0.29304744    -1.73958679     0.35512599
      2      C    -0.85370883     0.07219371     0.94130505
      3      C     0.30074540    -0.64801716     0.35098302
      4      C     1.44062542    -0.00883509    -0.24013232
      5      O     1.60241243     1.21886773    -0.30189844
      6      H    -0.66250151     1.14885428     0.90790088
      7      H    -1.41313474    -1.45014755     2.42079295
      8      C    -1.19408287    -0.37803582     2.37541249
      9      H    -0.36370364    -0.17250721     3.05778997
     10      H    -2.07409337     0.16116086     2.74006947
     11      H    -1.73911679    -0.11531519     0.30292875
     12      H     2.22550208    -0.69678323    -0.63748975
     13     Ti     2.40906263     6.61973865    -0.13736494
     14     Cl     2.03666193     4.48931553    -0.20301986
     15     Cl     3.00775835     7.19199721     1.87830202
     16     Cl     0.59249908     7.69208893    -0.68477061
     17     Cl     4.00014842     7.12436269    -1.53737160
 
Total System Charge             0.00000
 
 *** GOStep3 ***

 Energy gradients wrt nuclear displacements
 ==========================================

     Atom      Cartesian (a.u./angstrom)
                 X         Y         Z
 ----------------------------------------
     1 H    -0.000031 -0.000370 -0.000003
     2 C     0.002580  0.000571  0.001698
     3 C     0.001564  0.001428  0.001234
     4 C    -0.005221  0.001471 -0.002971
     5 O     0.000528  0.003782  0.002029
     6 H     0.000610  0.000417  0.000134
     7 H    -0.000048 -0.000061  0.000064
     8 C     0.000392 -0.000039  0.000437
     9 H    -0.000100 -0.000066  0.000005
    10 H    -0.000088  0.000002  0.000015
    11 H    -0.003726 -0.000764 -0.002530
    12 H     0.004108 -0.002600 -0.000030
    13 Ti   -0.000101  0.000083  0.000106
    14 Cl    0.000551  0.002630  0.000115
    15 Cl   -0.001837 -0.001704 -0.006158
    16 Cl    0.005557 -0.003275  0.001668
    17 Cl   -0.004738 -0.001504  0.004188
 ----------------------------------------
 Mulliken charges used for AMS results%charges...

 dE(predicted):    -0.14495E-02, dE(actual):    -0.16548E-02, Trust radius:    0.200000, all in a.u.
 
----------------------------------------------------------------------
Geometry Convergence after Step   3       (Hartree/Angstrom,Angstrom)
----------------------------------------------------------------------
current energy                               -3.15386467 Hartree
energy change                      -0.00165477     0.00017000    F
constrained gradient max            0.00616042     0.00100000    F
constrained gradient rms            0.00224266     0.00066667    F
gradient max                        0.00616042
gradient rms                        0.00224266
cart. step max                      0.20513064     0.01000000    F
cart. step rms                      0.06076153     0.00666667    F
 
 
--------
Geometry
--------
Formula: C4H7Cl4OTi
Atoms
  Index Symbol   x (angstrom)   y (angstrom)   z (angstrom)
      1      H     0.31259340    -1.73863322     0.36232388
      2      C    -0.84646105     0.06843738     0.93815877
      3      C     0.32786114    -0.64753329     0.38314579
      4      C     1.49734564    -0.00292542    -0.14222734
      5      O     1.64183692     1.22458036    -0.22920595
      6      H    -0.64935177     1.14433725     0.93385479
      7      H    -1.48023278    -1.47976521     2.35928673
      8      C    -1.25360162    -0.40838527     2.34577456
      9      H    -0.45324418    -0.22189429     3.06837717
     10      H    -2.14599014     0.12900828     2.68179727
     11      H    -1.70465360    -0.10109877     0.25697264
     12      H     2.25139849    -0.68814260    -0.60509025
     13     Ti     2.42190701     6.64190553    -0.15373012
     14     Cl     2.05805362     4.50148462    -0.17718128
     15     Cl     3.21288900     7.22667153     1.80283525
     16     Cl     0.54429881     7.70590233    -0.52664072
     17     Cl     3.87347252     7.15540235    -1.70988810
 
Total System Charge             0.00000
 
 *** GOStep4 ***

 Energy gradients wrt nuclear displacements
 ==========================================

     Atom      Cartesian (a.u./angstrom)
                 X         Y         Z
 ----------------------------------------
     1 H    -0.000029 -0.000230  0.000366
     2 C     0.004085  0.000981  0.003214
     3 C    -0.002264  0.000556 -0.006541
     4 C     0.006357  0.004861  0.022454
     5 O    -0.003675  0.001882 -0.006452
     6 H     0.000364  0.000205  0.000034
     7 H    -0.000032 -0.000042  0.000012
     8 C    -0.000001  0.000094  0.000201
     9 H    -0.000023  0.000018 -0.000066
    10 H    -0.000043 -0.000036  0.000069
    11 H    -0.004553 -0.001052 -0.003479
    12 H     0.000313 -0.003539 -0.009806
    13 Ti   -0.000325 -0.001389 -0.000174
    14 Cl   -0.000363 -0.002641  0.000023
    15 Cl    0.000130  0.000114  0.000226
    16 Cl   -0.000127  0.000113  0.000001
    17 Cl    0.000185  0.000104 -0.000082
 ----------------------------------------
 Mulliken charges used for AMS results%charges...

 dE(predicted):    -0.27681E-03, dE(actual):     0.37547E-03, Trust radius:    0.046700, all in a.u.
 
----------------------------------------------------------------------
Geometry Convergence after Step   4       (Hartree/Angstrom,Angstrom)
----------------------------------------------------------------------
current energy                               -3.15348920 Hartree
energy change                       0.00037547     0.00017000    F
constrained gradient max            0.02245661     0.00100000    F
constrained gradient rms            0.00409587     0.00066667    F
gradient max                        0.02245661
gradient rms                        0.00409587
cart. step max                      0.04152030     0.01000000    F
cart. step rms                      0.01307230     0.00666667    F
 
 
--------
Geometry
--------
Formula: C4H7Cl4OTi
Atoms
  Index Symbol   x (angstrom)   y (angstrom)   z (angstrom)
      1      H     0.30623923    -1.73812044     0.35618074
      2      C    -0.84995088     0.06751368     0.94100290
      3      C     0.32004686    -0.64707295     0.37541003
      4      C     1.48375465    -0.00230300    -0.16298487
      5      O     1.63659542     1.22506841    -0.23898673
      6      H    -0.65532670     1.14372458     0.93352870
      7      H    -1.46670946    -1.48026350     2.36982117
      8      C    -1.24232957    -0.40848021     2.35297336
      9      H    -0.43537479    -0.21965309     3.06762619
     10      H    -2.13243532     0.12762198     2.69695938
     11      H    -1.71248175    -0.10401622     0.26984465
     12      H     2.24473235    -0.68697601    -0.60843432
     13     Ti     2.42229268     6.64223609    -0.15325606
     14     Cl     2.05357110     4.50287429    -0.18752102
     15     Cl     3.17136869     7.22411413     1.82016662
     16     Cl     0.55587273     7.71021759    -0.56671358
     17     Cl     3.90825620     7.15286624    -1.67705409
 
Total System Charge             0.00000
 
 *** GOStep5 ***

 Energy gradients wrt nuclear displacements
 ==========================================

     Atom      Cartesian (a.u./angstrom)
                 X         Y         Z
 ----------------------------------------
     1 H    -0.000047 -0.000094  0.000263
     2 C     0.002266  0.000615  0.001813
     3 C    -0.001728  0.000030 -0.004331
     4 C     0.004245  0.003311  0.014996
     5 O    -0.001932  0.002343 -0.004509
     6 H     0.000185  0.000037 -0.000037
     7 H    -0.000015 -0.000019  0.000015
     8 C    -0.000025  0.000007  0.000071
     9 H     0.000005  0.000016 -0.000044
    10 H    -0.000024 -0.000020  0.000026
    11 H    -0.002471 -0.000577 -0.001859
    12 H     0.000035 -0.001978 -0.006391
    13 Ti   -0.000230 -0.001214 -0.000003
    14 Cl   -0.000373 -0.002555 -0.000037
    15 Cl    0.000042  0.000081 -0.000006
    16 Cl    0.000049 -0.000024 -0.000011
    17 Cl    0.000018  0.000041  0.000042
 ----------------------------------------
 Mulliken charges used for AMS results%charges...

 dE(predicted):    -0.31163E-03, dE(actual):    -0.32385E-03, Trust radius:    0.093400, all in a.u.
 
----------------------------------------------------------------------
Geometry Convergence after Step   5       (Hartree/Angstrom,Angstrom)
----------------------------------------------------------------------
current energy                               -3.15381305 Hartree
energy change                      -0.00032385     0.00017000    F
constrained gradient max            0.01499567     0.00100000    F
constrained gradient rms            0.00271862     0.00066667    F
gradient max                        0.01499567
gradient rms                        0.00271862
cart. step max                      0.07818047     0.01000000    F
cart. step rms                      0.02398139     0.00666667    F
 
 
--------
Geometry
--------
Formula: C4H7Cl4OTi
Atoms
  Index Symbol   x (angstrom)   y (angstrom)   z (angstrom)
      1      H     0.29487207    -1.73979547     0.34745102
      2      C    -0.85459408     0.06619289     0.94397265
      3      C     0.30661904    -0.64875768     0.36117746
      4      C     1.45902538    -0.00592415    -0.20330445
      5      O     1.62525440     1.22089168    -0.25782519
      6      H    -0.66350389     1.14285476     0.92723862
      7      H    -1.44113485    -1.47465163     2.39236455
      8      C    -1.21988489    -0.40245205     2.36549827
      9      H    -0.40071808    -0.20759561     3.06450350
     10      H    -2.10497473     0.13345556     2.72240965
     11      H    -1.72604297    -0.11069928     0.29156981
     12      H     2.23283760    -0.69137701    -0.61364115
     13     Ti     2.42035237     6.64160875    -0.15077768
     14     Cl     2.04402182     4.50326589    -0.20782057
     15     Cl     3.09318822     7.21390727     1.85337404
     16     Cl     0.57508192     7.71863219    -0.63363943
     17     Cl     3.96772210     7.14979546    -1.61398804
 
Total System Charge             0.00000
 
 *** GOStep6 ***

 Energy gradients wrt nuclear displacements
 ==========================================

     Atom      Cartesian (a.u./angstrom)
                 X         Y         Z
 ----------------------------------------
     1 H     0.000030  0.000123 -0.000022
     2 C    -0.000394 -0.000054 -0.000270
     3 C    -0.000022 -0.000125 -0.000123
     4 C     0.000670  0.001169  0.000237
     5 O     0.000203  0.002186 -0.000026
     6 H    -0.000059 -0.000055 -0.000052
     7 H     0.000013  0.000020 -0.000018
     8 C    -0.000046 -0.000017 -0.000047
     9 H     0.000017  0.000005  0.000002
    10 H     0.000001 -0.000000 -0.000012
    11 H     0.000505  0.000144  0.000363
    12 H    -0.000393  0.000189 -0.000013
    13 Ti   -0.000106 -0.000992  0.000116
    14 Cl   -0.000453 -0.002997 -0.000094
    15 Cl    0.000091  0.000182  0.000348
    16 Cl   -0.000339  0.000148 -0.000096
    17 Cl    0.000282  0.000075 -0.000294
 ----------------------------------------
 Mulliken charges used for AMS results%charges...

 dE(predicted):    -0.25814E-03, dE(actual):    -0.26908E-03, Trust radius:    0.186801, all in a.u.
 
----------------------------------------------------------------------
Geometry Convergence after Step   6       (Hartree/Angstrom,Angstrom)
----------------------------------------------------------------------
current energy                               -3.15408213 Hartree
energy change                      -0.00026908     0.00017000    F
constrained gradient max            0.00299884     0.00100000    F
constrained gradient rms            0.00059847     0.00066667    T
gradient max                        0.00299884
gradient rms                        0.00059847
cart. step max                      0.00426361     0.01000000    T
cart. step rms                      0.00156749     0.00666667    T
 
 
--------
Geometry
--------
Formula: C4H7Cl4OTi
Atoms
  Index Symbol   x (angstrom)   y (angstrom)   z (angstrom)
      1      H     0.29567754    -1.74079680     0.34890784
      2      C    -0.85601927     0.06430393     0.94346637
      3      C     0.30602902    -0.64966391     0.36114481
      4      C     1.45782668    -0.00624047    -0.20410159
      5      O     1.62411622     1.22079946    -0.25803470
      6      H    -0.66637017     1.14123020     0.92560317
      7      H    -1.43974145    -1.47574079     2.39393626
      8      C    -1.22002278    -0.40324859     2.36570585
      9      H    -0.40087173    -0.20641459     3.06416164
     10      H    -2.10572974     0.13179259     2.72238585
     11      H    -1.72756756    -0.11468662     0.29149958
     12      H     2.23373926    -0.69145192    -0.61081282
     13     Ti     2.42151685     6.64413735    -0.15149862
     14     Cl     2.04436579     4.50597534    -0.20996863
     15     Cl     3.09536895     7.21352378     1.85306818
     16     Cl     0.57685855     7.72289580    -0.63258875
     17     Cl     3.96894528     7.15293681    -1.61431136
 
Total System Charge             0.00000
 
 *** GOStep7 ***

 Energy gradients wrt nuclear displacements
 ==========================================

     Atom      Cartesian (a.u./angstrom)
                 X         Y         Z
 ----------------------------------------
     1 H     0.000013  0.000051 -0.000005
     2 C    -0.000324 -0.000072 -0.000206
     3 C    -0.000002 -0.000109  0.000154
     4 C     0.000247  0.000791 -0.000600
     5 O     0.000480  0.002626  0.000204
     6 H    -0.000024 -0.000030 -0.000021
     7 H     0.000007  0.000008 -0.000009
     8 C    -0.000015 -0.000003 -0.000037
     9 H     0.000003 -0.000000  0.000006
    10 H     0.000002 -0.000002 -0.000010
    11 H     0.000362  0.000097  0.000254
    12 H    -0.000227  0.000187  0.000287
    13 Ti   -0.000133 -0.000952  0.000053
    14 Cl   -0.000425 -0.002949 -0.000058
    15 Cl    0.000088  0.000147  0.000326
    16 Cl   -0.000310  0.000144 -0.000085
    17 Cl    0.000258  0.000067 -0.000255
 ----------------------------------------
 Mulliken charges used for AMS results%charges...

 dE(predicted):    -0.63066E-05, dE(actual):    -0.11920E-04, Trust radius:    0.186801, all in a.u.
 
----------------------------------------------------------------------
Geometry Convergence after Step   7       (Hartree/Angstrom,Angstrom)
----------------------------------------------------------------------
current energy                               -3.15409405 Hartree
energy change                      -0.00001192     0.00017000    T
constrained gradient max            0.00295095     0.00100000    F
constrained gradient rms            0.00061009     0.00066667    T
gradient max                        0.00295095
gradient rms                        0.00061009
cart. step max                      0.04978616     0.01000000    F
cart. step rms                      0.01674240     0.00666667    F
 
 
--------
Geometry
--------
Formula: C4H7Cl4OTi
Atoms
  Index Symbol   x (angstrom)   y (angstrom)   z (angstrom)
      1      H     0.30741366    -1.74980361     0.36442462
      2      C    -0.86638650     0.04731081     0.93768304
      3      C     0.30633492    -0.65818056     0.36666832
      4      C     1.45561537    -0.00874052    -0.19730004
      5      O     1.61678758     1.21974867    -0.25208704
      6      H    -0.68896676     1.12632124     0.91175348
      7      H    -1.43697408    -1.48666953     2.40035954
      8      C    -1.22987071    -0.41187242     2.36294977
      9      H    -0.41577299    -0.19891965     3.06249979
     10      H    -2.12319079     0.11568773     2.71172244
     11      H    -1.73420235    -0.14872516     0.28334226
     12      H     2.24624149    -0.69035329    -0.58226366
     13     Ti     2.43297538     6.66745483    -0.15827430
     14     Cl     2.05030257     4.53054460    -0.22362391
     15     Cl     3.14515511     7.21361210     1.83881322
     16     Cl     0.58539018     7.75840787    -0.59648871
     17     Cl     3.95726935     7.18352844    -1.64161574
 
Total System Charge             0.00000
 
 *** GOStep8 ***

 Energy gradients wrt nuclear displacements
 ==========================================

     Atom      Cartesian (a.u./angstrom)
                 X         Y         Z
 ----------------------------------------
     1 H    -0.000061 -0.000373  0.000066
     2 C     0.000483 -0.000039  0.000418
     3 C     0.000160  0.000275  0.001303
     4 C    -0.002010 -0.000593 -0.003851
     5 O     0.001671  0.004120  0.001128
     6 H     0.000158  0.000147  0.000156
     7 H    -0.000034 -0.000070  0.000050
     8 C     0.000157  0.000068  0.000033
     9 H    -0.000073 -0.000020  0.000012
    10 H     0.000001 -0.000007  0.000007
    11 H    -0.000837 -0.000297 -0.000646
    12 H     0.000848  0.000021  0.001346
    13 Ti   -0.000360 -0.000715 -0.000408
    14 Cl   -0.000188 -0.002503  0.000214
    15 Cl    0.000079 -0.000128  0.000098
    16 Cl   -0.000031  0.000105 -0.000004
    17 Cl    0.000035  0.000008  0.000079
 ----------------------------------------
 Mulliken charges used for AMS results%charges...

 dE(predicted):    -0.49151E-04, dE(actual):    -0.75797E-04, Trust radius:    0.186801, all in a.u.
 
----------------------------------------------------------------------
Geometry Convergence after Step   8       (Hartree/Angstrom,Angstrom)
----------------------------------------------------------------------
current energy                               -3.15416985 Hartree
energy change                      -0.00007580     0.00017000    T
constrained gradient max            0.00412102     0.00100000    F
constrained gradient rms            0.00102594     0.00066667    F
gradient max                        0.00412102
gradient rms                        0.00102594
cart. step max                      0.07164848     0.01000000    F
cart. step rms                      0.02388829     0.00666667    F
 
 
--------
Geometry
--------
Formula: C4H7Cl4OTi
Atoms
  Index Symbol   x (angstrom)   y (angstrom)   z (angstrom)
      1      H     0.32340315    -1.76266632     0.38411778
      2      C    -0.87941247     0.02272278     0.93165479
      3      C     0.30773908    -0.67090399     0.37636807
      4      C     1.45415368    -0.01188624    -0.18225546
      5      O     1.60396563     1.21837112    -0.24159236
      6      H    -0.71780994     1.10407280     0.89682965
      7      H    -1.43722397    -1.50524364     2.40600525
      8      C    -1.24599011    -0.42782862     2.35905762
      9      H    -0.44015522    -0.19559250     3.06196581
     10      H    -2.14958349     0.08959587     2.69639809
     11      H    -1.74030345    -0.19369579     0.27258065
     12      H     2.26073753    -0.68690670    -0.54690883
     13     Ti     2.45110417     6.70313091    -0.16857902
     14     Cl     2.05948746     4.56804851    -0.24234631
     15     Cl     3.21680359     7.22069329     1.81549189
     16     Cl     0.60028567     7.80953857    -0.54777606
     17     Cl     3.94092012     7.22790154    -1.68244845
 
Total System Charge             0.00000
 
 *** GOStep9 ***

 Energy gradients wrt nuclear displacements
 ==========================================

     Atom      Cartesian (a.u./angstrom)
                 X         Y         Z
 ----------------------------------------
     1 H    -0.000098 -0.000683  0.000113
     2 C     0.001343  0.000102  0.001032
     3 C     0.000239  0.000664  0.001890
     4 C    -0.003687 -0.001528 -0.005560
     5 O     0.002405  0.005064  0.001608
     6 H     0.000256  0.000276  0.000284
     7 H    -0.000060 -0.000126  0.000095
     8 C     0.000254  0.000117  0.000104
     9 H    -0.000115 -0.000034 -0.000000
    10 H    -0.000008 -0.000012  0.000026
    11 H    -0.001853 -0.000694 -0.001446
    12 H     0.001744 -0.000197  0.001857
    13 Ti   -0.000568 -0.000419 -0.000844
    14 Cl    0.000060 -0.002108  0.000478
    15 Cl    0.000025 -0.000436 -0.000160
    16 Cl    0.000253  0.000078  0.000094
    17 Cl   -0.000189 -0.000065  0.000430
 ----------------------------------------
 Mulliken charges used for AMS results%charges...

 dE(predicted):    -0.58794E-04, dE(actual):    -0.96255E-04, Trust radius:    0.373602, all in a.u.
 
----------------------------------------------------------------------
Geometry Convergence after Step   9       (Hartree/Angstrom,Angstrom)
----------------------------------------------------------------------
current energy                               -3.15426610 Hartree
energy change                      -0.00009626     0.00017000    T
constrained gradient max            0.00555933     0.00100000    F
constrained gradient rms            0.00145248     0.00066667    F
gradient max                        0.00555933
gradient rms                        0.00145248
cart. step max                      0.12249624     0.01000000    F
cart. step rms                      0.04771626     0.00666667    F
 
 
--------
Geometry
--------
Formula: C4H7Cl4OTi
Atoms
  Index Symbol   x (angstrom)   y (angstrom)   z (angstrom)
      1      H     0.35142510    -1.79032826     0.41767510
      2      C    -0.90647008    -0.03232276     0.92643522
      3      C     0.30698059    -0.69929473     0.39639039
      4      C     1.44467743    -0.01739087    -0.15182594
      5      O     1.56559827     1.21605794    -0.22208184
      6      H    -0.77634519     1.05278889     0.87744638
      7      H    -1.43688571    -1.55390316     2.41790746
      8      C    -1.27673199    -0.47211228     2.35651341
      9      H    -0.48638811    -0.20558601     3.06476505
     10      H    -2.19905233     0.02345987     2.67552473
     11      H    -1.75350328    -0.28518104     0.26023764
     12      H     2.27744126    -0.67549929    -0.49036639
     13     Ti     2.49501877     6.78767640    -0.19272612
     14     Cl     2.07830623     4.65756204    -0.28713646
     15     Cl     3.33929983     7.25221700     1.77118172
     16     Cl     0.64913280     7.92699020    -0.48353966
     17     Cl     3.93561786     7.32421762    -1.74783762
 
Total System Charge             0.00000
 
 *** GOStep10 ***

 Energy gradients wrt nuclear displacements
 ==========================================

     Atom      Cartesian (a.u./angstrom)
                 X         Y         Z
 ----------------------------------------
     1 H    -0.000112 -0.000969  0.000134
     2 C     0.002446  0.000349  0.001730
     3 C     0.000237  0.001189  0.002203
     4 C    -0.005259 -0.002723 -0.006310
     5 O     0.002884  0.006091  0.001773
     6 H     0.000268  0.000376  0.000397
     7 H    -0.000089 -0.000191  0.000133
     8 C     0.000283  0.000123  0.000226
     9 H    -0.000138 -0.000058 -0.000026
    10 H    -0.000019 -0.000040  0.000056
    11 H    -0.002900 -0.001246 -0.002312
    12 H     0.002747 -0.000530  0.002051
    13 Ti   -0.000756  0.000112 -0.001197
    14 Cl    0.000430 -0.001541  0.000791
    15 Cl   -0.000182 -0.000782 -0.000576
    16 Cl    0.000727  0.000033  0.000091
    17 Cl   -0.000569 -0.000192  0.000839
 ----------------------------------------
 Mulliken charges used for AMS results%charges...

 dE(predicted):    -0.16140E-03, dE(actual):    -0.20639E-03, Trust radius:    0.747204, all in a.u.
 
----------------------------------------------------------------------
Geometry Convergence after Step  10       (Hartree/Angstrom,Angstrom)
----------------------------------------------------------------------
current energy                               -3.15447250 Hartree
energy change                      -0.00020639     0.00017000    F
constrained gradient max            0.00631375     0.00100000    F
constrained gradient rms            0.00185528     0.00066667    F
gradient max                        0.00631375
gradient rms                        0.00185528
cart. step max                      0.21174887     0.01000000    F
cart. step rms                      0.08688623     0.00666667    F
 
 
--------
Geometry
--------
Formula: C4H7Cl4OTi
Atoms
  Index Symbol   x (angstrom)   y (angstrom)   z (angstrom)
      1      H     0.40062858    -1.84813982     0.48650028
      2      C    -0.95044389    -0.13794124     0.91522889
      3      C     0.30637989    -0.76127491     0.43612302
      4      C     1.42542115    -0.03907073    -0.09666694
      5      O     1.48752592     1.19730420    -0.19176426
      6      H    -0.87376198     0.94985917     0.82856829
      7      H    -1.43804207    -1.62825063     2.45241281
      8      C    -1.33053041    -0.54280279     2.35327110
      9      H    -0.57030062    -0.21042541     3.06663499
     10      H    -2.28321190    -0.08268871     2.63391421
     11      H    -1.76891420    -0.45807189     0.24163857
     12      H     2.29722524    -0.66329537    -0.40196151
     13     Ti     2.57454292     6.94570163    -0.23172175
     14     Cl     2.10892986     4.82613066    -0.38237628
     15     Cl     3.55010379     7.30561710     1.69157371
     16     Cl     0.74506907     8.13873906    -0.36275398
     17     Cl     3.92750007     7.51796124    -1.85005806
 
Total System Charge             0.00000
 
 *** GOStep11 ***

 Energy gradients wrt nuclear displacements
 ==========================================

     Atom      Cartesian (a.u./angstrom)
                 X         Y         Z
 ----------------------------------------
     1 H     0.000006 -0.000910  0.000112
     2 C     0.003234  0.000693  0.001999
     3 C     0.000275  0.001669  0.001827
     4 C    -0.005330 -0.003706 -0.005215
     5 O     0.001819  0.005317  0.001726
     6 H     0.000079  0.000448  0.000337
     7 H    -0.000075 -0.000142  0.000076
     8 C     0.000204  0.000117  0.000308
     9 H    -0.000103 -0.000015 -0.000054
    10 H    -0.000019  0.000003  0.000041
    11 H    -0.003170 -0.001552 -0.002695
    12 H     0.003251 -0.000820  0.001508
    13 Ti   -0.000737  0.001256 -0.001072
    14 Cl    0.000797 -0.001276  0.000941
    15 Cl   -0.000319 -0.001074 -0.000835
    16 Cl    0.000892  0.000228 -0.000076
    17 Cl   -0.000804 -0.000235  0.001073
 ----------------------------------------
 Mulliken charges used for AMS results%charges...

 dE(predicted):    -0.29332E-03, dE(actual):    -0.29632E-03, Trust radius:    1.000000, all in a.u.
 
----------------------------------------------------------------------
Geometry Convergence after Step  11       (Hartree/Angstrom,Angstrom)
----------------------------------------------------------------------
current energy                               -3.15476881 Hartree
energy change                      -0.00029632     0.00017000    F
constrained gradient max            0.00532871     0.00100000    F
constrained gradient rms            0.00182954     0.00066667    F
gradient max                        0.00532871
gradient rms                        0.00182954
cart. step max                      0.14350190     0.01000000    F
cart. step rms                      0.05369823     0.00666667    F
 
 
--------
Geometry
--------
Formula: C4H7Cl4OTi
Atoms
  Index Symbol   x (angstrom)   y (angstrom)   z (angstrom)
      1      H     0.42081930    -1.88410364     0.51678825
      2      C    -0.97853293    -0.20636698     0.91999655
      3      C     0.29834602    -0.80094363     0.45735422
      4      C     1.40195466    -0.05188307    -0.07031934
      5      O     1.42579177     1.18325455    -0.18555356
      6      H    -0.93147131     0.88148668     0.81744087
      7      H    -1.43377146    -1.68724422     2.47583728
      8      C    -1.35603706    -0.60082033     2.36163319
      9      H    -0.60956637    -0.23709088     3.07430273
     10      H    -2.32285407    -0.16337549     2.62987035
     11      H    -1.78253441    -0.55822184     0.24799361
     12      H     2.28889676    -0.65425556    -0.37251734
     13     Ti     2.63288891     7.05626138    -0.25997201
     14     Cl     2.12254778     4.94828784    -0.46076915
     15     Cl     3.62703382     7.35806198     1.66357161
     16     Cl     0.82293538     8.28224097    -0.35081363
     17     Cl     3.98167465     7.64406379    -1.87628056
 
Total System Charge             0.00000
 
 *** GOStep12 ***

 Energy gradients wrt nuclear displacements
 ==========================================

     Atom      Cartesian (a.u./angstrom)
                 X         Y         Z
 ----------------------------------------
     1 H    -0.000051 -0.000447  0.000047
     2 C     0.002049  0.000603  0.001168
     3 C     0.000174  0.000926  0.000579
     4 C    -0.003262 -0.002267 -0.001769
     5 O     0.000952  0.002645  0.000590
     6 H    -0.000006  0.000165  0.000138
     7 H    -0.000033 -0.000052  0.000038
     8 C     0.000022  0.000011  0.000187
     9 H    -0.000019  0.000006 -0.000055
    10 H    -0.000006  0.000007  0.000011
    11 H    -0.001660 -0.000955 -0.001456
    12 H     0.001890 -0.000271  0.000520
    13 Ti    0.000063  0.001951 -0.000538
    14 Cl    0.000374 -0.001616  0.000591
    15 Cl   -0.000350 -0.000833 -0.000761
    16 Cl    0.000608  0.000264 -0.000138
    17 Cl   -0.000747 -0.000138  0.000850
 ----------------------------------------
 Mulliken charges used for AMS results%charges...
 Rebuilding optimization coordinates

 dE(predicted):    -0.12581E-03, dE(actual):    -0.16400E-03, Trust radius:    1.000000, all in a.u.
 
----------------------------------------------------------------------
Geometry Convergence after Step  12       (Hartree/Angstrom,Angstrom)
----------------------------------------------------------------------
current energy                               -3.15493281 Hartree
energy change                      -0.00016400     0.00017000    T
constrained gradient max            0.00325883     0.00100000    F
constrained gradient rms            0.00103523     0.00066667    F
gradient max                        0.00325883
gradient rms                        0.00103523
cart. step max                      0.05738281     0.01000000    F
cart. step rms                      0.02331384     0.00666667    F
 
 
--------
Geometry
--------
Formula: C4H7Cl4OTi
Atoms
  Index Symbol   x (angstrom)   y (angstrom)   z (angstrom)
      1      H     0.42497030    -1.89926202     0.52417602
      2      C    -0.98960104    -0.23358757     0.92672888
      3      C     0.29233140    -0.81771154     0.46378082
      4      C     1.38726176    -0.05855996    -0.06782770
      5      O     1.39507262     1.17468760    -0.19319173
      6      H    -0.95248495     0.85409429     0.81988047
      7      H    -1.42789976    -1.71301556     2.48840468
      8      C    -1.36051379    -0.62634972     2.37047568
      9      H    -0.61605152    -0.25340096     3.08053315
     10      H    -2.33082769    -0.19694336     2.63904522
     11      H    -1.79067322    -0.59407876     0.25890610
     12      H     2.27462689    -0.65380557    -0.37879497
     13     Ti     2.65933587     7.10289076    -0.27031848
     14     Cl     2.12392358     5.00308041    -0.49881650
     15     Cl     3.62780819     7.39123151     1.66888303
     16     Cl     0.85738882     8.33962378    -0.37712166
     17     Cl     4.03345395     7.69045824    -1.86617992
 
Total System Charge             0.00000
 
 *** GOStep13 ***

 Energy gradients wrt nuclear displacements
 ==========================================

     Atom      Cartesian (a.u./angstrom)
                 X         Y         Z
 ----------------------------------------
     1 H    -0.000082 -0.000043 -0.000041
     2 C     0.000520  0.000225  0.000153
     3 C     0.000431  0.000342 -0.000238
     4 C    -0.001202 -0.000159  0.000442
     5 O     0.000335 -0.000069 -0.000075
     6 H    -0.000042 -0.000044  0.000008
     7 H    -0.000000  0.000011  0.000003
     8 C    -0.000059 -0.000034  0.000088
     9 H     0.000019  0.000007 -0.000017
    10 H     0.000011  0.000005 -0.000008
    11 H    -0.000270 -0.000204 -0.000206
    12 H     0.000358  0.000162 -0.000083
    13 Ti    0.000798  0.001681 -0.000106
    14 Cl   -0.000220 -0.001637  0.000174
    15 Cl   -0.000271 -0.000383 -0.000482
    16 Cl    0.000168  0.000160 -0.000091
    17 Cl   -0.000493 -0.000018  0.000482
 ----------------------------------------
 Mulliken charges used for AMS results%charges...

 dE(predicted):    -0.37520E-04, dE(actual):    -0.53984E-04, Trust radius:    1.000000, all in a.u.
 
----------------------------------------------------------------------
Geometry Convergence after Step  13       (Hartree/Angstrom,Angstrom)
----------------------------------------------------------------------
current energy                               -3.15498679 Hartree
energy change                      -0.00005398     0.00017000    T
constrained gradient max            0.00168315     0.00100000    F
constrained gradient rms            0.00044414     0.00066667    T
gradient max                        0.00168315
gradient rms                        0.00044414
cart. step max                      0.01747003     0.01000000    F
cart. step rms                      0.00720345     0.00666667    F
 
 
--------
Geometry
--------
Formula: C4H7Cl4OTi
Atoms
  Index Symbol   x (angstrom)   y (angstrom)   z (angstrom)
      1      H     0.42827136    -1.90391996     0.52936666
      2      C    -0.99344819    -0.24302481     0.92760385
      3      C     0.29114092    -0.82311991     0.46658967
      4      C     1.38325937    -0.06036847    -0.06628704
      5      O     1.38482678     1.17279775    -0.19414779
      6      H    -0.96017033     0.84457630     0.81862761
      7      H    -1.42697046    -1.72095835     2.49194001
      8      C    -1.36361219    -0.63427976     2.37192822
      9      H    -0.62097364    -0.25716248     3.08169761
     10      H    -2.33569097    -0.20801632     2.63914238
     11      H    -1.79259510    -0.60748378     0.26027545
     12      H     2.27208200    -0.65300759    -0.37733230
     13     Ti     2.66801565     7.11780075    -0.27320189
     14     Cl     2.12688491     5.02055044    -0.50800521
     15     Cl     3.63694865     7.40373526     1.66645025
     16     Cl     0.86695614     8.35605915    -0.37737685
     17     Cl     4.04319655     7.70517334    -1.86870756
 
Total System Charge             0.00000
 
 *** GOStep14 ***

 Energy gradients wrt nuclear displacements
 ==========================================

     Atom      Cartesian (a.u./angstrom)
                 X         Y         Z
 ----------------------------------------
     1 H    -0.000059  0.000035 -0.000038
     2 C     0.000109  0.000091 -0.000085
     3 C     0.000264  0.000140 -0.000239
     4 C    -0.000276 -0.000406  0.000507
     5 O    -0.000022  0.000398 -0.000106
     6 H    -0.000034 -0.000042 -0.000006
     7 H     0.000006  0.000016 -0.000007
     8 C    -0.000044 -0.000017  0.000071
     9 H     0.000018  0.000003 -0.000004
    10 H     0.000009  0.000006 -0.000007
    11 H     0.000010 -0.000031  0.000052
    12 H     0.000046  0.000035 -0.000115
    13 Ti    0.000751  0.001295  0.000015
    14 Cl   -0.000295 -0.001389  0.000047
    15 Cl   -0.000207 -0.000220 -0.000360
    16 Cl    0.000068  0.000100 -0.000057
    17 Cl   -0.000344 -0.000014  0.000331
 ----------------------------------------
 Mulliken charges used for AMS results%charges...

 dE(predicted):    -0.41813E-05, dE(actual):    -0.85791E-05, Trust radius:    1.000000, all in a.u.
 
----------------------------------------------------------------------
Geometry Convergence after Step  14       (Hartree/Angstrom,Angstrom)
----------------------------------------------------------------------
current energy                               -3.15499537 Hartree
energy change                      -0.00000858     0.00017000    T
constrained gradient max            0.00138747     0.00100000    F
constrained gradient rms            0.00033153     0.00066667    T
gradient max                        0.00138747
gradient rms                        0.00033153
cart. step max                      0.09237263     0.01000000    F
cart. step rms                      0.03911219     0.00666667    F
 
 
--------
Geometry
--------
Formula: C4H7Cl4OTi
Atoms
  Index Symbol   x (angstrom)   y (angstrom)   z (angstrom)
      1      H     0.44724345    -1.92714532     0.55896178
      2      C    -1.01388826    -0.29380117     0.93089827
      3      C     0.28586176    -0.85069049     0.48276943
      4      C     1.36246720    -0.06846874    -0.05398338
      5      O     1.33288642     1.16308398    -0.19359945
      6      H    -1.00266293     0.79303550     0.81011688
      7      H    -1.42311870    -1.76334605     2.50944578
      8      C    -1.38257362    -0.67692962     2.37770466
      9      H    -0.65189298    -0.27613708     3.08691262
     10      H    -2.36496892    -0.26890591     2.63561140
     11      H    -1.80108594    -0.68154155     0.26438733
     12      H     2.26289631    -0.64529423    -0.35887013
     13     Ti     2.71302773     7.19719149    -0.29058717
     14     Cl     2.14380362     5.11292307    -0.56333235
     15     Cl     3.69648864     7.45778990     1.64665561
     16     Cl     0.91876730     8.44727270    -0.36570332
     17     Cl     4.08487037     7.79031507    -1.88882486
 
Total System Charge             0.00000
 
 *** GOStep15 ***

 Energy gradients wrt nuclear displacements
 ==========================================

     Atom      Cartesian (a.u./angstrom)
                 X         Y         Z
 ----------------------------------------
     1 H    -0.000024  0.000211  0.000015
     2 C    -0.001090 -0.000319 -0.000826
     3 C     0.000446 -0.000079 -0.000434
     4 C     0.002012 -0.000323  0.000410
     5 O    -0.001201  0.000516  0.000121
     6 H     0.000029 -0.000013 -0.000048
     7 H     0.000022  0.000021 -0.000028
     8 C     0.000042  0.000041  0.000024
     9 H     0.000004 -0.000008  0.000028
    10 H     0.000001  0.000015 -0.000003
    11 H     0.000822  0.000506  0.000798
    12 H    -0.000998 -0.000373 -0.000022
    13 Ti    0.000390  0.000037  0.000628
    14 Cl   -0.000551 -0.000500 -0.000557
    15 Cl    0.000104  0.000438  0.000167
    16 Cl   -0.000298 -0.000119  0.000064
    17 Cl    0.000289 -0.000050 -0.000337
 ----------------------------------------
 Mulliken charges used for AMS results%charges...

 dE(predicted):    -0.15043E-04, dE(actual):    -0.45401E-05, Trust radius:    1.000000, all in a.u.
 
----------------------------------------------------------------------
Geometry Convergence after Step  15       (Hartree/Angstrom,Angstrom)
----------------------------------------------------------------------
current energy                               -3.15499991 Hartree
energy change                      -0.00000454     0.00017000    T
constrained gradient max            0.00201248     0.00100000    F
constrained gradient rms            0.00050712     0.00066667    T
gradient max                        0.00201248
gradient rms                        0.00050712
cart. step max                      0.01164993     0.01000000    F
cart. step rms                      0.00340337     0.00666667    T
 
 
--------
Geometry
--------
Formula: C4H7Cl4OTi
Atoms
  Index Symbol   x (angstrom)   y (angstrom)   z (angstrom)
      1      H     0.44575290    -1.92538631     0.55712342
      2      C    -1.01330893    -0.29087368     0.93085020
      3      C     0.28600042    -0.84849897     0.48258805
      4      C     1.36494362    -0.06754174    -0.05292028
      5      O     1.33923184     1.16419249    -0.19278029
      6      H    -1.00067302     0.79625180     0.81274812
      7      H    -1.42612105    -1.76383135     2.50537757
      8      C    -1.38407138    -0.67714433     2.37629556
      9      H    -0.65365400    -0.27897128     3.08724173
     10      H    -2.36623467    -0.26854623     2.63417065
     11      H    -1.80053116    -0.67626421     0.26228060
     12      H     2.26560625    -0.64535084    -0.35608419
     13     Ti     2.71115686     7.19452560    -0.29100353
     14     Cl     2.14703516     5.10844965    -0.55168242
     15     Cl     3.70144355     7.45964045     1.64193809
     16     Cl     0.91529289     8.44225804    -0.36245474
     17     Cl     4.07625215     7.78644248    -1.89512548
 
Total System Charge             0.00000
 
 *** GOStep16 ***

 Energy gradients wrt nuclear displacements
 ==========================================

     Atom      Cartesian (a.u./angstrom)
                 X         Y         Z
 ----------------------------------------
     1 H    -0.000045  0.000113 -0.000008
     2 C    -0.000799 -0.000222 -0.000522
     3 C    -0.000158 -0.000363 -0.000098
     4 C     0.001727 -0.000464  0.000318
     5 O    -0.000658  0.001010 -0.000115
     6 H     0.000045 -0.000022 -0.000021
     7 H     0.000010  0.000008 -0.000009
     8 C     0.000034  0.000030  0.000032
     9 H     0.000000 -0.000005  0.000017
    10 H    -0.000002  0.000009  0.000005
    11 H     0.000507  0.000293  0.000519
    12 H    -0.000595 -0.000177 -0.000092
    13 Ti    0.000127 -0.000325  0.000289
    14 Cl   -0.000294  0.000009 -0.000283
    15 Cl    0.000046  0.000275  0.000071
    16 Cl   -0.000127 -0.000134  0.000070
    17 Cl    0.000181 -0.000035 -0.000173
 ----------------------------------------
 Mulliken charges used for AMS results%charges...

 dE(predicted):    -0.47437E-05, dE(actual):    -0.72878E-05, Trust radius:    1.000000, all in a.u.
 
----------------------------------------------------------------------
Geometry Convergence after Step  16       (Hartree/Angstrom,Angstrom)
----------------------------------------------------------------------
current energy                               -3.15500720 Hartree
energy change                      -0.00000729     0.00017000    T
constrained gradient max            0.00172759     0.00100000    F
constrained gradient rms            0.00038287     0.00066667    T
gradient max                        0.00172759
gradient rms                        0.00038287
cart. step max                      0.05647284     0.01000000    F
cart. step rms                      0.02308456     0.00666667    F
 
 
--------
Geometry
--------
Formula: C4H7Cl4OTi
Atoms
  Index Symbol   x (angstrom)   y (angstrom)   z (angstrom)
      1      H     0.45563446    -1.93520868     0.57429455
      2      C    -1.02403474    -0.31593596     0.93152372
      3      C     0.28430781    -0.86041239     0.49386464
      4      C     1.35854650    -0.07051291    -0.03921288
      5      O     1.32288863     1.16003351    -0.18617814
      6      H    -1.02275964     0.77103574     0.81104300
      7      H    -1.43203615    -1.79018571     2.50621184
      8      C    -1.40128429    -0.70336584     2.37495873
      9      H    -0.68076560    -0.29538494     3.09042350
     10      H    -2.38991564    -0.30541292     2.62464016
     11      H    -1.80231254    -0.71188483     0.25751493
     12      H     2.26896713    -0.63971792    -0.33064913
     13     Ti     2.73384915     7.23769131    -0.30417748
     14     Cl     2.16579734     5.15440437    -0.56686199
     15     Cl     3.75791639     7.48555173     1.61350347
     16     Cl     0.94018279     8.48982171    -0.33574524
     17     Cl     4.07313986     7.83883530    -1.92659059
 
Total System Charge             0.00000
 
 *** GOStep17 ***

 Energy gradients wrt nuclear displacements
 ==========================================

     Atom      Cartesian (a.u./angstrom)
                 X         Y         Z
 ----------------------------------------
     1 H    -0.000056 -0.000036 -0.000026
     2 C    -0.000287 -0.000021 -0.000086
     3 C    -0.000571 -0.000500  0.000277
     4 C     0.000848 -0.000181 -0.000085
     5 O     0.000027  0.000821 -0.000175
     6 H     0.000057  0.000004  0.000019
     7 H    -0.000007 -0.000007  0.000015
     8 C     0.000046  0.000011  0.000043
     9 H    -0.000006  0.000006 -0.000001
    10 H    -0.000009  0.000004  0.000010
    11 H     0.000029 -0.000027  0.000073
    12 H    -0.000022  0.000032 -0.000045
    13 Ti   -0.000526 -0.001056 -0.000052
    14 Cl    0.000126  0.000933 -0.000037
    15 Cl    0.000093  0.000172  0.000148
    16 Cl    0.000049 -0.000130  0.000085
    17 Cl    0.000208 -0.000023 -0.000164
 ----------------------------------------
 Mulliken charges used for AMS results%charges...

 dE(predicted):    -0.90266E-05, dE(actual):    -0.57300E-05, Trust radius:    1.000000, all in a.u.
 
----------------------------------------------------------------------
Geometry Convergence after Step  17       (Hartree/Angstrom,Angstrom)
----------------------------------------------------------------------
current energy                               -3.15501293 Hartree
energy change                      -0.00000573     0.00017000    T
constrained gradient max            0.00105643     0.00100000    F
constrained gradient rms            0.00030267     0.00066667    T
gradient max                        0.00105643
gradient rms                        0.00030267
cart. step max                      0.04670641     0.01000000    F
cart. step rms                      0.01858632     0.00666667    F
 
 
--------
Geometry
--------
Formula: C4H7Cl4OTi
Atoms
  Index Symbol   x (angstrom)   y (angstrom)   z (angstrom)
      1      H     0.46473563    -1.94262411     0.58980278
      2      C    -1.03154692    -0.33558782     0.93189004
      3      C     0.28400944    -0.86977433     0.50378486
      4      C     1.35336022    -0.07282665    -0.02689787
      5      O     1.30838709     1.15658961    -0.17832698
      6      H    -1.03935121     0.75106475     0.80877429
      7      H    -1.43695125    -1.81008051     2.50695829
      8      C    -1.41502132    -0.72330653     2.37357657
      9      H    -0.70294520    -0.30741707     3.09293307
     10      H    -2.40880839    -0.33369746     2.61579986
     11      H    -1.80205864    -0.74007224     0.25345418
     12      H     2.27134762    -0.63479029    -0.30936509
     13     Ti     2.75139732     7.27118251    -0.31508189
     14     Cl     2.17900155     5.18977819    -0.58875985
     15     Cl     3.80195658     7.49698345     1.59086948
     16     Cl     0.96101766     8.52838835    -0.31123159
     17     Cl     4.06959125     7.88554171    -1.94961707
 
Total System Charge             0.00000
 
 *** GOStep18 ***

 Energy gradients wrt nuclear displacements
 ==========================================

     Atom      Cartesian (a.u./angstrom)
                 X         Y         Z
 ----------------------------------------
     1 H    -0.000025 -0.000069 -0.000035
     2 C     0.000155  0.000155  0.000072
     3 C    -0.000087 -0.000040  0.000175
     4 C    -0.000305  0.000163 -0.000300
     5 O     0.000228 -0.000046  0.000066
     6 H     0.000009  0.000016  0.000027
     7 H    -0.000010 -0.000005  0.000014
     8 C     0.000030 -0.000006  0.000065
     9 H    -0.000003  0.000005 -0.000011
    10 H    -0.000009 -0.000001  0.000001
    11 H    -0.000188 -0.000178 -0.000143
    12 H     0.000224  0.000050  0.000085
    13 Ti   -0.000619 -0.000756 -0.000093
    14 Cl    0.000224  0.000679  0.000000
    15 Cl    0.000120  0.000068  0.000201
    16 Cl    0.000086 -0.000013  0.000045
    17 Cl    0.000168 -0.000021 -0.000170
 ----------------------------------------
 Mulliken charges used for AMS results%charges...

 dE(predicted):    -0.39326E-05, dE(actual):    -0.16127E-05, Trust radius:    1.000000, all in a.u.
 
----------------------------------------------------------------------
Geometry Convergence after Step  18       (Hartree/Angstrom,Angstrom)
----------------------------------------------------------------------
current energy                               -3.15501454 Hartree
energy change                      -0.00000161     0.00017000    T
constrained gradient max            0.00075560     0.00100000    T
constrained gradient rms            0.00020406     0.00066667    T
gradient max                        0.00075560
gradient rms                        0.00020406
cart. step max                      0.02323548     0.01000000    F
cart. step rms                      0.00878045     0.00666667    F
 
 
--------
Geometry
--------
Formula: C4H7Cl4OTi
Atoms
  Index Symbol   x (angstrom)   y (angstrom)   z (angstrom)
      1      H     0.46898876    -1.94624826     0.59717798
      2      C    -1.03492423    -0.34504624     0.93296950
      3      C     0.28380570    -0.87438208     0.50872093
      4      C     1.35036240    -0.07382144    -0.02137304
      5      O     1.29984040     1.15520984    -0.17526522
      6      H    -1.04647657     0.74151680     0.80943799
      7      H    -1.43968345    -1.82074104     2.50696255
      8      C    -1.42138390    -0.73391217     2.37350811
      9      H    -0.71306218    -0.31531453     3.09500442
     10      H    -2.41733850    -0.34795323     2.61262633
     11      H    -1.80187229    -0.75235873     0.25232775
     12      H     2.27101367    -0.63235864    -0.30180794
     13     Ti     2.76071534     7.28788644    -0.32065962
     14     Cl     2.18494157     5.20762853    -0.60071097
     15     Cl     3.81988866     7.50356791     1.58142487
     16     Cl     0.97176169     8.54690119    -0.30342850
     17     Cl     4.07154435     7.90877720    -1.95835206
 
Total System Charge             0.00000
 
 *** GOStep19 ***

 Energy gradients wrt nuclear displacements
 ==========================================

     Atom      Cartesian (a.u./angstrom)
                 X         Y         Z
 ----------------------------------------
     1 H    -0.000026 -0.000038 -0.000025
     2 C     0.000156  0.000115 -0.000014
     3 C     0.000096  0.000066  0.000026
     4 C    -0.000340 -0.000144 -0.000075
     5 O     0.000107  0.000139  0.000033
     6 H    -0.000006  0.000001  0.000019
     7 H    -0.000004  0.000001  0.000003
     8 C     0.000006 -0.000000  0.000078
     9 H    -0.000002  0.000002 -0.000009
    10 H    -0.000007  0.000000 -0.000003
    11 H    -0.000111 -0.000120 -0.000071
    12 H     0.000141 -0.000017  0.000056
    13 Ti   -0.000424 -0.000453 -0.000060
    14 Cl    0.000164  0.000452 -0.000008
    15 Cl    0.000070  0.000027  0.000134
    16 Cl    0.000096 -0.000010  0.000021
    17 Cl    0.000084 -0.000022 -0.000105
 ----------------------------------------
 Mulliken charges used for AMS results%charges...
 
---------------------------------------------------------
Geometry Convergence after Step  19       ** CONVERGED **
---------------------------------------------------------
current energy                               -3.15501456 Hartree
energy change                      -0.00000002     0.00017000    T
constrained gradient max            0.00045286     0.00100000    T
constrained gradient rms            0.00013734     0.00066667    T
gradient max                        0.00045286
gradient rms                        0.00013734
cart. step max                      0.00649683     0.01000000    T
cart. step rms                      0.00218476     0.00666667    T
 
Geometry optimization converged

Optimized geometry:
 
--------
Geometry
--------
Formula: C4H7Cl4OTi
Atoms
  Index Symbol   x (angstrom)   y (angstrom)   z (angstrom)
      1      H     0.46898876    -1.94624826     0.59717798
      2      C    -1.03492423    -0.34504624     0.93296950
      3      C     0.28380570    -0.87438208     0.50872093
      4      C     1.35036240    -0.07382144    -0.02137304
      5      O     1.29984040     1.15520984    -0.17526522
      6      H    -1.04647657     0.74151680     0.80943799
      7      H    -1.43968345    -1.82074104     2.50696255
      8      C    -1.42138390    -0.73391217     2.37350811
      9      H    -0.71306218    -0.31531453     3.09500442
     10      H    -2.41733850    -0.34795323     2.61262633
     11      H    -1.80187229    -0.75235873     0.25232775
     12      H     2.27101367    -0.63235864    -0.30180794
     13     Ti     2.76071534     7.28788644    -0.32065962
     14     Cl     2.18494157     5.20762853    -0.60071097
     15     Cl     3.81988866     7.50356791     1.58142487
     16     Cl     0.97176169     8.54690119    -0.30342850
     17     Cl     4.07154435     7.90877720    -1.95835206
 
Total System Charge             0.00000
 
Performing a single point calculation on the final geometry ...

 *** adf ***



 ===========================
 A T T A C H E D   F I L E S
 ===========================
  
 Restart
 /scratch/3981/amstmp_38.achiral_catalyst.H_H_TiCl4.P1_kid0.1586998739/GOStep19.
 rkf*** GOStep19 ***



 ===============================
 M O D E L   P A R A M E T E R S
 ===============================
  
 DENSITY FUNCTIONAL POTENTIAL (scf)
    LDA:                               Exchange only                           == Not Default ==
    Gradient Corrections:              OPTX LYP                                == Not Default ==

 SPIN  (restricted / unrestr.)
    Molecule:                          UNrestricted                            == Not Default ==
    Fragments:                         Restricted                               

 OTHER ASPECTS
    Relativistic Corrections:          scalar (ZORA,MAPA)                       

    Nuclear Charge Density Model:      Point Charge Nuclei                      
    Core Treatment:                    Frozen Orbital(s)                        

    Hyperfine or Zeeman Interaction:   ---                                      



 ===============
 G E O M E T R Y  ***  3D  Molecule  ***
 ===============
  

 ATOMS
 =====                            X Y Z                    CHARGE
                                (Angstrom)             Nucl     +Core       At.Mass
                       --------------------------    ----------------       -------
    1  H               0.4690   -1.9462    0.5972      1.00      1.00        1.0078
    2  C              -1.0349   -0.3450    0.9330      6.00      6.00       12.0000
    3  C               0.2838   -0.8744    0.5087      6.00      6.00       12.0000
    4  C               1.3504   -0.0738   -0.0214      6.00      6.00       12.0000
    5  O               1.2998    1.1552   -0.1753      8.00      8.00       15.9949
    6  H              -1.0465    0.7415    0.8094      1.00      1.00        1.0078
    7  H              -1.4397   -1.8207    2.5070      1.00      1.00        1.0078
    8  C              -1.4214   -0.7339    2.3735      6.00      6.00       12.0000
    9  H              -0.7131   -0.3153    3.0950      1.00      1.00        1.0078
   10  H              -2.4173   -0.3480    2.6126      1.00      1.00        1.0078
   11  H              -1.8019   -0.7524    0.2523      1.00      1.00        1.0078
   12  H               2.2710   -0.6324   -0.3018      1.00      1.00        1.0078
   13  Ti              2.7607    7.2879   -0.3207     22.00     22.00       47.9479
   14  Cl              2.1849    5.2076   -0.6007     17.00     17.00       34.9689
   15  Cl              3.8199    7.5036    1.5814     17.00     17.00       34.9689
   16  Cl              0.9718    8.5469   -0.3034     17.00     17.00       34.9689
   17  Cl              4.0715    7.9088   -1.9584     17.00     17.00       34.9689


 FRAGMENTS
 =========                                     Atoms in this Fragment     Cart. coord.s (Angstrom)
                                               -------------------------------------------------------
    1  H                                                 1  H            0.4690   -1.9462    0.5972
    2  H                                                 6  H           -1.0465    0.7415    0.8094
    3  H                                                 7  H           -1.4397   -1.8207    2.5070
    4  H                                                 9  H           -0.7131   -0.3153    3.0950
    5  H                                                10  H           -2.4173   -0.3480    2.6126
    6  H                                                11  H           -1.8019   -0.7524    0.2523
    7  H                                                12  H            2.2710   -0.6324   -0.3018
    8  C                                                 2  C           -1.0349   -0.3450    0.9330
    9  C                                                 3  C            0.2838   -0.8744    0.5087
   10  C                                                 4  C            1.3504   -0.0738   -0.0214
   11  C                                                 8  C           -1.4214   -0.7339    2.3735
   12  O                                                 5  O            1.2998    1.1552   -0.1753
   13  Ti                                               13  Ti           2.7607    7.2879   -0.3207
   14  Cl                                               14  Cl           2.1849    5.2076   -0.6007
   15  Cl                                               15  Cl           3.8199    7.5036    1.5814
   16  Cl                                               16  Cl           0.9718    8.5469   -0.3034
   17  Cl                                               17  Cl           4.0715    7.9088   -1.9584


 Interatomic Distance Matrix (Angstrom)
 --------------------------------------

   1)     0.000
   2)     2.222   0.000
   3)     1.091   1.483   0.000
   4)     2.160   2.583   1.435   0.000
   5)     3.302   2.988   2.371   1.240   0.000
   6)     3.093   1.094   2.115   2.665   2.578   0.000
   7)     2.703   2.195   2.803   4.151   4.853   3.099   0.000
   8)     2.863   1.541   2.531   3.722   4.180   2.183   1.095   0.000
   9)     3.209   2.186   2.828   3.745   4.112   2.540   1.772   1.094   0.000
  10)     3.866   2.175   3.464   4.605   4.884   2.514   1.771   1.095   1.772   0.000
  11)     2.589   1.103   2.105   3.236   3.666   1.764   2.521   2.155   3.075   2.473
          0.000
  12)     2.405   3.541   2.160   1.113   2.038   3.759   4.803   4.561   4.533   5.528
          4.112   0.000
  13)     9.558   8.616   8.570   7.502   6.306   7.657  10.421   9.439   9.030   9.681
          9.262   7.935   0.000
  14)     7.454   6.599   6.468   5.378   4.170   5.690   8.497   7.560   7.250   7.898
          7.221   5.848   2.177   0.000
  15)    10.075   9.252   9.157   8.129   7.053   8.367  10.745   9.796   9.164  10.080
         10.076   8.493   2.188   3.565   0.000
  16)    10.544   9.199   9.481   8.634   7.400   8.139  11.009   9.951   9.640   9.955
          9.720   9.271   2.188   3.565   3.571   0.000
  17)    10.800  10.127   9.878   8.653   7.515   9.232  12.041  11.119  10.773  11.453
         10.696   8.885   2.188   3.564   3.572   3.571   0.000

 Min. Distance =    1.0913
 Max. Distance =   12.0406



 =====================================
 S Y M M E T R Y ,   E L E C T R O N S
 =====================================
  
 Symmetry: NOSYM

 Irreducible Representations, including subspecies
 -------------------------------------------------
 A


 Configuration of Valence Electrons
 ==================================
 ( determined in the SCF procedure )

 Total:   65 (Spin-A)  + 64 (Spin-B)

 Net Charge: 0 (Nuclei minus Electrons)
 Spin polar: 1 (Spin_A minus Spin_B electrons)

 Aufbau principle for MO occupations will be applied through SCF cycle no.      49
 Thereafter, the program will assign electrons to MOs that are spatially
 similar to the occupied MOs in a "reference" cycle ("KeepOrbitals").
 The reference cycle is always the PREVIOUS cycle: it will evolve with
 the SCF procedure.
1
 ***************************************************************************************************



                                      ****************************************
                                      *  B U I L D : (Fragments, Functions)  *
                                      ****************************************
  



 =======
 S F O s  ***  (Symmetrized Fragment Orbitals)  ***
 =======
  
 SFOs are linear combinations of (valence) Fragment Orbitals (FOs), such that the SFOs transform as the
 irreducible representations of the (molecular) symmetry group. Each SFO is therefore characterized by
 an irrep of the molecule and by a few (or only one) generating FOs.
 The SFOs constitute a symmetry-adapted basis for the Fock matrix. The MO eigenvector coefficients in
 this basis provide a direct interpretation of the MOs in terms of Frontier Orbital Theory.

 The SFOs are combined with auxiliary Core Functions (CFs) to ensure orthogonalization on the (frozen)
 Core Orbitals (COs). The Core-orthogonalized SFOs (CSFOs) constitute the true Fock basis.

 The FOs, and hence also the (C)SFOs are combinations of the elementary basis functions (BAS). The basis
 functions that participate in the description of the SFOs depend on the irrep. The indices of the
 involved functions are printed below for each irrep.
 (The complete list of primitive basis functions is printed in another section)

 Total nr. of (C)SFOs (summation over all irreps) :   392

 NOTE: a (C)SFO that is defined as a combination of more than one FO is usually NOT normalized.



                                       === A ===
 Nr. of SFOs :  392
 Cartesian basis functions that participate in this irrep (total number =   441) :
      1     2     3     4     5     6     7     8     9    10
     11    12    13    14    15    16    17    18    19    20
     21    22    23    24    25    26    27    28    29    30
     31    32    33    34    35    36    37    38    39    40
     41    42    43    44    45    46    47    48    49    50
     51    52    53    54    55    56    57    58    59    60
     61    62    63    64    65    66    67    68    69    70
     71    72    73    74    75    76    77    78    79    80
     81    82    83    84    85    86    87    88    89    90
     93    96    91    94    97    92    95    98    99   100
    101   102   103   104   105   106   107   108   109   110
    111   112   113   114   115   116   117   118   119   120
    123   126   121   124   127   122   125   128   129   130
    131   132   133   134   135   136   137   138   139   140
    141   142   143   144   145   146   147   148   149   150
    153   156   151   154   157   152   155   158   159   160
    161   162   163   164   165   166   167   168   169   170
    171   172   173   174   175   176   177   178   179   180
    183   186   181   184   187   182   185   188   189   190
    191   192   193   194   195   196   197   198   199   200
    201   202   203   204   205   206   207   208   209   210
    213   216   211   214   217   212   215   218   219   220
    221   222   223   224   225   226   227   228   229   230
    231   232   233   234   235   236   237   238   245   246
    274   275   276   239   242   247   250   253   277   240
    243   248   251   254   278   241   244   249   252   255
    279   256   262   268   257   263   269   258   264   270
    259   265   271   260   266   272   261   267   273   280
    281   282   283   284   285   286   287   288   289   290
    291   292   293   300   301   302   294   297   303   306
    309   295   298   304   307   310   296   299   305   308
    311   312   313   314   315   316   317   318   319   320
    321   322   323   324   325   326   327   328   329   330
    331   338   339   340   332   335   341   344   347   333
    336   342   345   348   334   337   343   346   349   350
    351   352   353   354   355   356   357   358   359   360
    361   362   363   364   365   366   367   368   369   376
    377   378   370   373   379   382   385   371   374   380
    383   386   372   375   381   384   387   388   389   390
    391   392   393   394   395   396   397   398   399   400
    401   402   403   404   405   406   407   414   415   416
    408   411   417   420   423   409   412   418   421   424
    410   413   419   422   425   426   427   428   429   430
    431   432   433   434   435   436   437   438   439   440
    441

    SFO  (index         Fragment          Generating    Expansion in Fragment Orbitals
  indx  incl.CFs)   Occup   Orb.Energy   FragmentType  Coeff.   Orbital     on Fragment
 --------------------------------------------------------------------------------------
     1       1      1.000      -0.238 au  H             1.00      1 S               1
                        (      -6.484 eV)
     2       2       --         0.077 au  H             1.00      2 S               1
                        (       2.096 eV)
     3       3       --         1.521 au  H             1.00      3 S               1
                        (      41.380 eV)
     4       4       --         0.410 au  H             1.00      1 P:x             1
                        (      11.162 eV)
     5       5       --         0.410 au  H             1.00      1 P:y             1
                        (      11.162 eV)
     6       6       --         0.410 au  H             1.00      1 P:z             1
                        (      11.162 eV)
     7       7       --         2.567 au  H             1.00      1 D:z2            1
                        (      69.838 eV)
     8       8       --         2.567 au  H             1.00      1 D:x2-y2         1
                        (      69.838 eV)
     9       9       --         2.567 au  H             1.00      1 D:xy            1
                        (      69.838 eV)
    10      10       --         2.567 au  H             1.00      1 D:xz            1
                        (      69.838 eV)
    11      11       --         2.567 au  H             1.00      1 D:yz            1
                        (      69.838 eV)
    12      12      1.000      -0.238 au  H             1.00      1 S               2
                        (      -6.484 eV)
    13      13       --         0.077 au  H             1.00      2 S               2
                        (       2.096 eV)
    14      14       --         1.521 au  H             1.00      3 S               2
                        (      41.380 eV)
    15      15       --         0.410 au  H             1.00      1 P:x             2
                        (      11.162 eV)
    16      16       --         0.410 au  H             1.00      1 P:y             2
                        (      11.162 eV)
    17      17       --         0.410 au  H             1.00      1 P:z             2
                        (      11.162 eV)
    18      18       --         2.567 au  H             1.00      1 D:z2            2
                        (      69.838 eV)
    19      19       --         2.567 au  H             1.00      1 D:x2-y2         2
                        (      69.838 eV)
    20      20       --         2.567 au  H             1.00      1 D:xy            2
                        (      69.838 eV)
    21      21       --         2.567 au  H             1.00      1 D:xz            2
                        (      69.838 eV)
    22      22       --         2.567 au  H             1.00      1 D:yz            2
                        (      69.838 eV)
    23      23      1.000      -0.238 au  H             1.00      1 S               3
                        (      -6.484 eV)
    24      24       --         0.077 au  H             1.00      2 S               3
                        (       2.096 eV)
    25      25       --         1.521 au  H             1.00      3 S               3
                        (      41.380 eV)
    26      26       --         0.410 au  H             1.00      1 P:x             3
                        (      11.162 eV)
    27      27       --         0.410 au  H             1.00      1 P:y             3
                        (      11.162 eV)
    28      28       --         0.410 au  H             1.00      1 P:z             3
                        (      11.162 eV)
    29      29       --         2.567 au  H             1.00      1 D:z2            3
                        (      69.838 eV)
[...]
     7     H       0.118608   0.035302  -0.124413
     8     C      -0.043302   0.061319   0.007746
     9     H       0.085707  -0.139972   0.000761
    10     H      -0.072612  -0.112347   0.150999
    11     H      -0.266899   0.049293   0.262144
    12     H      -0.072588  -0.049758   0.038848
    13    Ti       0.000003   0.000015   0.000006
    14    Cl      -0.000004  -0.000014  -0.000002
    15    Cl      -0.000004  -0.000001  -0.000006
    16    Cl       0.000004  -0.000003  -0.000000
    17    Cl      -0.000001  -0.000001   0.000001
 
 Mode:    38      Frequency (cm-1):     1362.5920     Intensity (km/mol):        5.9208
 Index  Atom      ---- Displacements (x/y/z) ----
     1     H       0.181565   0.039007  -0.060628
     2     C       0.022166   0.001206  -0.022938
     3     C      -0.057892   0.002752   0.019745
     4     C      -0.019856   0.028405   0.003397
     5     O       0.018626  -0.060447   0.001110
     6     H      -0.065004   0.018612   0.156167
     7     H       0.161046  -0.068504  -0.439092
     8     C      -0.031054  -0.014781   0.100487
     9     H       0.263126   0.148207  -0.304008
    10     H      -0.059276   0.178892  -0.400133
    11     H       0.047248  -0.054025  -0.017771
    12     H       0.207140   0.487598  -0.151045
    13    Ti      -0.000002  -0.000002   0.000010
    14    Cl       0.000003   0.000005  -0.000003
    15    Cl      -0.000002   0.000001  -0.000005
    16    Cl       0.000001   0.000001  -0.000002
    17    Cl       0.000003   0.000002  -0.000004
 
 Mode:    39      Frequency (cm-1):     1373.4289     Intensity (km/mol):        7.5085
 Index  Atom      ---- Displacements (x/y/z) ----
     1     H      -0.039804  -0.049559   0.028068
     2     C      -0.025681   0.012337   0.010463
     3     C       0.029760  -0.030338  -0.007781
     4     C       0.052750  -0.030944  -0.016949
     5     O      -0.029217   0.084071  -0.000425
     6     H       0.015378   0.010800  -0.000386
     7     H       0.075224  -0.062731  -0.346887
     8     C      -0.014748  -0.022160   0.075607
     9     H       0.181525   0.172417  -0.247981
    10     H      -0.034090   0.148708  -0.326471
    11     H       0.029318  -0.017144  -0.033014
    12     H      -0.264840  -0.689984   0.203069
    13    Ti       0.000001   0.000043   0.000014
    14    Cl      -0.000012  -0.000044  -0.000006
    15    Cl      -0.000006  -0.000003  -0.000015
    16    Cl       0.000017  -0.000012  -0.000002
    17    Cl      -0.000003  -0.000004   0.000003
 
 Mode:    40      Frequency (cm-1):     1414.7028     Intensity (km/mol):        3.6726
 Index  Atom      ---- Displacements (x/y/z) ----
     1     H       0.558361   0.045014  -0.190906
     2     C       0.053099   0.032115  -0.076114
     3     C      -0.187717  -0.053693   0.072783
     4     C       0.108980   0.059364  -0.049985
     5     O      -0.020922  -0.003196   0.008029
     6     H      -0.038334   0.084664   0.495565
     7     H       0.027729   0.038464   0.133337
     8     C       0.002640   0.022259  -0.024478
     9     H      -0.064204  -0.131013   0.140318
    10     H       0.005620  -0.052864   0.125949
    11     H       0.158784  -0.351933   0.042137
    12     H      -0.042071  -0.296490   0.052443
    13    Ti      -0.000006  -0.000012   0.000005
    14    Cl       0.000003   0.000010   0.000000
    15    Cl       0.000002   0.000000  -0.000001
    16    Cl      -0.000000   0.000002  -0.000001
    17    Cl       0.000004   0.000002  -0.000006
 
 Mode:    41      Frequency (cm-1):     1430.4857     Intensity (km/mol):       10.3106
 Index  Atom      ---- Displacements (x/y/z) ----
     1     H       0.139676   0.001014  -0.086926
     2     C       0.074420  -0.030150   0.024072
     3     C      -0.054019  -0.020954   0.030502
     4     C       0.031430   0.034854  -0.017040
     5     O      -0.005856  -0.012000   0.004587
     6     H      -0.596461  -0.068413  -0.385001
     7     H       0.160716   0.006363   0.072795
     8     C      -0.011093   0.002080   0.002756
     9     H       0.032714  -0.137676   0.049252
    10     H       0.009934   0.073867  -0.060682
    11     H      -0.117056   0.579579  -0.165761
    12     H      -0.021609  -0.095588   0.023839
    13    Ti      -0.000010  -0.000001  -0.000015
    14    Cl       0.000002   0.000005   0.000002
    15    Cl       0.000006   0.000001   0.000013
    16    Cl       0.000006  -0.000004   0.000002
    17    Cl      -0.000001  -0.000001   0.000002
 
 Mode:    42      Frequency (cm-1):     1461.6839     Intensity (km/mol):        5.7279
 Index  Atom      ---- Displacements (x/y/z) ----
     1     H      -0.040974  -0.005200   0.019679
     2     C      -0.019249  -0.010969  -0.006833
     3     C       0.011073   0.003049  -0.005399
     4     C      -0.005255  -0.006485   0.002954
     5     O       0.000872   0.003328  -0.000802
     6     H       0.052881  -0.005061   0.068103
     7     H       0.538149  -0.043171  -0.149217
     8     C      -0.030043  -0.035449  -0.018678
     9     H      -0.335776   0.010679   0.289337
    10     H       0.268194   0.614567   0.154313
    11     H       0.020524  -0.042077  -0.032822
    12     H       0.000813   0.011077  -0.003825
    13    Ti      -0.000004   0.000004   0.000004
    14    Cl      -0.000000  -0.000004  -0.000001
    15    Cl      -0.000000  -0.000000  -0.000002
    16    Cl       0.000004  -0.000002  -0.000000
    17    Cl       0.000002   0.000001  -0.000002
 
 Mode:    43      Frequency (cm-1):     1468.1722     Intensity (km/mol):        8.3416
 Index  Atom      ---- Displacements (x/y/z) ----
     1     H       0.019549   0.004200  -0.015168
     2     C       0.039675  -0.019882  -0.006795
     3     C      -0.020215  -0.001558   0.008695
     4     C       0.007821   0.019753  -0.005435
     5     O      -0.000932  -0.011736   0.001942
     6     H      -0.135980  -0.022169   0.000417
     7     H      -0.405158  -0.057113  -0.399836
     8     C       0.037694  -0.032642   0.003987
     9     H      -0.307850   0.602927  -0.035085
    10     H       0.115707  -0.017723   0.403560
    11     H      -0.040034   0.097688   0.006722
    12     H      -0.005051  -0.012779   0.003168
    13    Ti      -0.000009  -0.000015   0.000005
    14    Cl       0.000004   0.000014   0.000001
    15    Cl       0.000003   0.000001   0.000002
    16    Cl      -0.000001   0.000002  -0.000001
    17    Cl       0.000006   0.000003  -0.000007
 
 Mode:    44      Frequency (cm-1):     1552.2453     Intensity (km/mol):       87.3709
 Index  Atom      ---- Displacements (x/y/z) ----
     1     H      -0.415543  -0.104237   0.178365
     2     C      -0.046601   0.018952   0.016164
     3     C       0.101861  -0.035852  -0.036319
     4     C      -0.017375   0.482473  -0.061249
     5     O       0.005049  -0.305869   0.041082
     6     H       0.158717   0.024415  -0.023198
     7     H       0.032134  -0.006215   0.023081
     8     C       0.001297  -0.006703   0.003830
     9     H       0.031930  -0.024183  -0.014790
    10     H      -0.006537   0.034500  -0.091687
    11     H       0.046970  -0.107607  -0.015494
    12     H      -0.394292  -0.425943   0.215400
    13    Ti      -0.000099  -0.000381  -0.000043
    14    Cl       0.000101   0.000362   0.000049
    15    Cl       0.000060   0.000024   0.000103
    16    Cl      -0.000105   0.000087   0.000001
    17    Cl       0.000079   0.000048  -0.000096
 
 Mode:    45      Frequency (cm-1):     2856.9862     Intensity (km/mol):      129.9743
 Index  Atom      ---- Displacements (x/y/z) ----
     1     H       0.016460  -0.050076   0.001357
     2     C      -0.000351  -0.000393   0.000265
     3     C      -0.002051   0.002255   0.000442
     4     C       0.071447  -0.033946  -0.023097
     5     O      -0.000241  -0.003674   0.000617
     6     H      -0.003216   0.012927  -0.000278
     7     H      -0.000017  -0.002582   0.000174
     8     C       0.000180   0.000000  -0.000095
     9     H       0.001387   0.000757   0.001256
    10     H      -0.002007   0.000857  -0.000425
    11     H      -0.000059  -0.001301  -0.001421
    12     H      -0.832982   0.479742   0.257289
    13    Ti       0.000016   0.000024   0.000001
    14    Cl      -0.000008  -0.000024  -0.000003
    15    Cl      -0.000006  -0.000001  -0.000008
    16    Cl       0.000002  -0.000003   0.000000
    17    Cl      -0.000009  -0.000004   0.000010
 
 Mode:    46      Frequency (cm-1):     2937.5967     Intensity (km/mol):        9.3412
 Index  Atom      ---- Displacements (x/y/z) ----
     1     H       0.001627  -0.013548   0.004441
     2     C      -0.054009  -0.015759  -0.049010
     3     C      -0.002232   0.000799  -0.000432
     4     C       0.000218   0.000788  -0.000795
     5     O       0.000116  -0.000272   0.000072
     6     H      -0.012131  -0.180571   0.004815
     7     H       0.002858  -0.015679   0.002837
     8     C       0.004149   0.001407   0.001379
     9     H      -0.031132  -0.018938  -0.032113
    10     H      -0.028945   0.013691   0.007525
    11     H       0.685849   0.370795   0.591466
    12     H      -0.002320   0.000544   0.001623
    13    Ti      -0.000000   0.000002  -0.000002
    14    Cl      -0.000000  -0.000001   0.000000
    15    Cl       0.000000  -0.000000   0.000001
    16    Cl       0.000001  -0.000001   0.000000
    17    Cl      -0.000001  -0.000000   0.000001
 
 Mode:    47      Frequency (cm-1):     2995.6625     Intensity (km/mol):       27.8940
 Index  Atom      ---- Displacements (x/y/z) ----
     1     H      -0.001766   0.017636  -0.002571
     2     C      -0.000033  -0.002011   0.000643
     3     C      -0.000281  -0.001298   0.000333
     4     C      -0.000092  -0.000153   0.000071
     5     O       0.000003   0.000129  -0.000019
     6     H      -0.000273   0.022487  -0.003420
     7     H      -0.006250  -0.617999   0.059917
     8     C       0.013048   0.016496  -0.043982
     9     H       0.361324   0.217378   0.348365
    10     H      -0.508459   0.204534   0.108061
    11     H       0.001907   0.000004   0.002019
    12     H       0.002917  -0.001269  -0.000833
    13    Ti      -0.000002  -0.000008  -0.000002
    14    Cl       0.000002   0.000007   0.000001
    15    Cl       0.000001   0.000001   0.000003
    16    Cl      -0.000002   0.000002  -0.000000
    17    Cl       0.000001   0.000001  -0.000001
 
 Mode:    48      Frequency (cm-1):     3054.2996     Intensity (km/mol):        2.7070
 Index  Atom      ---- Displacements (x/y/z) ----
     1     H      -0.015613   0.099965  -0.008436
     2     C       0.005365   0.071525  -0.000802
     3     C       0.001640  -0.007955   0.000933
     4     C       0.001381   0.000216  -0.000583
     5     O       0.000248  -0.000301  -0.000042
     6     H       0.012195  -0.826037   0.084498
     7     H       0.005226   0.395958  -0.043950
     8     C       0.003167  -0.046916  -0.013487
     9     H       0.173346   0.089206   0.165670
    10     H      -0.214316   0.072154   0.042514
    11     H      -0.089005  -0.033789  -0.077588
    12     H      -0.013336   0.006454   0.003939
    13    Ti       0.000001   0.000003  -0.000001
    14    Cl      -0.000001  -0.000002  -0.000000
    15    Cl      -0.000000  -0.000000  -0.000000
    16    Cl       0.000001  -0.000001   0.000000
    17    Cl      -0.000001  -0.000000   0.000001
 
 Mode:    49      Frequency (cm-1):     3074.5020     Intensity (km/mol):       19.5956
 Index  Atom      ---- Displacements (x/y/z) ----
     1     H       0.020187  -0.134980   0.012253
     2     C      -0.001173  -0.035965   0.001356
     3     C      -0.001948   0.011601  -0.001138
     4     C      -0.001413  -0.000186   0.000494
     5     O      -0.000080   0.000229   0.000006
     6     H      -0.004861   0.411470  -0.044150
     7     H       0.020706   0.551574  -0.062282
     8     C       0.055226  -0.061820  -0.002446
     9     H      -0.046843  -0.050900  -0.059291
    10     H      -0.635314   0.239360   0.146703
    11     H       0.033550   0.012990   0.030247
    12     H       0.010253  -0.004756  -0.002918
    13    Ti       0.000002  -0.000003  -0.000001
    14    Cl       0.000000   0.000002   0.000001
    15    Cl      -0.000000   0.000000   0.000000
    16    Cl      -0.000002   0.000001  -0.000000
    17    Cl      -0.000000  -0.000000   0.000001
 
 Mode:    50      Frequency (cm-1):     3077.4990     Intensity (km/mol):       18.3482
 Index  Atom      ---- Displacements (x/y/z) ----
     1     H      -0.014858   0.097102  -0.008425
     2     C       0.005547   0.026705   0.002976
     3     C       0.001294  -0.008246   0.000707
     4     C       0.000800  -0.000045  -0.000290
     5     O       0.000041  -0.000069  -0.000029
     6     H       0.002767  -0.282603   0.030636
     7     H       0.012374  -0.354137   0.047284
     8     C       0.070160   0.042469   0.032097
     9     H      -0.511680  -0.303158  -0.514743
    10     H      -0.337327   0.150127   0.086266
    11     H      -0.071294  -0.034403  -0.065608
    12     H      -0.007011   0.003256   0.002454
    13    Ti      -0.000000  -0.000002   0.000003
    14    Cl       0.000000   0.000001  -0.000000
    15    Cl      -0.000000   0.000000  -0.000001
    16    Cl      -0.000001   0.000001  -0.000000
    17    Cl       0.000001   0.000001  -0.000001
 
 Mode:    51      Frequency (cm-1):     3099.9241     Intensity (km/mol):       26.9364
 Index  Atom      ---- Displacements (x/y/z) ----
     1     H      -0.163471   0.958411  -0.080073
     2     C      -0.003915  -0.015067   0.000131
     3     C       0.013160  -0.081932   0.007021
     4     C       0.005821  -0.001852  -0.002041
     5     O      -0.000341   0.000967   0.000003
     6     H      -0.003971   0.168584  -0.016353
     7     H       0.002588   0.082400  -0.012226
     8     C       0.000212  -0.008148  -0.001132
     9     H       0.019702   0.009611   0.018855
    10     H      -0.023405   0.008522   0.003773
    11     H       0.031815   0.013530   0.025434
    12     H      -0.039750   0.017606   0.013164
    13    Ti       0.000005   0.000007  -0.000000
    14    Cl      -0.000002  -0.000007  -0.000001
    15    Cl      -0.000002  -0.000000  -0.000002
    16    Cl       0.000000  -0.000001   0.000000
    17    Cl      -0.000003  -0.000001   0.000003

PES point character: Geometry corresponds to a local minimum on the PES.
                     (Hint: Very small negative frequencies do not count towards being a
                     transition state, as they usually indicate noise on a very flat PES. See
                     the PESPointCharacter%NegativeFrequenciesTolerance keyword documentation.)




 ============================
 Statistical Thermal Analysis  ***  ideal gas assumed  ***
 ============================
  
 Pressure:                  1.000000 atm.
 Temperature:             298.150000 K



 Moments of Inertia [amu*bohr^2] and principal axis
 ==================================================

        2034.8510      13688.7553      14050.9490
 ------------------------------------------------
          -0.3506         -0.6911         -0.6320
          -0.9247          0.3623          0.1168
           0.1482          0.6254         -0.7661


 The rotational contribution to the molecular entropy includes
 a term, dependent on the symmetry number sigma. The results 
 reported below were computed using sigma = 1, determined from
 the point group symmetry of the input geometry (NOSYM). 
 If this is not the correct symmetry, try symmetrizing the molecule before
 running the calculation (note: linear molecules should be aligned along one
 of the Cartesian axes).
 Contributions from frequencies below 20 1/cm are not included in vibrational sums.
 Their contributions, if any, are reported separately.


     Temp                                                        Transl      Rotat     Vibrat     Total
     ----                                                        ------      -----     ------     -----

     298.15   Entropy (cal/mol-K):                               42.553     34.325     32.202    109.080
              Nuclear Internal Energy (kcal/mol):                 0.889      0.889     69.747     71.524
              Constant Volume Heat Capacity (cal/mol-K):          2.981      2.981     29.761     35.723
          (c) Constant Volume Heat Capacity (cal/mol-K):          2.981      2.981     32.257     38.219

 Contributions from frequencies below 20 1/cm
 Frequency (1/cm):                                    8.626     7.740     6.489     1.930    18.833
 Entropy (cal/mol-K):                                 8.305     8.520     8.870    11.280     6.754
 Nuclear Internal Energy (kcal/mol):                  0.593     0.593     0.593     0.592     0.593
 Constant Volume Heat Capacity (cal/mol-K):           1.987     1.987     1.987     1.987     1.986

       Summary of energy terms
                                                   hartree              eV         kcal/mol           kJ/mol
                                      --------------------     -----------       ----------      -----------
      Energy from Engine:               -3.155014558666137        -85.8523         -1979.80         -8283.49
      Nuclear Internal Energy:           0.113981255489003          3.1016            71.52           299.26
  (c) Nuclear Internal Energy:           0.115048526701458          3.1306            72.19           302.06
      Internal Energy U:                -3.041033303177134        -82.7507         -1908.28         -7984.23
      pV/n = RT:                         0.000944186013486          0.0257             0.59             2.48
      Enthalpy H:                       -3.040089117163648        -82.7250         -1907.68         -7981.75
      -T*S:                             -0.051827432600171         -1.4103           -32.52          -136.07
  (c) -T*S:                             -0.063885265643660         -1.7384           -40.09          -167.73
      Gibbs free energy:                -3.091916549763820        -84.1353         -1940.21         -8117.83
 
 
 
  (c) The properties marked with this symbol have been corrected using 'low vibrational frequency free rotor
      interpolation corrections'. For those terms all positive frequencies are used (also ones below 20 1/cm),
      but the contribution to the partition function of small vibrational frequencies is modified as described
      in the following paper:
      S. Grimme, 'Supramolecular Binding Thermodynamics by Dispersion-Corrected Density Functional Theory'
      (Chem. Eur. J. 2012, 18, 9955-9964)
      Configuration: Dampener Frequency          :   100.000 1/cm
                     Dampener Alpha              :     4.000
                     Averaging Moment of Inertia : 1.000E-44 kg m2

--------------
Atomic charges
--------------
  Index   Atom    Charge
      1      H   -0.2052
      2      C    0.3856
      3      C    0.2775
      4      C    0.5883
      5      O   -0.4918
      6      H   -0.1630
      7      H   -0.2095
      8      C    0.6399
      9      H   -0.1970
     10      H   -0.2031
     11      H   -0.1610
     12      H   -0.2606
     13     Ti    0.8963
     14     Cl   -0.1934
     15     Cl   -0.2342
     16     Cl   -0.2348
     17     Cl   -0.2338


Dipole moment vector    (Debye):    -1.50880606   -3.10991623    0.95817564
              magnitude (Debye):     3.58694511


Final PES point is a local minimum. Geometry optimization successful!


AMS application finished. Exiting.
NORMAL TERMINATION
     Total cpu time:   28407.29
  Total system time:     386.82
 Total elapsed time:   57877.92
 WARNING: total elapsed time is much higher than the (CPU+system) time. 
 Make sure the machine is not oversubscribed and has enough memory, SCM_TMPDIR p
 oints to a fast file system, and the network is fast enough.
