

 Parallel Execution: Process Information
 ==============================================================================
 Rank   Node Name                              NodeID   MyNodeRank  NodeMaster
    0   node115                                   0          0          0
    1   node115                                   0          1         -1
    2   node115                                   0          2         -1
    3   node115                                   0          3         -1
 ==============================================================================


May use up to 122928MB of RAM as shared memory on node 0

 *******************************************************************************
 *                                                                             *
 *  --------------------------------                                           *
 *   Amsterdam Modeling Suite (AMS)              2021.102                      *
 *  --------------------------------                                           *
 *                                               r95042 2021-06-07             *
 *                                                                             *
 *                                                                             *
 *                              =================                              *
 *                              |               |                              *
 *                              |     A M S     |                              *
 *                              |               |                              *
 *                              =================                              *
 *                                                                             *
 *                                                                             *
 *   Online information and documentation:  https://www.scm.com/support/       *
 *   E-mail:  support@scm.com   info@scm.com                                   *
 *                                                                             *
 *   Scientific publications using AMS results must be properly referenced     *
 *   See the User Manuals (or the web site) for recommended citations          *
 *   The terms and conditions of the End User License Agreement apply to       *
 *   the use of AMS, https://www.scm.com/license-terms/                        *
 *                                                                             *
 **********************  x86_64_linux_intel / intelmpi  ************************
 
 Licensed to: VU/FEW (+ SARA) / ALGEMEEN / Amsterdam / THE NETHERLANDS
 SCM User ID: u7668
  
 AMS 2021.102  RunTime: Jan22-2022 23:26:12  ShM Nodes: 1  Procs: 4

 AMS jobname: 21.achiral_catalyst.H_H_AlF3.Rsub_cat_complex
 AMS jobid  : 1841898092

 Start   directory: /scistor/tc/yhk800/MasterProject/calculations/achiral_catalyst_H_H_AlF3/21.achiral_catalyst.H_H_AlF3.Rsub_cat_complex/
 Results directory: /scistor/tc/yhk800/MasterProject/calculations/achiral_catalyst_H_H_AlF3/21.achiral_catalyst.H_H_AlF3.Rsub_cat_complex/
 Scratch directory: /scratch/3978/amstmp_21.achiral_catalyst.H_H_AlF3.Rsub_cat_complex_kid0.1841898092/


 Communication costs MPI_COMM_WORLD:      0.811 usec per message,   0.0041 usec per 8-byte item
 Communication costs for intra-node:      0.837 usec per message,   0.0034 usec per 8-byte item

 RNG seed: -1666552224 -1520887906 696373279 -1381658504 574198219 -2067956674 310950199 1204877074



                      ************************************************************************
                      *  ADF 2021.102  RunTime: Jan22-2022 23:26:12  ShM Nodes: 1  Procs: 4  *
                      ************************************************************************
  
       ***************************
       *  GEOMETRY OPTIMIZATION  *
       ***************************

Optimization Method                    Quasi Newton
Optimization Coordinates               Delocalized Coordinates
Optimize lattice                       F
 
 ------------------------------------------------------
 Convergence criteria (Hartree,Angstrom)
 ------------------------------------------------------
 Maximum gradient               0.001000000000
 Maximum rms gradient           0.000666666667
 Maximum step allowed           0.010000000000
 Maximum rms step allowed       0.006666666667
 Maximum energy change allowe   0.000120000000
 Maximum stress energy allowe   0.000500000000
 
Initial model Hessian                  Automatic Hessian
 
------------------------------------
Quasi-Newton Optimizer Parameters
------------------------------------
Hessian Update Method                  BFGS
Maximum number of steps                  250
First GDIIS cycle                          0
Maximum GDIIS vectors                      0
Trust radius (bohr)                        0.200000
Trust radius varies                        T
Constraints converged at all steps         T
Use projector                              T
 
 Rigid motions settings for: old optimizer
 Atomic rotations (x,y,z):     T T T
 Atomic translations (x,y,z):  T T T
 Tolerance:                   1.000000000000000E-006
 
--------
Geometry
--------
Formula: C3H4AlF3O
Atoms
  Index Symbol   x (angstrom)   y (angstrom)   z (angstrom)
      1      H     0.09039378    -1.80988465    -0.51555853
      2      C    -0.90781845    -0.00771283    -0.04943451
      3      C     0.18266548    -0.75219647    -0.26512258
      4      C     1.55928918    -0.22013974    -0.18291419
      5      O     1.86635738     0.93365884     0.07180470
      6      H    -0.82431619     1.04491294     0.20242594
      7      H    -1.88982657    -0.42714089    -0.11755322
      8      H     2.32514145    -0.94333367    -0.37095895
      9     Al     2.11649976     4.00970191     1.24030281
     10      F     1.16170903     3.61462365     2.48473047
     11      F     1.46817725     4.58171968    -0.12673265
     12      F     3.71961301     3.83276239     1.36291062
 
Total System Charge             0.00000
 
 
----------------
ADF Engine Input
----------------
 
 NumericalQuality VeryGood
 SCF
 Converge 1.0e-6
 Iterations 99
 End
 SYMMETRY NOSYM
 XC
 GGA OLYP
 End
 basis
 core None
 type TZ2P
 End
 

 Title: *** (NO TITLE) ***

 Using automatic Hessian for delocalized coordinates.
 *** GOStep1 ***

 Energy gradients wrt nuclear displacements
 ==========================================

     Atom      Cartesian (a.u./angstrom)
                 X         Y         Z
 ----------------------------------------
     1 H    -0.000993 -0.001089 -0.000267
     2 C    -0.013676 -0.008970 -0.001720
     3 C     0.001276  0.002258  0.000558
     4 C     0.030269 -0.030344 -0.007613
     5 O     0.001162 -0.007588 -0.003192
     6 H    -0.000340 -0.001782 -0.000367
     7 H     0.020271  0.007931  0.001175
     8 H    -0.038112  0.034181  0.009134
     9 Al   -0.001668  0.020239  0.008667
    10 F     0.025040  0.005546 -0.033663
    11 F     0.017027 -0.019458  0.032665
    12 F    -0.040256 -0.000924 -0.005378
 ----------------------------------------
 Mulliken charges used for AMS results%charges...
 
----------------------------------------------------------------------
Geometry Convergence after Step   1       (Hartree/Angstrom,Angstrom)
----------------------------------------------------------------------
current energy                               -2.44075501 Hartree
energy change                      -2.44075501     0.00012000    F
constrained gradient max            0.04024360     0.00100000    F
constrained gradient rms            0.01755236     0.00066667    F
gradient max                        0.04024360
gradient rms                        0.01755236
cart. step max                      0.02679140     0.01000000    F
cart. step rms                      0.00929120     0.00666667    F
 
 
--------
Geometry
--------
Formula: C3H4AlF3O
Atoms
  Index Symbol   x (angstrom)   y (angstrom)   z (angstrom)
      1      H     0.08837054    -1.80641703    -0.51588628
      2      C    -0.91005561    -0.00219261    -0.04554496
      3      C     0.18173510    -0.74950081    -0.26552098
      4      C     1.56379867    -0.22305154    -0.18584391
      5      O     1.86745612     0.93408033     0.07296377
      6      H    -0.82288910     1.05135840     0.20560984
      7      H    -1.90469514    -0.42317094    -0.10996076
      8      H     2.35193285    -0.96285785    -0.38186946
      9     Al     2.11358320     3.99785567     1.23518939
     10      F     1.14239519     3.61417261     2.49574456
     11      F     1.46073998     4.59118852    -0.14307587
     12      F     3.73551330     3.83550641     1.37209459
 
Total System Charge             0.00000
 
 *** GOStep2 ***

 Energy gradients wrt nuclear displacements
 ==========================================

     Atom      Cartesian (a.u./angstrom)
                 X         Y         Z
 ----------------------------------------
     1 H    -0.000298 -0.000341 -0.000111
     2 C    -0.006513 -0.001696 -0.000117
     3 C     0.001859  0.000855 -0.000076
     4 C     0.009533 -0.020257 -0.004668
     5 O     0.001395  0.003469 -0.000658
     6 H     0.000185 -0.000475 -0.000199
     7 H     0.005190  0.002170  0.000404
     8 H    -0.011517  0.010394  0.002951
     9 Al   -0.000606  0.017855  0.007314
    10 F     0.010527  0.000575 -0.014447
    11 F     0.007166 -0.009976  0.012825
    12 F    -0.016921 -0.002572 -0.003220
 ----------------------------------------
 Mulliken charges used for AMS results%charges...

 dE(predicted):    -0.22630E-02, dE(actual):    -0.31267E-02, Trust radius:    0.200000, all in a.u.
 
----------------------------------------------------------------------
Geometry Convergence after Step   2       (Hartree/Angstrom,Angstrom)
----------------------------------------------------------------------
current energy                               -2.44388172 Hartree
energy change                      -0.00312671     0.00012000    F
constrained gradient max            0.02025858     0.00100000    F
constrained gradient rms            0.00778141     0.00066667    F
gradient max                        0.02025858
gradient rms                        0.00778141
cart. step max                      0.01667195     0.01000000    F
cart. step rms                      0.00759008     0.00666667    F
 
 
--------
Geometry
--------
Formula: C3H4AlF3O
Atoms
  Index Symbol   x (angstrom)   y (angstrom)   z (angstrom)
      1      H     0.08880084    -1.80548611    -0.52010502
      2      C    -0.91083749    -0.00369122    -0.04078721
      3      C     0.18018774    -0.74982778    -0.26550258
      4      C     1.56203113    -0.22041302    -0.18797020
      5      O     1.86333071     0.93349717     0.07499623
      6      H    -0.82424526     1.04866163     0.21777392
      7      H    -1.91114970    -0.42636851    -0.10885588
      8      H     2.36385851    -0.96810990    -0.39240018
      9     Al     2.11474759     3.98118372     1.22682070
     10      F     1.12640225     3.62435036     2.50074933
     11      F     1.46459766     4.60474434    -0.15612093
     12      F     3.75016114     3.83843049     1.38530175
 
Total System Charge             0.00000
 
 *** GOStep3 ***

 Energy gradients wrt nuclear displacements
 ==========================================

     Atom      Cartesian (a.u./angstrom)
                 X         Y         Z
 ----------------------------------------
     1 H    -0.000080 -0.000086  0.000145
     2 C     0.001011  0.000397  0.000039
     3 C     0.000120  0.001118  0.000317
     4 C    -0.001032 -0.003610 -0.001137
     5 O    -0.000410 -0.002572 -0.001935
     6 H     0.000373  0.000151  0.000221
     7 H    -0.001865 -0.000786 -0.000341
     8 H     0.001678 -0.001137 -0.000018
     9 Al    0.000249  0.012854  0.005042
    10 F     0.000584 -0.001510 -0.001130
    11 F     0.000449 -0.002373 -0.000055
    12 F    -0.001078 -0.002447 -0.001146
 ----------------------------------------
 Mulliken charges used for AMS results%charges...

 dE(predicted):    -0.75367E-03, dE(actual):    -0.91570E-03, Trust radius:    0.200000, all in a.u.
 
----------------------------------------------------------------------
Geometry Convergence after Step   3       (Hartree/Angstrom,Angstrom)
----------------------------------------------------------------------
current energy                               -2.44479742 Hartree
energy change                      -0.00091570     0.00012000    F
constrained gradient max            0.01284742     0.00100000    F
constrained gradient rms            0.00261379     0.00066667    F
gradient max                        0.01284742
gradient rms                        0.00261379
cart. step max                      0.01242810     0.01000000    F
cart. step rms                      0.00574417     0.00666667    T
 
 
--------
Geometry
--------
Formula: C3H4AlF3O
Atoms
  Index Symbol   x (angstrom)   y (angstrom)   z (angstrom)
      1      H     0.09072659    -1.80606989    -0.52574157
      2      C    -0.91301645    -0.00819458    -0.03827753
      3      C     0.17914163    -0.75118640    -0.26750562
      4      C     1.55977015    -0.21834328    -0.18811454
      5      O     1.86116765     0.93454440     0.07783249
      6      H    -0.83006040     1.04536518     0.21642293
      7      H    -1.91222590    -0.43524852    -0.09825456
      8      H     2.36363393    -0.96590719    -0.40065502
      9     Al     2.11766722     3.96987698     1.22156528
     10      F     1.11949399     3.63602385     2.49887122
     11      F     1.47575396     4.61416584    -0.15997300
     12      F     3.75583274     3.84194476     1.39772984
 
Total System Charge             0.00000
 
 *** GOStep4 ***

 Energy gradients wrt nuclear displacements
 ==========================================

     Atom      Cartesian (a.u./angstrom)
                 X         Y         Z
 ----------------------------------------
     1 H    -0.000063  0.000078 -0.000341
     2 C     0.001755  0.000708  0.000071
     3 C    -0.000400  0.000162 -0.000346
     4 C    -0.003104 -0.000552  0.001582
     5 O    -0.000176 -0.003542 -0.002695
     6 H     0.000155  0.000293 -0.000331
     7 H    -0.002030 -0.001033  0.000275
     8 H     0.003584 -0.003100 -0.001089
     9 Al    0.000583  0.009028  0.003469
    10 F    -0.001773 -0.000976  0.002271
    11 F    -0.001116  0.000377 -0.002640
    12 F     0.002586 -0.001442 -0.000226
 ----------------------------------------
 Mulliken charges used for AMS results%charges...

 dE(predicted):    -0.12813E-03, dE(actual):    -0.18507E-03, Trust radius:    0.200000, all in a.u.
 
----------------------------------------------------------------------
Geometry Convergence after Step   4       (Hartree/Angstrom,Angstrom)
----------------------------------------------------------------------
current energy                               -2.44498250 Hartree
energy change                      -0.00018507     0.00012000    F
constrained gradient max            0.00902226     0.00100000    F
constrained gradient rms            0.00227135     0.00066667    F
gradient max                        0.00902226
gradient rms                        0.00227135
cart. step max                      0.03168283     0.01000000    F
cart. step rms                      0.01159904     0.00666667    F
 
 
--------
Geometry
--------
Formula: C3H4AlF3O
Atoms
  Index Symbol   x (angstrom)   y (angstrom)   z (angstrom)
      1      H     0.09452635    -1.80673050    -0.52961305
      2      C    -0.91528640    -0.01572934    -0.02731188
      3      C     0.17861137    -0.75230504    -0.26880034
      4      C     1.55679883    -0.21203436    -0.20071419
      5      O     1.85811081     0.93827435     0.07391032
      6      H    -0.83658175     1.03277262     0.24810576
      7      H    -1.91261129    -0.44271976    -0.09935070
      8      H     2.36099399    -0.95959880    -0.41167735
      9     Al     2.12056607     3.95115318     1.21093329
     10      F     1.10194257     3.65194602     2.48354768
     11      F     1.50307997     4.62835729    -0.16848247
     12      F     3.75773460     3.84358549     1.42335285
 
Total System Charge             0.00000
 
 *** GOStep5 ***

 Energy gradients wrt nuclear displacements
 ==========================================

     Atom      Cartesian (a.u./angstrom)
                 X         Y         Z
 ----------------------------------------
     1 H     0.000123 -0.000152  0.000971
     2 C     0.001120  0.000574  0.000270
     3 C    -0.000498 -0.001251  0.000492
     4 C    -0.003307  0.003571 -0.003513
     5 O    -0.000185 -0.006449 -0.001720
     6 H    -0.000091 -0.000193  0.000879
     7 H    -0.000876 -0.000095 -0.001113
     8 H     0.003311 -0.003682  0.000547
     9 Al    0.000849  0.003344  0.001366
    10 F    -0.003000  0.000738  0.004399
    11 F    -0.001859  0.003135 -0.003400
    12 F     0.004414  0.000459  0.000820
 ----------------------------------------
 Mulliken charges used for AMS results%charges...

 dE(predicted):    -0.13609E-03, dE(actual):    -0.12792E-03, Trust radius:    0.200000, all in a.u.
 
----------------------------------------------------------------------
Geometry Convergence after Step   5       (Hartree/Angstrom,Angstrom)
----------------------------------------------------------------------
current energy                               -2.44511042 Hartree
energy change                      -0.00012792     0.00012000    F
constrained gradient max            0.00645173     0.00100000    F
constrained gradient rms            0.00236185     0.00066667    F
gradient max                        0.00645173
gradient rms                        0.00236185
cart. step max                      0.01582632     0.01000000    F
cart. step rms                      0.00740806     0.00666667    F
 
 
--------
Geometry
--------
Formula: C3H4AlF3O
Atoms
  Index Symbol   x (angstrom)   y (angstrom)   z (angstrom)
      1      H     0.09619212    -1.80272546    -0.54450353
      2      C    -0.91634473    -0.01869663    -0.02320320
      3      C     0.17878306    -0.75160266    -0.27037389
      4      C     1.55642048    -0.21252381    -0.19180902
      5      O     1.85700529     0.93755636     0.08330259
      6      H    -0.84042656     1.03052651     0.24973573
      7      H    -1.91108965    -0.45019400    -0.08352438
      8      H     2.35768869    -0.95110853    -0.42683343
      9     Al     2.12149725     3.93921823     1.20457790
     10      F     1.09431807     3.66240314     2.47375138
     11      F     1.51825862     4.62812154    -0.17381484
     12      F     3.75558247     3.84599646     1.43659459
 
Total System Charge             0.00000
 
 *** GOStep6 ***

 Energy gradients wrt nuclear displacements
 ==========================================

     Atom      Cartesian (a.u./angstrom)
                 X         Y         Z
 ----------------------------------------
     1 H     0.000150  0.000213 -0.000284
     2 C    -0.000256  0.000236 -0.000403
     3 C    -0.000283 -0.000832 -0.001210
     4 C    -0.000574  0.000833  0.004310
     5 O    -0.000679 -0.007776 -0.004662
     6 H    -0.000263 -0.000063 -0.000256
     7 H     0.000670  0.000170  0.000595
     8 H     0.000745 -0.000912 -0.001379
     9 Al    0.000833  0.000752  0.000303
    10 F    -0.001964  0.002141  0.003485
    11 F    -0.001185  0.003550 -0.001556
    12 F     0.002808  0.001687  0.001056
 ----------------------------------------
 Mulliken charges used for AMS results%charges...

 dE(predicted):    -0.96642E-04, dE(actual):    -0.86432E-04, Trust radius:    0.200000, all in a.u.
 
----------------------------------------------------------------------
Geometry Convergence after Step   6       (Hartree/Angstrom,Angstrom)
----------------------------------------------------------------------
current energy                               -2.44519685 Hartree
energy change                      -0.00008643     0.00012000    T
constrained gradient max            0.00777850     0.00100000    F
constrained gradient rms            0.00210418     0.00066667    F
gradient max                        0.00777850
gradient rms                        0.00210418
cart. step max                      0.01861269     0.01000000    F
cart. step rms                      0.00727912     0.00666667    F
 
 
--------
Geometry
--------
Formula: C3H4AlF3O
Atoms
  Index Symbol   x (angstrom)   y (angstrom)   z (angstrom)
      1      H     0.09630849    -1.79953297    -0.54681664
      2      C    -0.91445887    -0.01853352    -0.01338213
      3      C     0.17995598    -0.74889480    -0.27077368
      4      C     1.55737481    -0.20862690    -0.20195498
      5      O     1.85784109     0.94060314     0.07833184
      6      H    -0.83816785     1.03254776     0.25227485
      7      H    -1.90861484    -0.45183975    -0.06491169
      8      H     2.35744113    -0.94617196    -0.43246839
      9     Al     2.11900160     3.93549537     1.20294950
     10      F     1.07856089     3.65818939     2.45848046
     11      F     1.53430601     4.62552164    -0.18049422
     12      F     3.74833667     3.83821375     1.45266500
 
Total System Charge             0.00000
 
 *** GOStep7 ***

 Energy gradients wrt nuclear displacements
 ==========================================

     Atom      Cartesian (a.u./angstrom)
                 X         Y         Z
 ----------------------------------------
     1 H     0.000082  0.000277 -0.000726
     2 C    -0.000597 -0.000441  0.000607
     3 C    -0.000128 -0.000376 -0.000106
     4 C     0.001025 -0.000977  0.000515
     5 O    -0.000729 -0.007584 -0.003439
     6 H    -0.000213  0.000117 -0.000953
     7 H     0.000942  0.000338  0.000483
     8 H    -0.000909  0.000501  0.000304
     9 Al    0.000701  0.001437  0.000655
    10 F    -0.000540  0.002402  0.001764
    11 F    -0.000328  0.002561  0.000181
    12 F     0.000693  0.001744  0.000714
 ----------------------------------------
 Mulliken charges used for AMS results%charges...

 dE(predicted):    -0.51586E-04, dE(actual):    -0.78844E-04, Trust radius:    0.200000, all in a.u.
 
----------------------------------------------------------------------
Geometry Convergence after Step   7       (Hartree/Angstrom,Angstrom)
----------------------------------------------------------------------
current energy                               -2.44527570 Hartree
energy change                      -0.00007884     0.00012000    T
constrained gradient max            0.00758628     0.00100000    F
constrained gradient rms            0.00166765     0.00066667    F
gradient max                        0.00758628
gradient rms                        0.00166765
cart. step max                      0.06064239     0.01000000    F
cart. step rms                      0.02290450     0.00666667    F
 
 
--------
Geometry
--------
Formula: C3H4AlF3O
Atoms
  Index Symbol   x (angstrom)   y (angstrom)   z (angstrom)
      1      H     0.09594435    -1.78568615    -0.56198858
      2      C    -0.90822356    -0.01362048     0.00817309
      3      C     0.18355079    -0.73747338    -0.27682065
      4      C     1.56118692    -0.19856240    -0.21841013
      5      O     1.86091312     0.94945350     0.07261370
      6      H    -0.82619608     1.02649411     0.31291724
      7      H    -1.90230540    -0.44749409    -0.03575814
      8      H     2.35806814    -0.92899380    -0.45309118
      9     Al     2.10985027     3.92320524     1.19266620
     10      F     1.02975434     3.64528898     2.40684360
     11      F     1.58076986     4.60868868    -0.20915843
     12      F     3.72457236     3.81567094     1.49591319
 
Total System Charge             0.00000
 
 *** GOStep8 ***

 Energy gradients wrt nuclear displacements
 ==========================================

     Atom      Cartesian (a.u./angstrom)
                 X         Y         Z
 ----------------------------------------
     1 H    -0.000005 -0.000332  0.000669
     2 C    -0.001369 -0.000460 -0.002652
     3 C     0.000248  0.001550  0.000974
     4 C     0.005168 -0.007520 -0.004907
     5 O    -0.000944 -0.006068 -0.001926
     6 H     0.000283 -0.000392  0.001197
     7 H     0.001076  0.000342  0.000643
     8 H    -0.005032  0.004591  0.002611
     9 Al    0.000078  0.003906  0.001931
    10 F     0.003503  0.002907 -0.002767
    11 F     0.001741 -0.000278  0.004755
    12 F    -0.004747  0.001755 -0.000528
 ----------------------------------------
 Mulliken charges used for AMS results%charges...

 dE(predicted):    -0.16704E-03, dE(actual):    -0.18769E-03, Trust radius:    0.400000, all in a.u.
 
----------------------------------------------------------------------
Geometry Convergence after Step   8       (Hartree/Angstrom,Angstrom)
----------------------------------------------------------------------
current energy                               -2.44546338 Hartree
energy change                      -0.00018769     0.00012000    F
constrained gradient max            0.00752165     0.00100000    F
constrained gradient rms            0.00296922     0.00066667    F
gradient max                        0.00752165
gradient rms                        0.00296922
cart. step max                      0.08634030     0.01000000    F
cart. step rms                      0.03769289     0.00666667    F
 
 
--------
Geometry
--------
Formula: C3H4AlF3O
Atoms
  Index Symbol   x (angstrom)   y (angstrom)   z (angstrom)
      1      H     0.09700865    -1.75938630    -0.59211632
      2      C    -0.89651467    -0.01478716     0.07024267
      3      C     0.19017718    -0.72154430    -0.27157056
      4      C     1.56568566    -0.17811154    -0.23743726
      5      O     1.86292298     0.96729255     0.07082829
      6      H    -0.81081788     1.02034732     0.39113800
      7      H    -1.89325733    -0.43943841     0.00001263
      8      H     2.35968119    -0.89278064    -0.50163093
      9     Al     2.09632705     3.89209372     1.17164364
     10      F     0.95140562     3.62420183     2.32050329
     11      F     1.65879474     4.57903941    -0.25543004
     12      F     3.68647192     3.78004468     1.56771649
 
Total System Charge             0.00000
 
 *** GOStep9 ***

 Energy gradients wrt nuclear displacements
 ==========================================

     Atom      Cartesian (a.u./angstrom)
                 X         Y         Z
 ----------------------------------------
     1 H    -0.000216 -0.000632  0.000576
     2 C    -0.000975 -0.003764  0.005157
     3 C     0.000753  0.004014  0.000800
     4 C     0.009246 -0.013609 -0.009852
     5 O    -0.001647 -0.005361 -0.001157
     6 H     0.000470  0.000487 -0.001100
     7 H     0.000533  0.001425 -0.002994
     8 H    -0.008871  0.008408  0.004952
     9 Al   -0.000953  0.005995  0.002868
    10 F     0.007860  0.003508 -0.006566
    11 F     0.003212 -0.002652  0.009411
    12 F    -0.009412  0.002180 -0.002096
 ----------------------------------------
 Mulliken charges used for AMS results%charges...

 dE(predicted):    -0.25428E-03, dE(actual):    -0.30056E-03, Trust radius:    0.800000, all in a.u.
 
----------------------------------------------------------------------
Geometry Convergence after Step   9       (Hartree/Angstrom,Angstrom)
----------------------------------------------------------------------
current energy                               -2.44576395 Hartree
energy change                      -0.00030056     0.00012000    F
constrained gradient max            0.01361326     0.00100000    F
constrained gradient rms            0.00530489     0.00066667    F
gradient max                        0.01361326
gradient rms                        0.00530489
cart. step max                      0.19471917     0.01000000    F
cart. step rms                      0.08026644     0.00666667    F
 
 
--------
Geometry
--------
Formula: C3H4AlF3O
Atoms
  Index Symbol   x (angstrom)   y (angstrom)   z (angstrom)
      1      H     0.09772809    -1.69927518    -0.65856212
      2      C    -0.87379826    -0.01291709     0.16447032
      3      C     0.20068466    -0.68284298    -0.27674556
      4      C     1.56934371    -0.12610481    -0.28235013
      5      O     1.86080943     1.01120732     0.06438463
      6      H    -0.78080676     1.00218738     0.54300754
      7      H    -1.86819154    -0.44897521     0.12641178
      8      H     2.36251059    -0.81825368    -0.58498172
      9     Al     2.07262279     3.82176039     1.12644601
     10      F     0.79377749     3.58761312     2.12578413
     11      F     1.83790790     4.52020502    -0.33772630
     12      F     3.59529699     3.70236687     1.72376133
 
Total System Charge             0.00000
 
 *** GOStep10 ***

 Energy gradients wrt nuclear displacements
 ==========================================

     Atom      Cartesian (a.u./angstrom)
                 X         Y         Z
 ----------------------------------------
     1 H    -0.000655 -0.000673 -0.000406
     2 C    -0.000654 -0.004499  0.004243
     3 C     0.002100  0.005930  0.004726
     4 C     0.013321 -0.018060 -0.018649
     5 O    -0.003571 -0.006273  0.000954
     6 H     0.000794  0.000910 -0.001252
     7 H    -0.000599  0.001119 -0.002615
     8 H    -0.012042  0.011009  0.008919
     9 Al   -0.002562  0.008412  0.003684
    10 F     0.013435  0.003828 -0.009103
    11 F     0.003110 -0.004859  0.014351
    12 F    -0.012678  0.003156 -0.004852
 ----------------------------------------
 Mulliken charges used for AMS results%charges...

 dE(predicted):    -0.64046E-03, dE(actual):    -0.98284E-03, Trust radius:    1.000000, all in a.u.
 
----------------------------------------------------------------------
Geometry Convergence after Step  10       (Hartree/Angstrom,Angstrom)
----------------------------------------------------------------------
current energy                               -2.44674678 Hartree
energy change                      -0.00098284     0.00012000    F
constrained gradient max            0.01864799     0.00100000    F
constrained gradient rms            0.00775620     0.00066667    F
gradient max                        0.01864799
gradient rms                        0.00775620
cart. step max                      0.21071080     0.01000000    F
cart. step rms                      0.08188942     0.00666667    F
 
 
--------
Geometry
--------
Formula: C3H4AlF3O
Atoms
  Index Symbol   x (angstrom)   y (angstrom)   z (angstrom)
      1      H     0.09434800    -1.62080698    -0.72603315
      2      C    -0.84718733     0.00082199     0.24641947
      3      C     0.21202204    -0.63180991    -0.28036487
      4      C     1.57137738    -0.05922209    -0.32170748
      5      O     1.85186725     1.06989546     0.06299074
      6      H    -0.74400666     0.99302582     0.68020710
      7      H    -1.83213105    -0.46316825     0.26790884
      8      H     2.37123668    -0.73452884    -0.64353874
      9     Al     2.04537898     3.73245446     1.07615678
     10      F     0.65504844     3.51876010     1.91507332
     11      F     2.00747360     4.43378821    -0.40293023
     12      F     3.48245777     3.61776119     1.85971812
 
Total System Charge             0.00000
 
 *** GOStep11 ***

 Energy gradients wrt nuclear displacements
 ==========================================

     Atom      Cartesian (a.u./angstrom)
                 X         Y         Z
 ----------------------------------------
     1 H    -0.001636  0.000111 -0.003001
     2 C    -0.000117 -0.001831 -0.002083
     3 C     0.004739  0.006538  0.012491
     4 C     0.014412 -0.018328 -0.028176
     5 O    -0.007070 -0.008529  0.003646
     6 H     0.001296  0.001179 -0.000528
     7 H    -0.003050 -0.001468  0.000711
     8 H    -0.011033  0.009553  0.012039
     9 Al   -0.005163  0.013712  0.004963
    10 F     0.017847  0.002577 -0.010023
    11 F     0.001829 -0.006794  0.016906
    12 F    -0.012055  0.003280 -0.006945
 ----------------------------------------
 Mulliken charges used for AMS results%charges...

 dE(predicted):    -0.15421E-02, dE(actual):    -0.15692E-02, Trust radius:    1.000000, all in a.u.
 
----------------------------------------------------------------------
Geometry Convergence after Step  11       (Hartree/Angstrom,Angstrom)
----------------------------------------------------------------------
current energy                               -2.44831598 Hartree
energy change                      -0.00156919     0.00012000    F
constrained gradient max            0.02817649     0.00100000    F
constrained gradient rms            0.00956252     0.00066667    F
gradient max                        0.02817649
gradient rms                        0.00956252
cart. step max                      0.16965582     0.01000000    F
cart. step rms                      0.07370581     0.00666667    F
 
 
--------
Geometry
--------
Formula: C3H4AlF3O
Atoms
  Index Symbol   x (angstrom)   y (angstrom)   z (angstrom)
      1      H     0.10086584    -1.52689743    -0.76864508
      2      C    -0.82669870     0.05274184     0.28315966
      3      C     0.22767392    -0.55900897    -0.28005089
      4      C     1.57779360     0.02802358    -0.33206132
      5      O     1.84133759     1.15233787     0.08149026
      6      H    -0.71868765     1.03181910     0.74627706
      7      H    -1.78718104    -0.45970037     0.39271207
      8      H     2.40004498    -0.64443987    -0.62917943
      9     Al     2.01219367     3.58766744     1.01862396
     10      F     0.56941338     3.34910428     1.76088171
     11      F     2.07701763     4.30390006    -0.45569969
     12      F     3.39411188     3.54142363     1.91639160
 
Total System Charge             0.00000
 
 *** GOStep12 ***

 Energy gradients wrt nuclear displacements
 ==========================================

     Atom      Cartesian (a.u./angstrom)
                 X         Y         Z
 ----------------------------------------
     1 H    -0.003534  0.001767 -0.006998
     2 C     0.000065  0.005182 -0.015268
     3 C     0.008091  0.005007  0.022999
     4 C     0.009201 -0.011807 -0.035198
     5 O    -0.011928 -0.013967  0.005966
     6 H     0.002184  0.001348  0.001121
     7 H    -0.006057 -0.007208  0.008355
     8 H    -0.003137  0.002864  0.012785
     9 Al   -0.009686  0.022472  0.006897
    10 F     0.019336 -0.000794 -0.010893
    11 F     0.001388 -0.007642  0.015173
    12 F    -0.005923  0.002779 -0.004940
 ----------------------------------------
 Mulliken charges used for AMS results%charges...
 Rebuilding optimization coordinates

 dE(predicted):    -0.22173E-02, dE(actual):    -0.25384E-02, Trust radius:    1.000000, all in a.u.
 
----------------------------------------------------------------------
Geometry Convergence after Step  12       (Hartree/Angstrom,Angstrom)
----------------------------------------------------------------------
current energy                               -2.45085439 Hartree
energy change                      -0.00253841     0.00012000    F
constrained gradient max            0.03520295     0.00100000    F
constrained gradient rms            0.01133458     0.00066667    F
gradient max                        0.03520295
gradient rms                        0.01133458
cart. step max                      0.19184414     0.01000000    F
cart. step rms                      0.07019062     0.00666667    F
 
 
--------
Geometry
--------
Formula: C3H4AlF3O
Atoms
  Index Symbol   x (angstrom)   y (angstrom)   z (angstrom)
      1      H     0.11842417    -1.43477819    -0.79519318
      2      C    -0.81184289     0.10999950     0.30637923
      3      C     0.24560062    -0.48353184    -0.27446842
      4      C     1.58642833     0.11750948    -0.32294040
      5      O     1.82766152     1.24032902     0.11419334
      6      H    -0.70428381     1.07854586     0.79232231
      7      H    -1.74688981    -0.44143377     0.47543680
      8      H     2.43011867    -0.54988677    -0.59519501
      9     Al     1.98268717     3.42094020     0.95790163
     10      F     0.51693959     3.15726014     1.64631962
     11      F     2.09974378     4.16530978    -0.50178617
     12      F     3.32329777     3.47670776     1.93093016
 
Total System Charge             0.00000
 
 *** GOStep13 ***

 Energy gradients wrt nuclear displacements
 ==========================================

     Atom      Cartesian (a.u./angstrom)
                 X         Y         Z
 ----------------------------------------
     1 H    -0.005177  0.003283 -0.009842
     2 C    -0.000762  0.010460 -0.026544
     3 C     0.009857  0.003839  0.031373
     4 C     0.006370 -0.006354 -0.040143
     5 O    -0.019252 -0.017495  0.008133
     6 H     0.002933  0.001242  0.002779
     7 H    -0.007592 -0.011380  0.014885
     8 H     0.003288 -0.003213  0.012811
     9 Al   -0.015704  0.033086  0.009498
    10 F     0.025333 -0.006830 -0.016465
    11 F     0.001557 -0.010115  0.015975
    12 F    -0.000852  0.003478 -0.002459
 ----------------------------------------
 Mulliken charges used for AMS results%charges...

 dE(predicted):    -0.27548E-02, dE(actual):    -0.31554E-02, Trust radius:    1.000000, all in a.u.
 
----------------------------------------------------------------------
Geometry Convergence after Step  13       (Hartree/Angstrom,Angstrom)
----------------------------------------------------------------------
current energy                               -2.45400979 Hartree
energy change                      -0.00315540     0.00012000    F
constrained gradient max            0.04014993     0.00100000    F
constrained gradient rms            0.01477808     0.00066667    F
gradient max                        0.04014993
gradient rms                        0.01477808
cart. step max                      0.17091491     0.01000000    F
cart. step rms                      0.06772697     0.00666667    F
 
 
--------
Geometry
--------
Formula: C3H4AlF3O
Atoms
  Index Symbol   x (angstrom)   y (angstrom)   z (angstrom)
      1      H     0.13948019    -1.34415546    -0.82619608
      2      C    -0.80113590     0.14936143     0.33689782
      3      C     0.26184330    -0.41344085    -0.26802253
      4      C     1.58808912     0.21046845    -0.31679371
      5      O     1.79873939     1.33177062     0.14770904
      6      H    -0.70095488     1.10802021     0.84441383
      7      H    -1.70372814    -0.44420861     0.55556329
      8      H     2.45277870    -0.44365375    -0.56653868
      9     Al     1.96461212     3.25002529     0.89273742
     10      F     0.47236269     3.00986288     1.52671354
     11      F     2.15113301     4.03332008    -0.53914140
     12      F     3.24466552     3.40960088     1.94655737
 
Total System Charge             0.00000
 
 *** GOStep14 ***

 Energy gradients wrt nuclear displacements
 ==========================================

     Atom      Cartesian (a.u./angstrom)
                 X         Y         Z
 ----------------------------------------
     1 H    -0.006919  0.005171 -0.012630
     2 C    -0.002045  0.013935 -0.036494
     3 C     0.010134  0.003022  0.040973
     4 C     0.006716 -0.000752 -0.046806
     5 O    -0.029687 -0.007811  0.016147
     6 H     0.003499  0.000870  0.004053
     7 H    -0.007624 -0.014386  0.020540
     8 H     0.006726 -0.007245  0.014035
     9 Al   -0.022557  0.032770  0.007268
    10 F     0.039537 -0.016655 -0.027384
    11 F     0.000926 -0.015036  0.021639
    12 F     0.001292  0.006119 -0.001342
 ----------------------------------------
 Mulliken charges used for AMS results%charges...
 Rebuilding optimization coordinates
Bad geometry: added dihedral     8    4    9   10
Bad geometry: added dihedral    11    9    4    3
Bad geometry: added dihedral    12    9    4    3

 dE(predicted):    -0.23955E-02, dE(actual):    -0.16273E-02, Trust radius:    1.000000, all in a.u.
 
----------------------------------------------------------------------
Geometry Convergence after Step  14       (Hartree/Angstrom,Angstrom)
----------------------------------------------------------------------
current energy                               -2.45563705 Hartree
energy change                      -0.00162726     0.00012000    F
constrained gradient max            0.04681032     0.00100000    F
constrained gradient rms            0.01897923     0.00066667    F
gradient max                        0.04681032
gradient rms                        0.01897923
cart. step max                      0.21225800     0.01000000    F
cart. step rms                      0.07270169     0.00666667    F
 
 
--------
Geometry
--------
Formula: C3H4AlF3O
Atoms
  Index Symbol   x (angstrom)   y (angstrom)   z (angstrom)
      1      H     0.19269597    -1.37154506    -0.78877926
      2      C    -0.83454685     0.15377681     0.26055429
      3      C     0.26837976    -0.41894051    -0.26153497
      4      C     1.58815425     0.21475780    -0.26451116
      5      O     1.79086857     1.34332399     0.18769635
      6      H    -0.78149947     1.13823686     0.72277425
      7      H    -1.74451133    -0.43713747     0.44851345
      8      H     2.46176957    -0.44385547    -0.47279992
      9     Al     1.99272997     3.17817318     0.88456376
     10      F     0.58587221     3.00372241     1.73897154
     11      F     1.98148721     4.04738393    -0.52698506
     12      F     3.36648524     3.44907468     1.80543663
 
Total System Charge             0.00000
 
 *** GOStep15 ***

 Energy gradients wrt nuclear displacements
 ==========================================

     Atom      Cartesian (a.u./angstrom)
                 X         Y         Z
 ----------------------------------------
     1 H    -0.005424  0.004782 -0.013225
     2 C    -0.001414  0.011301 -0.033667
     3 C     0.008361 -0.000915  0.038598
     4 C     0.003650  0.007295 -0.042052
     5 O    -0.023488 -0.007561  0.016973
     6 H     0.001808  0.000216  0.002145
     7 H    -0.008414 -0.012454  0.019842
     8 H     0.007338 -0.008763  0.013214
     9 Al   -0.013766  0.006620  0.000540
    10 F     0.023781 -0.009515 -0.019534
    11 F     0.003619 -0.003645  0.013156
    12 F     0.003949  0.012639  0.004011
 ----------------------------------------
 Mulliken charges used for AMS results%charges...

 dE(predicted):    -0.11263E-01, dE(actual):    -0.39143E-02, Trust radius:    1.000000, all in a.u.
 
----------------------------------------------------------------------
Geometry Convergence after Step  15       (Hartree/Angstrom,Angstrom)
----------------------------------------------------------------------
current energy                               -2.45955136 Hartree
energy change                      -0.00391431     0.00012000    F
constrained gradient max            0.04206041     0.00100000    F
constrained gradient rms            0.01525495     0.00066667    F
gradient max                        0.04206041
gradient rms                        0.01525495
cart. step max                      0.21626088     0.01000000    F
cart. step rms                      0.07649536     0.00666667    F
 
 
--------
Geometry
--------
Formula: C3H4AlF3O
Atoms
  Index Symbol   x (angstrom)   y (angstrom)   z (angstrom)
      1      H     0.22459518    -1.39932148    -0.74139811
      2      C    -0.85116965     0.17987996     0.17775806
      3      C     0.27422144    -0.42313497    -0.25691518
      4      C     1.59613747     0.20020048    -0.20816728
      5      O     1.80019934     1.33612072     0.22452107
      6      H    -0.81699055     1.18325793     0.59920915
      7      H    -1.78041343    -0.39083681     0.32733923
      8      H     2.47325459    -0.46968442    -0.37512711
      9     Al     1.99959300     3.15363300     0.89609396
     10      F     0.71876514     2.95029763     1.93983182
     11      F     1.76522633     4.04134895    -0.49478349
     12      F     3.46446624     3.49521018     1.64553780
 
Total System Charge             0.00000
 
 *** GOStep16 ***

 Energy gradients wrt nuclear displacements
 ==========================================

     Atom      Cartesian (a.u./angstrom)
                 X         Y         Z
 ----------------------------------------
     1 H    -0.003873  0.003645 -0.012584
     2 C     0.000264  0.010500 -0.031467
     3 C     0.007242 -0.002787  0.034293
     4 C    -0.001010  0.010581 -0.036392
     5 O    -0.018682 -0.007294  0.017192
     6 H     0.001378  0.000638  0.001826
     7 H    -0.009867 -0.011196  0.018679
     8 H     0.009279 -0.009824  0.011735
     9 Al   -0.009232 -0.003740 -0.002663
    10 F     0.014270 -0.006252 -0.013734
    11 F     0.003889  0.001688  0.006796
    12 F     0.006342  0.014041  0.006319
 ----------------------------------------
 Mulliken charges used for AMS results%charges...

 dE(predicted):    -0.34785E-02, dE(actual):    -0.16589E-02, Trust radius:    1.000000, all in a.u.
 
----------------------------------------------------------------------
Geometry Convergence after Step  16       (Hartree/Angstrom,Angstrom)
----------------------------------------------------------------------
current energy                               -2.46121031 Hartree
energy change                      -0.00165895     0.00012000    F
constrained gradient max            0.03639686     0.00100000    F
constrained gradient rms            0.01336993     0.00066667    F
gradient max                        0.03639686
gradient rms                        0.01336993
cart. step max                      0.22009647     0.01000000    F
cart. step rms                      0.06616193     0.00666667    F
 
 
--------
Geometry
--------
Formula: C3H4AlF3O
Atoms
  Index Symbol   x (angstrom)   y (angstrom)   z (angstrom)
      1      H     0.23671634    -1.43188970    -0.72973620
      2      C    -0.81880538     0.14927552     0.22876077
      3      C     0.28350932    -0.45038321    -0.25912031
      4      C     1.60550274     0.14073591    -0.15037089
      5      O     1.80925496     1.29087745     0.24415849
      6      H    -0.76036969     1.13037140     0.69771762
      7      H    -1.80406057    -0.28778469     0.10724276
      8      H     2.45642777    -0.46787340    -0.42962346
      9     Al     1.97680540     3.24710254     0.92620998
     10      F     0.73777289     3.09824640     2.03604403
     11      F     1.66090051     4.00438492    -0.51875187
     12      F     3.48423080     3.43390804     1.58136899
 
Total System Charge             0.00000
 
 *** GOStep17 ***

 Energy gradients wrt nuclear displacements
 ==========================================

     Atom      Cartesian (a.u./angstrom)
                 X         Y         Z
 ----------------------------------------
     1 H     0.001416 -0.000779 -0.000608
     2 C    -0.001607 -0.009334  0.010831
     3 C     0.010484  0.010234 -0.001118
     4 C     0.015471 -0.030725 -0.013734
     5 O    -0.015152 -0.016263 -0.004170
     6 H     0.000020  0.004061 -0.002560
     7 H     0.000794  0.004862 -0.003734
     8 H    -0.020409  0.016072  0.008442
     9 Al    0.013586  0.027656  0.005950
    10 F     0.005401 -0.004384 -0.002832
    11 F     0.001339 -0.003793  0.004727
    12 F    -0.011344  0.002395 -0.001194
 ----------------------------------------
 Mulliken charges used for AMS results%charges...

 dE(predicted):    -0.18290E-01, dE(actual):    -0.41527E-02, Trust radius:    1.000000, all in a.u.
 
----------------------------------------------------------------------
Geometry Convergence after Step  17       (Hartree/Angstrom,Angstrom)
----------------------------------------------------------------------
current energy                               -2.46536298 Hartree
energy change                      -0.00415267     0.00012000    F
constrained gradient max            0.03072883     0.00100000    F
constrained gradient rms            0.01097001     0.00066667    F
gradient max                        0.03072883
gradient rms                        0.01097001
cart. step max                      0.20941099     0.01000000    F
cart. step rms                      0.08222237     0.00666667    F
 
 
--------
Geometry
--------
Formula: C3H4AlF3O
Atoms
  Index Symbol   x (angstrom)   y (angstrom)   z (angstrom)
      1      H     0.30698716    -1.33016498    -0.76514655
      2      C    -0.80123645     0.19615675     0.23522787
      3      C     0.31872647    -0.38211194    -0.23397417
      4      C     1.61444361     0.22543661    -0.06208629
      5      O     1.79984712     1.38737916     0.32200406
      6      H    -0.77282886     1.16910726     0.71997836
      7      H    -1.76475354    -0.22282516     0.03803225
      8      H     2.46734231    -0.34160239    -0.34689154
      9     Al     1.93971595     3.04313860     0.86171931
     10      F     0.77308600     3.01247480     2.07177175
     11      F     1.53217759     3.79497393    -0.56916201
     12      F     3.45437774     3.30500852     1.46242686
 
Total System Charge             0.00000
 
 *** GOStep18 ***

 Energy gradients wrt nuclear displacements
 ==========================================

     Atom      Cartesian (a.u./angstrom)
                 X         Y         Z
 ----------------------------------------
     1 H     0.002031  0.003293 -0.002983
     2 C    -0.009528 -0.020175  0.013457
     3 C     0.005569  0.003465 -0.004493
     4 C     0.025201 -0.038239 -0.002356
     5 O    -0.002640  0.081611  0.020270
     6 H    -0.001607  0.003650 -0.007113
     7 H     0.020535  0.014323 -0.002166
     8 H    -0.041394  0.028495  0.010137
     9 Al    0.015113 -0.056521 -0.026218
    10 F     0.008921 -0.005600 -0.004790
    11 F     0.002644 -0.011439  0.010587
    12 F    -0.024844 -0.002862 -0.004334
 ----------------------------------------
 Mulliken charges used for AMS results%charges...

 dE(predicted):    -0.85428E-02, dE(actual):     0.52509E-02, Trust radius:    0.166615, all in a.u.
 
----------------------------------------------------------------------
Geometry Convergence after Step  18       (Hartree/Angstrom,Angstrom)
----------------------------------------------------------------------
current energy                               -2.46011204 Hartree
energy change                       0.00525094     0.00012000    F
constrained gradient max            0.08160491     0.00100000    F
constrained gradient rms            0.02261495     0.00066667    F
gradient max                        0.08160491
gradient rms                        0.02261495
cart. step max                      0.07015241     0.01000000    F
cart. step rms                      0.02417423     0.00666667    F
 
 
--------
Geometry
--------
Formula: C3H4AlF3O
Atoms
  Index Symbol   x (angstrom)   y (angstrom)   z (angstrom)
      1      H     0.28615491    -1.35647908    -0.75576077
      2      C    -0.81549036     0.18396411     0.22180324
      3      C     0.30712335    -0.39947974    -0.23932864
      4      C     1.61678818     0.20160753    -0.07912907
      5      O     1.80986091     1.36036832     0.30360106
      6      H    -0.78669991     1.15649497     0.70724007
      7      H    -1.78725570    -0.25039917     0.04026542
      8      H     2.48120932    -0.39005331    -0.35478195
      9     Al     1.95254984     3.08775386     0.87889547
     10      F     0.77861836     3.05090647     2.08010666
     11      F     1.54561339     3.86512634    -0.54128379
     12      F     3.47941283     3.34716086     1.47227221
 
Total System Charge             0.00000
 
 *** GOStep19 ***

 Energy gradients wrt nuclear displacements
 ==========================================

     Atom      Cartesian (a.u./angstrom)
                 X         Y         Z
 ----------------------------------------
     1 H     0.001119  0.002152 -0.002686
     2 C    -0.004011 -0.012251  0.012849
     3 C     0.003690  0.003066 -0.002497
     4 C     0.014414 -0.023279 -0.000727
     5 O    -0.007072  0.035976  0.007612
     6 H    -0.000778  0.002840 -0.005453
     7 H     0.007045  0.007722 -0.003540
     8 H    -0.019155  0.014909  0.004718
     9 Al    0.012166 -0.024309 -0.013451
    10 F     0.005820 -0.002589 -0.002463
    11 F     0.001266 -0.005556  0.006543
    12 F    -0.014506  0.001320 -0.000905
 ----------------------------------------
 Mulliken charges used for AMS results%charges...

 dE(predicted):    -0.69752E-02, dE(actual):    -0.61524E-02, Trust radius:    0.333229, all in a.u.
 
----------------------------------------------------------------------
Geometry Convergence after Step  19       (Hartree/Angstrom,Angstrom)
----------------------------------------------------------------------
current energy                               -2.46626444 Hartree
energy change                      -0.00615240     0.00012000    F
constrained gradient max            0.03596902     0.00100000    F
constrained gradient rms            0.01124523     0.00066667    F
gradient max                        0.03596902
gradient rms                        0.01124523
cart. step max                      0.11513624     0.01000000    F
cart. step rms                      0.04602256     0.00666667    F
 
 
--------
Geometry
--------
Formula: C3H4AlF3O
Atoms
  Index Symbol   x (angstrom)   y (angstrom)   z (angstrom)
      1      H     0.27746997    -1.41072576    -0.65469001
      2      C    -0.83094470     0.21760072     0.14120965
      3      C     0.29861515    -0.39900691    -0.25428388
      4      C     1.62133942     0.19663351    -0.09985313
      5      O     1.84735741     1.34826360     0.27471521
      6      H    -0.80920063     1.20636707     0.59210383
      7      H    -1.79787298    -0.27336318     0.05066384
      8      H     2.49417543    -0.44631289    -0.31962341
      9     Al     1.95715827     3.11354046     0.90982958
     10      F     0.82513084     3.00239864     2.14520209
     11      F     1.46212104     3.91637395    -0.47343253
     12      F     3.52253589     3.38520195     1.42205868
 
Total System Charge             0.00000
 
 *** GOStep20 ***

 Energy gradients wrt nuclear displacements
 ==========================================

     Atom      Cartesian (a.u./angstrom)
                 X         Y         Z
 ----------------------------------------
     1 H    -0.000342 -0.001001  0.001664
     2 C     0.001288  0.000283 -0.001740
     3 C    -0.001743 -0.000205 -0.003024
     4 C    -0.001661  0.002237 -0.001917
     5 O    -0.005327  0.011154  0.004445
     6 H     0.000581 -0.000552  0.001090
     7 H    -0.001824 -0.000961  0.000697
     8 H     0.002833  0.000519  0.002193
     9 Al    0.005974 -0.010961 -0.004983
    10 F     0.002382 -0.001524 -0.001509
    11 F    -0.000460 -0.002109  0.000973
    12 F    -0.001700  0.003119  0.002111
 ----------------------------------------
 Mulliken charges used for AMS results%charges...

 dE(predicted):    -0.21865E-02, dE(actual):    -0.23563E-02, Trust radius:    0.666459, all in a.u.
 
----------------------------------------------------------------------
Geometry Convergence after Step  20       (Hartree/Angstrom,Angstrom)
----------------------------------------------------------------------
current energy                               -2.46862079 Hartree
energy change                      -0.00235634     0.00012000    F
constrained gradient max            0.01115108     0.00100000    F
constrained gradient rms            0.00348867     0.00066667    F
gradient max                        0.01115108
gradient rms                        0.00348867
cart. step max                      0.08808542     0.01000000    F
cart. step rms                      0.03544401     0.00666667    F
 
 
--------
Geometry
--------
Formula: C3H4AlF3O
Atoms
  Index Symbol   x (angstrom)   y (angstrom)   z (angstrom)
      1      H     0.25951353    -1.40765303    -0.66856437
      2      C    -0.81245128     0.21510677     0.18627774
      3      C     0.30247437    -0.41140978    -0.23270405
      4      C     1.63216556     0.17853222    -0.12257826
      5      O     1.87137962     1.32718598     0.24994113
      6      H    -0.77414230     1.20009803     0.64406307
      7      H    -1.78556782    -0.25748236     0.08660919
      8      H     2.48823872    -0.45970379    -0.40161569
      9     Al     1.93894517     3.13776702     0.91403035
     10      F     0.73704542     3.03322695     2.07848757
     11      F     1.52602929     3.93700670    -0.49606036
     12      F     3.48425482     3.36429644     1.49601359
 
Total System Charge             0.00000
 
 *** GOStep21 ***

 Energy gradients wrt nuclear displacements
 ==========================================

     Atom      Cartesian (a.u./angstrom)
                 X         Y         Z
 ----------------------------------------
     1 H    -0.000297  0.000093 -0.000514
     2 C     0.000441 -0.000423  0.000272
     3 C    -0.000562 -0.000697  0.000465
     4 C     0.003379 -0.000597 -0.000086
     5 O    -0.009081 -0.002071 -0.002257
     6 H     0.000365  0.000027 -0.000089
     7 H     0.000375  0.000227 -0.000664
     8 H    -0.000524  0.001561  0.001199
     9 Al    0.006026  0.002379  0.002594
    10 F     0.002447 -0.001043 -0.002018
    11 F    -0.000456 -0.001614  0.000509
    12 F    -0.002115  0.002159  0.000590
 ----------------------------------------
 Mulliken charges used for AMS results%charges...

 dE(predicted):    -0.63084E-03, dE(actual):    -0.75159E-03, Trust radius:    0.666459, all in a.u.
 
----------------------------------------------------------------------
Geometry Convergence after Step  21       (Hartree/Angstrom,Angstrom)
----------------------------------------------------------------------
current energy                               -2.46937238 Hartree
energy change                      -0.00075159     0.00012000    F
constrained gradient max            0.00907973     0.00100000    F
constrained gradient rms            0.00225322     0.00066667    F
gradient max                        0.00907973
gradient rms                        0.00225322
cart. step max                      0.13585450     0.01000000    F
cart. step rms                      0.05849195     0.00666667    F
 
 
--------
Geometry
--------
Formula: C3H4AlF3O
Atoms
  Index Symbol   x (angstrom)   y (angstrom)   z (angstrom)
      1      H     0.23963583    -1.39868228    -0.66597824
      2      C    -0.78763656     0.21708701     0.25110353
      3      C     0.30571739    -0.40378409    -0.22978949
      4      C     1.64360008     0.17849860    -0.17992199
      5      O     1.91023766     1.31627064     0.20655855
      6      H    -0.73032872     1.20060922     0.70971354
      7      H    -1.76276133    -0.25822378     0.19535018
      8      H     2.47783267    -0.46419433    -0.50652877
      9     Al     1.91310289     3.14027978     0.90640768
     10      F     0.60270169     3.04468704     1.94263307
     11      F     1.65327592     3.96373869    -0.52397442
     12      F     3.40250759     3.32068467     1.62832627
 
Total System Charge             0.00000
 
 *** GOStep22 ***

 Energy gradients wrt nuclear displacements
 ==========================================

     Atom      Cartesian (a.u./angstrom)
                 X         Y         Z
 ----------------------------------------
     1 H    -0.000253 -0.000002  0.000127
     2 C    -0.000443 -0.000986  0.001648
     3 C    -0.000719  0.000598  0.000369
     4 C     0.008584 -0.000173 -0.004024
     5 O    -0.011701 -0.008002 -0.002808
     6 H     0.000404  0.000105 -0.000571
     7 H     0.000549  0.000473 -0.000873
     8 H    -0.001865  0.001079  0.002479
     9 Al    0.003038  0.006957  0.007804
    10 F     0.004903 -0.000608 -0.004127
    11 F     0.000148 -0.001392  0.001052
    12 F    -0.002646  0.001950 -0.001075
 ----------------------------------------
 Mulliken charges used for AMS results%charges...

 dE(predicted):    -0.28198E-03, dE(actual):    -0.48642E-03, Trust radius:    0.666459, all in a.u.
 
----------------------------------------------------------------------
Geometry Convergence after Step  22       (Hartree/Angstrom,Angstrom)
----------------------------------------------------------------------
current energy                               -2.46985880 Hartree
energy change                      -0.00048642     0.00012000    F
constrained gradient max            0.01170042     0.00100000    F
constrained gradient rms            0.00369421     0.00066667    F
gradient max                        0.01170042
gradient rms                        0.00369421
cart. step max                      0.20183496     0.01000000    F
cart. step rms                      0.08311151     0.00666667    F
 
 
--------
Geometry
--------
Formula: C3H4AlF3O
Atoms
  Index Symbol   x (angstrom)   y (angstrom)   z (angstrom)
      1      H     0.20899552    -1.37164501    -0.65115850
      2      C    -0.73665001     0.24916967     0.33740720
      3      C     0.31866707    -0.38174670    -0.21253155
      4      C     1.66904049     0.17494712    -0.25338054
      5      O     2.00844205     1.28892693     0.14634116
      6      H    -0.64527931     1.23019093     0.79515454
      7      H    -1.71515066    -0.22165658     0.34339241
      8      H     2.45656542    -0.48641354    -0.64919723
      9     Al     1.85344535     3.12392764     0.88891319
     10      F     0.42041913     3.01655920     1.74079811
     11      F     1.78424672     3.98371600    -0.54164838
     12      F     3.24514334     3.25099551     1.78980951
 
Total System Charge             0.00000
 
 *** GOStep23 ***

 Energy gradients wrt nuclear displacements
 ==========================================

     Atom      Cartesian (a.u./angstrom)
                 X         Y         Z
 ----------------------------------------
     1 H    -0.000491  0.000376  0.000218
     2 C    -0.001716  0.000153  0.001439
     3 C    -0.000248 -0.000919  0.002092
     4 C     0.011866  0.004408 -0.008999
     5 O    -0.010558 -0.016448 -0.003226
     6 H     0.000758  0.000243 -0.000417
     7 H     0.001191  0.000794 -0.000366
     8 H    -0.002378  0.000279  0.004182
     9 Al   -0.004220  0.011709  0.014380
    10 F     0.007647 -0.000713 -0.005650
    11 F     0.000910 -0.000467 -0.000080
    12 F    -0.002761  0.000584 -0.003572
 ----------------------------------------
 Mulliken charges used for AMS results%charges...

 dE(predicted):    -0.11231E-02, dE(actual):    -0.73797E-03, Trust radius:    0.666459, all in a.u.
 
----------------------------------------------------------------------
Geometry Convergence after Step  23       (Hartree/Angstrom,Angstrom)
----------------------------------------------------------------------
current energy                               -2.47059677 Hartree
energy change                      -0.00073797     0.00012000    F
constrained gradient max            0.01645638     0.00100000    F
constrained gradient rms            0.00563956     0.00066667    F
gradient max                        0.01645638
gradient rms                        0.00563956
cart. step max                      0.07503633     0.01000000    F
cart. step rms                      0.03037355     0.00666667    F
 
 
--------
Geometry
--------
Formula: C3H4AlF3O
Atoms
  Index Symbol   x (angstrom)   y (angstrom)   z (angstrom)
      1      H     0.20755889    -1.34914986    -0.63113593
      2      C    -0.72090945     0.27410545     0.36248851
      3      C     0.32837047    -0.35807473    -0.19833171
      4      C     1.68584819     0.17689489    -0.27034835
      5      O     2.08347838     1.27679803     0.12451628
      6      H    -0.63097492     1.25738697     0.81457273
      7      H    -1.69617391    -0.20306542     0.38588784
      8      H     2.44175926    -0.50111605    -0.69679047
      9     Al     1.82547352     3.09774362     0.87577379
     10      F     0.36228359     2.98509160     1.67939995
     11      F     1.79822933     3.98425974    -0.54096816
     12      F     3.18294175     3.21609693     1.82883543
 
Total System Charge             0.00000
 
 *** GOStep24 ***

 Energy gradients wrt nuclear displacements
 ==========================================

     Atom      Cartesian (a.u./angstrom)
                 X         Y         Z
 ----------------------------------------
     1 H    -0.000443  0.000671  0.000360
     2 C    -0.002218  0.000317  0.000912
     3 C    -0.000507 -0.001508  0.001860
     4 C     0.008666  0.002854 -0.008792
     5 O    -0.002434 -0.014177 -0.002352
     6 H     0.000572  0.000122 -0.000473
     7 H     0.001277  0.000891  0.000253
     8 H    -0.002478  0.000690  0.003959
     9 Al   -0.007306  0.010251  0.013622
    10 F     0.006090 -0.000346 -0.004319
    11 F     0.001336  0.000744 -0.000689
    12 F    -0.002554 -0.000509 -0.004342
 ----------------------------------------
 Mulliken charges used for AMS results%charges...

 dE(predicted):    -0.34252E-03, dE(actual):    -0.39382E-03, Trust radius:    0.666459, all in a.u.
 
----------------------------------------------------------------------
Geometry Convergence after Step  24       (Hartree/Angstrom,Angstrom)
----------------------------------------------------------------------
current energy                               -2.47099059 Hartree
energy change                      -0.00039382     0.00012000    F
constrained gradient max            0.01418042     0.00100000    F
constrained gradient rms            0.00482839     0.00066667    F
gradient max                        0.01418042
gradient rms                        0.00482839
cart. step max                      0.08558113     0.01000000    F
cart. step rms                      0.03359858     0.00666667    F
 
 
--------
Geometry
--------
Formula: C3H4AlF3O
Atoms
  Index Symbol   x (angstrom)   y (angstrom)   z (angstrom)
      1      H     0.23017025    -1.34595870    -0.61874863
      2      C    -0.74704190     0.27349415     0.32776570
      3      C     0.32800746    -0.34873852    -0.19388276
      4      C     1.68555258     0.18276507    -0.23777645
      5      O     2.09329829     1.29084874     0.13514884
      6      H    -0.68849449     1.26063753     0.77616370
      7      H    -1.71624799    -0.21844556     0.32401299
      8      H     2.44437226    -0.50086439    -0.65012811
      9     Al     1.84444339     3.07887137     0.87534447
     10      F     0.42329607     2.98250467     1.76498107
     11      F     1.72679978     3.96995439    -0.53488119
     12      F     3.24372941     3.23190242     1.76590026
 
Total System Charge             0.00000
 
 *** GOStep25 ***

 Energy gradients wrt nuclear displacements
 ==========================================

     Atom      Cartesian (a.u./angstrom)
                 X         Y         Z
 ----------------------------------------
     1 H     0.000129  0.000559  0.000256
     2 C    -0.001786 -0.001187 -0.000099
     3 C    -0.000601  0.000019  0.000301
     4 C     0.002222 -0.004444 -0.004039
     5 O     0.003483 -0.001231 -0.001082
     6 H    -0.000420 -0.000814 -0.000872
     7 H     0.000208  0.000230  0.000507
     8 H    -0.001878  0.001452  0.002281
     9 Al   -0.002579  0.001923  0.005803
    10 F     0.002349  0.002471 -0.000580
    11 F     0.000756  0.001152  0.000340
    12 F    -0.001882 -0.000129 -0.002816
 ----------------------------------------
 Mulliken charges used for AMS results%charges...

 dE(predicted):    -0.37867E-03, dE(actual):    -0.36819E-03, Trust radius:    0.666459, all in a.u.
 
----------------------------------------------------------------------
Geometry Convergence after Step  25       (Hartree/Angstrom,Angstrom)
----------------------------------------------------------------------
current energy                               -2.47135877 Hartree
energy change                      -0.00036819     0.00012000    F
constrained gradient max            0.00582286     0.00100000    F
constrained gradient rms            0.00199684     0.00066667    F
gradient max                        0.00582286
gradient rms                        0.00199684
cart. step max                      0.07123750     0.01000000    F
cart. step rms                      0.02616827     0.00666667    F
 
 
--------
Geometry
--------
Formula: C3H4AlF3O
Atoms
  Index Symbol   x (angstrom)   y (angstrom)   z (angstrom)
      1      H     0.22191345    -1.32478988    -0.64458287
      2      C    -0.73281597     0.27368542     0.36104196
      3      C     0.33079845    -0.33935301    -0.19386034
      4      C     1.68656002     0.18940217    -0.24809942
      5      O     2.09398264     1.29404579     0.13548549
      6      H    -0.66107089     1.24681571     0.83896775
      7      H    -1.70672533    -0.21200363     0.35382700
      8      H     2.44252709    -0.48761838    -0.67542114
      9     Al     1.83601961     3.06530533     0.85702377
     10      F     0.38199699     2.97962096     1.69374357
     11      F     1.77949241     3.95757070    -0.55326802
     12      F     3.19520665     3.21428998     1.80904215
 
Total System Charge             0.00000
 
 *** GOStep26 ***

 Energy gradients wrt nuclear displacements
 ==========================================

     Atom      Cartesian (a.u./angstrom)
                 X         Y         Z
 ----------------------------------------
     1 H     0.000175 -0.000139 -0.000108
     2 C     0.000661 -0.000883 -0.000561
     3 C     0.000316  0.002506  0.002335
     4 C     0.002645 -0.004164 -0.005542
     5 O     0.000874  0.001495  0.001085
     6 H    -0.000175 -0.000186 -0.000005
     7 H    -0.001454 -0.000118  0.000103
     8 H    -0.001908  0.001345  0.002452
     9 Al   -0.003247 -0.000394  0.002041
    10 F     0.003383  0.001282 -0.001549
    11 F     0.000903 -0.000543  0.002555
    12 F    -0.002173 -0.000202 -0.002806
 ----------------------------------------
 Mulliken charges used for AMS results%charges...

 dE(predicted):    -0.13835E-03, dE(actual):    -0.15719E-03, Trust radius:    0.666459, all in a.u.
 
----------------------------------------------------------------------
Geometry Convergence after Step  26       (Hartree/Angstrom,Angstrom)
----------------------------------------------------------------------
current energy                               -2.47151597 Hartree
energy change                      -0.00015719     0.00012000    F
constrained gradient max            0.00554395     0.00100000    F
constrained gradient rms            0.00195030     0.00066667    F
gradient max                        0.00554395
gradient rms                        0.00195030
cart. step max                      0.01432064     0.01000000    F
cart. step rms                      0.00501997     0.00666667    T
 
 
--------
Geometry
--------
Formula: C3H4AlF3O
Atoms
  Index Symbol   x (angstrom)   y (angstrom)   z (angstrom)
      1      H     0.21953122    -1.32470871    -0.64819823
      2      C    -0.72983979     0.27835354     0.35820527
      3      C     0.33110690    -0.34035820    -0.19557095
      4      C     1.68618046     0.18908746    -0.24397576
      5      O     2.08834438     1.29515389     0.13846102
      6      H    -0.65288079     1.25231063     0.83435817
      7      H    -1.70525930    -0.20366427     0.35128350
      8      H     2.44645088    -0.48647509    -0.66827029
      9     Al     1.83561156     3.06390692     0.85804990
     10      F     0.38476107     2.96910410     1.70112594
     11      F     1.76517177     3.94772954    -0.55695116
     12      F     3.19870673     3.21653135     1.80538251
 
Total System Charge             0.00000
 
 *** GOStep27 ***

 Energy gradients wrt nuclear displacements
 ==========================================

     Atom      Cartesian (a.u./angstrom)
                 X         Y         Z
 ----------------------------------------
     1 H    -0.000121 -0.000225 -0.000482
     2 C     0.000867 -0.000492 -0.000324
     3 C     0.000771  0.001728  0.001905
     4 C     0.001752 -0.002078 -0.003404
     5 O    -0.000443  0.001024  0.000424
     6 H     0.000042  0.000408 -0.000053
     7 H    -0.000955 -0.000254  0.000090
     8 H    -0.001206  0.001019  0.001946
     9 Al   -0.002594  0.000046  0.001325
    10 F     0.002738  0.000507 -0.001572
    11 F     0.000590 -0.001140  0.002193
    12 F    -0.001442 -0.000544 -0.002047
 ----------------------------------------
 Mulliken charges used for AMS results%charges...

 dE(predicted):    -0.25312E-04, dE(actual):    -0.32298E-04, Trust radius:    0.666459, all in a.u.
 
----------------------------------------------------------------------
Geometry Convergence after Step  27       (Hartree/Angstrom,Angstrom)
----------------------------------------------------------------------
current energy                               -2.47154827 Hartree
energy change                      -0.00003230     0.00012000    T
constrained gradient max            0.00340713     0.00100000    F
constrained gradient rms            0.00137618     0.00066667    F
gradient max                        0.00340713
gradient rms                        0.00137618
cart. step max                      0.01692970     0.01000000    F
cart. step rms                      0.00685497     0.00666667    F
 
 
--------
Geometry
--------
Formula: C3H4AlF3O
Atoms
  Index Symbol   x (angstrom)   y (angstrom)   z (angstrom)
      1      H     0.21577687    -1.32165585    -0.65771375
      2      C    -0.72812785     0.27438813     0.36550711
      3      C     0.32984827    -0.34115761    -0.19769066
      4      C     1.68432366     0.19027605    -0.24555260
      5      O     2.08554172     1.29562698     0.13954834
      6      H    -0.64744745     1.24395757     0.84992647
      7      H    -1.70303840    -0.20762778     0.35909779
      8      H     2.44467073    -0.48287865    -0.67472805
      9     Al     1.83735291     3.06668481     0.85497140
     10      F     0.37714815     2.97711573     1.68419624
     11      F     1.78177023     3.94734228    -0.56269369
     12      F     3.19006627     3.21489949     1.81903131
 
Total System Charge             0.00000
 
 *** GOStep28 ***

 Energy gradients wrt nuclear displacements
 ==========================================

     Atom      Cartesian (a.u./angstrom)
                 X         Y         Z
 ----------------------------------------
     1 H    -0.000345 -0.000140 -0.000465
     2 C     0.000332 -0.000008 -0.000427
     3 C     0.000786  0.000661  0.001456
     4 C     0.001425 -0.001230 -0.002449
     5 O    -0.000671  0.000921  0.000239
     6 H     0.000160  0.000287  0.000104
     7 H    -0.000299 -0.000230  0.000068
     8 H    -0.001001  0.000733  0.001569
     9 Al   -0.001897  0.000409  0.000541
    10 F     0.002177  0.000258 -0.001340
    11 F     0.000264 -0.001186  0.001986
    12 F    -0.000930 -0.000474 -0.001283
 ----------------------------------------
 Mulliken charges used for AMS results%charges...

 dE(predicted):    -0.13308E-04, dE(actual):    -0.20234E-04, Trust radius:    0.666459, all in a.u.
 
----------------------------------------------------------------------
Geometry Convergence after Step  28       (Hartree/Angstrom,Angstrom)
----------------------------------------------------------------------
current energy                               -2.47156850 Hartree
energy change                      -0.00002023     0.00012000    T
constrained gradient max            0.00244938     0.00100000    F
constrained gradient rms            0.00102471     0.00066667    F
gradient max                        0.00244938
gradient rms                        0.00102471
cart. step max                      0.02616882     0.01000000    F
cart. step rms                      0.01027895     0.00666667    F
 
 
--------
Geometry
--------
Formula: C3H4AlF3O
Atoms
  Index Symbol   x (angstrom)   y (angstrom)   z (angstrom)
      1      H     0.21260924    -1.31763907    -0.66575439
      2      C    -0.72640681     0.26876330     0.37729018
      3      C     0.32806151    -0.34040665    -0.19992544
      4      C     1.68224865     0.19247573    -0.24923976
      5      O     2.08695840     1.29510657     0.13966892
      6      H    -0.64328741     1.23464507     0.86835880
      7      H    -1.69972398    -0.21539900     0.37333000
      8      H     2.44016356    -0.47776645    -0.69025916
      9     Al     1.84003053     3.06936706     0.85051215
     10      F     0.36444753     2.98866060     1.65802742
     11      F     1.80760167     3.94817186    -0.57009696
     12      F     3.17518223     3.21099215     1.84198814
 
Total System Charge             0.00000
 
 *** GOStep29 ***

 Energy gradients wrt nuclear displacements
 ==========================================

     Atom      Cartesian (a.u./angstrom)
                 X         Y         Z
 ----------------------------------------
     1 H    -0.000369  0.000068 -0.000143
     2 C    -0.000448  0.000373  0.000170
     3 C     0.000532 -0.000426 -0.000067
     4 C     0.000484  0.000130 -0.000189
     5 O    -0.000373  0.000224 -0.000319
     6 H     0.000202  0.000108  0.000016
     7 H     0.000375 -0.000156 -0.000026
     8 H    -0.000239  0.000132  0.000568
     9 Al   -0.000401  0.000442 -0.000672
    10 F     0.000506  0.000091 -0.000401
    11 F    -0.000232 -0.000641  0.000981
    12 F    -0.000036 -0.000344  0.000082
 ----------------------------------------
 Mulliken charges used for AMS results%charges...

 dE(predicted):    -0.18442E-04, dE(actual):    -0.21643E-04, Trust radius:    0.666459, all in a.u.
 
---------------------------------------------------------
Geometry Convergence after Step  29       ** CONVERGED **
---------------------------------------------------------
current energy                               -2.47159014 Hartree
energy change                      -0.00002164     0.00012000    T
constrained gradient max            0.00097745     0.00100000    T
constrained gradient rms            0.00037199     0.00066667    T
gradient max                        0.00097745
gradient rms                        0.00037199
cart. step max                      0.00801029     0.01000000    T
cart. step rms                      0.00261398     0.00666667    T
 
Geometry optimization converged

Optimized geometry:
 
--------
Geometry
--------
Formula: C3H4AlF3O
Atoms
  Index Symbol   x (angstrom)   y (angstrom)   z (angstrom)
      1      H     0.21260924    -1.31763907    -0.66575439
      2      C    -0.72640681     0.26876330     0.37729018
      3      C     0.32806151    -0.34040665    -0.19992544
      4      C     1.68224865     0.19247573    -0.24923976
      5      O     2.08695840     1.29510657     0.13966892
      6      H    -0.64328741     1.23464507     0.86835880
      7      H    -1.69972398    -0.21539900     0.37333000
      8      H     2.44016356    -0.47776645    -0.69025916
      9     Al     1.84003053     3.06936706     0.85051215
     10      F     0.36444753     2.98866060     1.65802742
     11      F     1.80760167     3.94817186    -0.57009696
     12      F     3.17518223     3.21099215     1.84198814
 
Total System Charge             0.00000
 
Performing a single point calculation on the final geometry ...

 *** adf ***



 ===========================
 A T T A C H E D   F I L E S
 ===========================
  
 Restart
 /scratch/3978/amstmp_21.achiral_catalyst.H_H_AlF3.Rsub_cat_complex_kid0.1841898
 092/GOStep29.rkf*** GOStep29 ***



 ===============================
 M O D E L   P A R A M E T E R S
 ===============================
  
 DENSITY FUNCTIONAL POTENTIAL (scf)
    LDA:                               Exchange only                           == Not Default ==
[...]
    10     F      -0.098923   0.031160  -0.104515
    11     F      -0.036511  -0.142945   0.072673
    12     F       0.126407   0.069778   0.009828
 
 Mode:    17      Frequency (cm-1):      384.4125     Intensity (km/mol):      199.0529
 Index  Atom      ---- Displacements (x/y/z) ----
     1     H       0.258326   0.130096  -0.002584
     2     C      -0.013710  -0.029857  -0.007787
     3     C       0.110175   0.133377   0.022014
     4     C       0.007400   0.233051   0.104402
     5     O      -0.185436   0.280585   0.119235
     6     H      -0.203107  -0.030651   0.043434
     7     H       0.073600  -0.205212  -0.097082
     8     H       0.151489   0.361499   0.183979
     9    Al       0.062525  -0.517870  -0.194693
    10     F       0.131485   0.137251  -0.022806
    11     F      -0.012201   0.035891   0.161529
    12     F      -0.132436   0.099957  -0.044312
 
 Mode:    18      Frequency (cm-1):      514.2506     Intensity (km/mol):        9.3038
 Index  Atom      ---- Displacements (x/y/z) ----
     1     H      -0.073336   0.165959  -0.305975
     2     C      -0.010321   0.010659  -0.018551
     3     C       0.032427  -0.049753   0.121759
     4     C       0.011778  -0.009880   0.004883
     5     O      -0.014846   0.008080  -0.020028
     6     H       0.075583  -0.204921   0.392513
     7     H      -0.155326   0.307331  -0.631275
     8     H      -0.049705   0.144139  -0.333874
     9    Al       0.000892   0.000261  -0.000912
    10     F       0.001064  -0.001050  -0.002399
    11     F       0.000131   0.001930  -0.001820
    12     F      -0.000609   0.000998   0.000711
 
 Mode:    19      Frequency (cm-1):      645.1522     Intensity (km/mol):       58.1592
 Index  Atom      ---- Displacements (x/y/z) ----
     1     H      -0.033244   0.024746   0.009441
     2     C      -0.004457   0.003864   0.005328
     3     C      -0.001055   0.022284   0.009669
     4     C       0.039600   0.004958  -0.006439
     5     O      -0.023706  -0.009681  -0.000164
     6     H      -0.032377   0.002131  -0.005380
     7     H       0.004326  -0.012821  -0.004398
     8     H       0.023744  -0.022885  -0.013762
     9    Al      -0.069593   0.232134   0.105640
    10     F       0.513030   0.011358  -0.288944
    11     F       0.009717  -0.295440   0.452566
    12     F      -0.423494  -0.056623  -0.318171
 
 Mode:    20      Frequency (cm-1):      683.0485     Intensity (km/mol):       11.9004
 Index  Atom      ---- Displacements (x/y/z) ----
     1     H      -0.108105   0.196383   0.156123
     2     C      -0.037063   0.045985   0.034880
     3     C       0.108206   0.217809   0.059229
     4     C       0.164003  -0.140605  -0.100362
     5     O      -0.159789  -0.097992  -0.004245
     6     H      -0.613296   0.044368   0.128399
     7     H       0.215954  -0.468094  -0.211046
     8     H       0.197340  -0.129993  -0.068497
     9    Al      -0.004290   0.009790   0.004578
    10     F      -0.002804  -0.003968  -0.001041
    11     F      -0.002074   0.009245  -0.010521
    12     F       0.013317   0.004465   0.012319
 
 Mode:    21      Frequency (cm-1):      824.7936     Intensity (km/mol):      165.5331
 Index  Atom      ---- Displacements (x/y/z) ----
     1     H       0.050860   0.009485   0.017368
     2     C      -0.006864  -0.004289  -0.005000
     3     C       0.021415   0.018448   0.006959
     4     C      -0.014163  -0.007621  -0.009081
     5     O      -0.018628  -0.013784   0.007479
     6     H      -0.027781  -0.002237   0.033880
     7     H       0.037937  -0.098268  -0.065221
     8     H      -0.026604  -0.025895  -0.011043
     9    Al       0.549674   0.191505  -0.291585
    10     F      -0.491732  -0.025018   0.274260
    11     F      -0.012846  -0.197639   0.310312
    12     F      -0.262457  -0.035641  -0.170933
 
 Mode:    22      Frequency (cm-1):      861.3040     Intensity (km/mol):      181.1839
 Index  Atom      ---- Displacements (x/y/z) ----
     1     H       0.002698  -0.023449   0.034993
     2     C      -0.003941   0.004783  -0.007717
     3     C      -0.002841  -0.009530   0.007366
     4     C      -0.000738   0.015942  -0.022317
     5     O       0.012389  -0.005521   0.026012
     6     H       0.016939  -0.020828   0.039276
     7     H      -0.013729   0.024472   0.003049
     8     H       0.010179   0.013435   0.002628
     9    Al      -0.344875   0.157069  -0.547480
    10     F       0.032637  -0.004358   0.007716
    11     F       0.020341  -0.262843   0.428146
    12     F       0.430280   0.042047   0.329846
 
 Mode:    23      Frequency (cm-1):      951.1604     Intensity (km/mol):       46.3209
 Index  Atom      ---- Displacements (x/y/z) ----
     1     H      -0.279046  -0.087168  -0.033152
     2     C      -0.191456  -0.000546   0.046984
     3     C      -0.123965  -0.095473  -0.020645
     4     C       0.314796  -0.027698  -0.083554
     5     O      -0.000751   0.077796   0.034509
     6     H       0.131353   0.030982  -0.053693
     7     H      -0.386705   0.370278   0.322693
     8     H       0.544097   0.165641  -0.002406
     9    Al       0.007518  -0.008195  -0.004983
    10     F      -0.007096  -0.001173   0.002885
    11     F      -0.000665   0.000267   0.000447
    12     F      -0.002404  -0.000258  -0.001553
 
 Mode:    24      Frequency (cm-1):     1001.0441     Intensity (km/mol):       15.6829
 Index  Atom      ---- Displacements (x/y/z) ----
     1     H      -0.147026   0.358304  -0.706773
     2     C      -0.002889   0.012892  -0.027104
     3     C       0.017967  -0.030077   0.066246
     4     C       0.003826  -0.017820   0.044009
     5     O      -0.003898   0.002185  -0.013518
     6     H      -0.076921   0.165065  -0.315924
     7     H       0.099488  -0.195532   0.375741
     8     H      -0.034364   0.049569  -0.124676
     9    Al      -0.000549   0.000744  -0.002343
    10     F      -0.000385  -0.000428   0.001166
    11     F       0.000162  -0.000441   0.001166
    12     F       0.000769   0.000063   0.000790
 
 Mode:    25      Frequency (cm-1):     1025.2177     Intensity (km/mol):        0.6058
 Index  Atom      ---- Displacements (x/y/z) ----
     1     H      -0.109181   0.103288  -0.214521
     2     C       0.002271   0.021718  -0.022231
     3     C       0.020682  -0.063542   0.103429
     4     C      -0.046548   0.088329  -0.195428
     5     O       0.012988  -0.012249   0.039961
     6     H      -0.024794  -0.056010   0.134686
     7     H       0.029809  -0.034392  -0.063337
     8     H       0.168088  -0.344972   0.830617
     9    Al       0.001229  -0.001510   0.003766
    10     F       0.000136   0.000474  -0.000766
    11     F      -0.000268   0.000321  -0.001456
    12     F      -0.001035  -0.000095  -0.001085
 
 Mode:    26      Frequency (cm-1):     1053.8645     Intensity (km/mol):       20.8232
 Index  Atom      ---- Displacements (x/y/z) ----
     1     H      -0.061850   0.046432  -0.102714
     2     C       0.042836  -0.066304   0.139245
     3     C      -0.012979   0.006353  -0.030777
     4     C      -0.004279   0.007801  -0.012684
     5     O       0.002914   0.001888   0.002186
     6     H      -0.204709   0.348975  -0.640767
     7     H      -0.110397   0.247480  -0.544265
     8     H       0.026236  -0.033887   0.103245
     9    Al      -0.000290   0.000229  -0.001924
    10     F      -0.000339  -0.000725   0.001682
    11     F       0.000244  -0.000516   0.001017
    12     F       0.000502  -0.000041   0.000529
 
 Mode:    27      Frequency (cm-1):     1075.8722     Intensity (km/mol):        7.2117
 Index  Atom      ---- Displacements (x/y/z) ----
     1     H      -0.573994  -0.128389   0.086575
     2     C       0.074241   0.081023   0.011042
     3     C      -0.084146  -0.121883  -0.046527
     4     C       0.003223   0.004733   0.027596
     5     O       0.039582   0.053734   0.009693
     6     H      -0.443073   0.033310   0.184404
     7     H       0.318067  -0.416428  -0.235705
     8     H       0.105304   0.173504  -0.046275
     9    Al       0.001845  -0.001484  -0.001374
    10     F       0.000802  -0.000582  -0.000575
    11     F       0.000013  -0.001137   0.000865
    12     F      -0.001046  -0.000665  -0.000932
 
 Mode:    28      Frequency (cm-1):     1306.4248     Intensity (km/mol):        3.9050
 Index  Atom      ---- Displacements (x/y/z) ----
     1     H      -0.819506   0.108180   0.245184
     2     C       0.034868  -0.107427  -0.063656
     3     C       0.006916   0.090587   0.047105
     4     C       0.002651   0.001543   0.001108
     5     O       0.000985   0.020183   0.008303
     6     H       0.407303  -0.104903  -0.165709
     7     H      -0.008433   0.008583   0.008390
     8     H      -0.113468  -0.104459  -0.021285
     9    Al       0.000593  -0.002158  -0.001176
    10     F      -0.001301   0.000247   0.000677
    11     F      -0.000097   0.000245   0.000074
    12     F      -0.000007   0.000155   0.000151
 
 Mode:    29      Frequency (cm-1):     1423.5357     Intensity (km/mol):       27.9470
 Index  Atom      ---- Displacements (x/y/z) ----
     1     H       0.096480   0.047971   0.004292
     2     C      -0.009562  -0.004112   0.000423
     3     C      -0.053184   0.043333   0.033636
     4     C      -0.043767   0.007543   0.010423
     5     O       0.007203  -0.065978  -0.028949
     6     H       0.383693   0.005105  -0.097641
     7     H       0.129234  -0.254567  -0.163890
     8     H       0.557600   0.613132   0.151985
     9    Al      -0.000642   0.001928   0.001076
    10     F       0.000183   0.000613   0.000189
    11     F      -0.000103   0.000446  -0.000200
    12     F       0.000139   0.000377   0.000343
 
 Mode:    30      Frequency (cm-1):     1433.9803     Intensity (km/mol):       51.1605
 Index  Atom      ---- Displacements (x/y/z) ----
     1     H       0.290634  -0.010203  -0.071838
     2     C      -0.009232   0.026904   0.016695
     3     C      -0.119968  -0.003090   0.027650
     4     C       0.078177  -0.011207  -0.021564
     5     O      -0.008502   0.045868   0.021300
     6     H       0.504128   0.041133  -0.110565
     7     H       0.251282  -0.463111  -0.306723
     8     H      -0.283779  -0.390718  -0.108265
     9    Al      -0.001564  -0.002979  -0.000450
    10     F       0.000358   0.000982   0.000356
    11     F       0.000208   0.000335  -0.000463
    12     F       0.000605  -0.000013   0.000116
 
 Mode:    31      Frequency (cm-1):     1599.5845     Intensity (km/mol):      210.6413
 Index  Atom      ---- Displacements (x/y/z) ----
     1     H       0.315638   0.094741  -0.012138
     2     C       0.268746  -0.121713  -0.132356
     3     C      -0.334552   0.082088   0.124060
     4     C       0.149244   0.170192   0.039237
     5     O      -0.047610  -0.113446  -0.037282
     6     H      -0.575694  -0.202416   0.060361
     7     H       0.035546   0.403072   0.205879
     8     H      -0.012976  -0.029520  -0.007780
     9    Al       0.003788  -0.003711  -0.002814
    10     F      -0.004837  -0.000533   0.001637
    11     F      -0.000915   0.002796  -0.000531
    12     F       0.000351   0.001945   0.001669
 
 Mode:    32      Frequency (cm-1):     1688.4372     Intensity (km/mol):      225.5947
 Index  Atom      ---- Displacements (x/y/z) ----
     1     H      -0.408427  -0.133176   0.030552
     2     C      -0.141614   0.084900   0.079157
     3     C       0.145982  -0.116881  -0.093060
     4     C       0.173182   0.457874   0.163355
     5     O      -0.096709  -0.300249  -0.108309
     6     H       0.288117   0.120204  -0.007534
     7     H       0.003886  -0.257262  -0.143938
     8     H      -0.395695  -0.136266   0.011921
     9    Al      -0.000597  -0.002684  -0.000545
    10     F      -0.004200   0.001745   0.002437
    11     F      -0.000603   0.004480  -0.002061
    12     F       0.002092   0.002925   0.002968
 
 Mode:    33      Frequency (cm-1):     2976.2299     Intensity (km/mol):       44.1263
 Index  Atom      ---- Displacements (x/y/z) ----
     1     H       0.000376  -0.053956  -0.027641
     2     C      -0.000120   0.000039   0.000076
     3     C      -0.002168   0.003785   0.002400
     4     C       0.061509  -0.048206  -0.033223
     5     O      -0.001208  -0.001300  -0.000246
     6     H      -0.001259  -0.000366  -0.000012
     7     H       0.005948   0.001445  -0.000372
     8     H      -0.693030   0.593376   0.395803
     9    Al       0.000101   0.000502   0.000143
    10     F       0.000051  -0.000120  -0.000084
    11     F      -0.000018  -0.000085   0.000070
    12     F      -0.000070  -0.000053  -0.000071
 
 Mode:    34      Frequency (cm-1):     3100.8225     Intensity (km/mol):       22.9469
 Index  Atom      ---- Displacements (x/y/z) ----
     1     H       0.009197   0.092792   0.044381
     2     C       0.052543  -0.030591  -0.029633
     3     C      -0.006899  -0.003908  -0.000253
     4     C       0.000942  -0.000828  -0.000540
     5     O      -0.000087  -0.000048  -0.000028
     6     H       0.061666   0.634012   0.318892
     7     H      -0.616385  -0.311736  -0.005451
     8     H      -0.005985   0.006176   0.003999
     9    Al      -0.000435   0.000132   0.000307
    10     F       0.000347  -0.000138  -0.000258
    11     F       0.000056  -0.000011  -0.000113
    12     F       0.000119  -0.000031  -0.000017
 
 Mode:    35      Frequency (cm-1):     3129.6993     Intensity (km/mol):        8.9982
 Index  Atom      ---- Displacements (x/y/z) ----
     1     H       0.109761   0.882308   0.418924
     2     C      -0.002002   0.014274   0.008031
     3     C      -0.007038  -0.077127  -0.037318
     4     C       0.005479  -0.002490  -0.002150
     5     O       0.000047   0.000334   0.000090
     6     H      -0.012396  -0.134314  -0.067341
     7     H      -0.012928  -0.007433  -0.001013
     8     H      -0.043339   0.030982   0.022246
     9    Al       0.000102   0.000070  -0.000035
    10     F      -0.000061  -0.000002   0.000031
    11     F      -0.000013  -0.000024   0.000036
    12     F      -0.000041  -0.000011  -0.000014
 
 Mode:    36      Frequency (cm-1):     3204.4031     Intensity (km/mol):       15.8789
 Index  Atom      ---- Displacements (x/y/z) ----
     1     H      -0.009159  -0.106424  -0.051353
     2     C       0.057620   0.077406   0.025989
     3     C       0.001507   0.009151   0.004283
     4     C      -0.001133  -0.000234   0.000137
     5     O       0.000037   0.000227   0.000110
     6     H      -0.043242  -0.602304  -0.307077
     7     H      -0.642643  -0.322347  -0.004068
     8     H       0.002620  -0.001006  -0.001141
     9    Al       0.000311  -0.000153  -0.000253
    10     F      -0.000249   0.000197   0.000247
    11     F      -0.000040   0.000023   0.000083
    12     F      -0.000084   0.000031   0.000020

PES point character: Geometry corresponds to a transition state.
                     (Hint: Very small negative frequencies do not count towards being a
                     transition state, as they usually indicate noise on a very flat PES. See
                     the PESPointCharacter%NegativeFrequenciesTolerance keyword documentation.)




 ============================
 Statistical Thermal Analysis  ***  ideal gas assumed  ***
 ============================
  
 Pressure:                  1.000000 atm.
 Temperature:             298.150000 K



 Moments of Inertia [amu*bohr^2] and principal axis
 ==================================================

         703.0610       1725.6036       1873.2617
 ------------------------------------------------
           0.4749          0.8488          0.2325
           0.8479         -0.3704         -0.3794
           0.2359         -0.3773          0.8955


 The rotational contribution to the molecular entropy includes
 a term, dependent on the symmetry number sigma. The results 
 reported below were computed using sigma = 1, determined from
 the point group symmetry of the input geometry (NOSYM). 
 If this is not the correct symmetry, try symmetrizing the molecule before
 running the calculation (note: linear molecules should be aligned along one
 of the Cartesian axes).
 Contributions from frequencies below 20 1/cm are not included in vibrational sums.
 Their contributions, if any, are reported separately.


     Temp                                                        Transl      Rotat     Vibrat     Total
     ----                                                        ------      -----     ------     -----

     298.15   Entropy (cal/mol-K):                               40.721     29.209     23.816     93.746
              Nuclear Internal Energy (kcal/mol):                 0.889      0.889     47.815     49.592
              Constant Volume Heat Capacity (cal/mol-K):          2.981      2.981     24.247     30.208
          (c) Constant Volume Heat Capacity (cal/mol-K):          2.981      2.981     22.773     28.735

       Summary of energy terms
                                                   hartree              eV         kcal/mol           kJ/mol
                                      --------------------     -----------       ----------      -----------
      Energy from Engine:               -2.471590143456419        -67.2554         -1550.95         -6489.16
      Nuclear Internal Energy:           0.079030051917638          2.1505            49.59           207.49
  (c) Nuclear Internal Energy:           0.078240328087193          2.1290            49.10           205.42
      Internal Energy U:                -2.392560091538781        -65.1049         -1501.35         -6281.67
      pV/n = RT:                         0.000944186013486          0.0257             0.59             2.48
      Enthalpy H:                       -2.391615905525295        -65.0792         -1500.76         -6279.19
      -T*S:                             -0.044541802491336         -1.2120           -27.95          -116.94
  (c) -T*S:                             -0.044107421133014         -1.2002           -27.68          -115.80
      Gibbs free energy:                -2.436157708016630        -66.2912         -1528.71         -6396.13
 
 
 
  (c) The properties marked with this symbol have been corrected using 'low vibrational frequency free rotor
      interpolation corrections'. For those terms all positive frequencies are used (also ones below 20 1/cm),
      but the contribution to the partition function of small vibrational frequencies is modified as described
      in the following paper:
      S. Grimme, 'Supramolecular Binding Thermodynamics by Dispersion-Corrected Density Functional Theory'
      (Chem. Eur. J. 2012, 18, 9955-9964)
      Configuration: Dampener Frequency          :   100.000 1/cm
                     Dampener Alpha              :     4.000
                     Averaging Moment of Inertia : 1.000E-44 kg m2

--------------
Atomic charges
--------------
  Index   Atom    Charge
      1      H   -0.1972
      2      C    0.5621
      3      C    0.1392
      4      C    0.7216
      5      O   -0.5662
      6      H   -0.0760
      7      H   -0.2114
      8      H   -0.2192
      9     Al    1.7427
     10      F   -0.6441
     11      F   -0.6266
     12      F   -0.6248


Dipole moment vector    (Debye):    -2.75256453   -7.25429387   -2.17115907
              magnitude (Debye):     8.05700458


ERROR: Geometry optimization failed! (Converged, but did not find a minimum on the PES.)


AMS application finished. Exiting.
NORMAL TERMINATION
     Total cpu time:    8845.44
  Total system time:      62.56
 Total elapsed time:   17906.44
 WARNING: total elapsed time is much higher than the (CPU+system) time. 
 Make sure the machine is not oversubscribed and has enough memory, SCM_TMPDIR p
 oints to a fast file system, and the network is fast enough.
