

 Parallel Execution: Process Information
 ==============================================================================
 Rank   Node Name                              NodeID   MyNodeRank  NodeMaster
    0   node115                                   0          0          0
    1   node115                                   0          1         -1
    2   node115                                   0          2         -1
    3   node115                                   0          3         -1
 ==============================================================================


May use up to 122928MB of RAM as shared memory on node 0

 *******************************************************************************
 *                                                                             *
 *  --------------------------------                                           *
 *   Amsterdam Modeling Suite (AMS)              2021.102                      *
 *  --------------------------------                                           *
 *                                               r95042 2021-06-07             *
 *                                                                             *
 *                                                                             *
 *                              =================                              *
 *                              |               |                              *
 *                              |     A M S     |                              *
 *                              |               |                              *
 *                              =================                              *
 *                                                                             *
 *                                                                             *
 *   Online information and documentation:  https://www.scm.com/support/       *
 *   E-mail:  support@scm.com   info@scm.com                                   *
 *                                                                             *
 *   Scientific publications using AMS results must be properly referenced     *
 *   See the User Manuals (or the web site) for recommended citations          *
 *   The terms and conditions of the End User License Agreement apply to       *
 *   the use of AMS, https://www.scm.com/license-terms/                        *
 *                                                                             *
 **********************  x86_64_linux_intel / intelmpi  ************************
 
 Licensed to: VU/FEW (+ SARA) / ALGEMEEN / Amsterdam / THE NETHERLANDS
 SCM User ID: u7668
  
 AMS 2021.102  RunTime: Jan23-2022 10:09:02  ShM Nodes: 1  Procs: 4

 AMS jobname: 33.achiral_catalyst.H_H_SnCl4.P1
 AMS jobid  : 499818876

 Start   directory: /scistor/tc/yhk800/MasterProject/calculations/achiral_catalyst_H_H_SnCl4/33.achiral_catalyst.H_H_SnCl4.P1/
 Results directory: /scistor/tc/yhk800/MasterProject/calculations/achiral_catalyst_H_H_SnCl4/33.achiral_catalyst.H_H_SnCl4.P1/
 Scratch directory: /scratch/3980/amstmp_33.achiral_catalyst.H_H_SnCl4.P1_kid0.499818876/


 Communication costs MPI_COMM_WORLD:      1.618 usec per message,   0.0061 usec per 8-byte item
 Communication costs for intra-node:      0.864 usec per message,   0.0059 usec per 8-byte item

 RNG seed: 1522436420 976665663 -1903607822 -1313075164 867401239 -1424464556 1646001516 -439299308



                      ************************************************************************
                      *  ADF 2021.102  RunTime: Jan23-2022 10:09:03  ShM Nodes: 1  Procs: 4  *
                      ************************************************************************
  
       ***************************
       *  GEOMETRY OPTIMIZATION  *
       ***************************

Optimization Method                    Quasi Newton
Optimization Coordinates               Delocalized Coordinates
Optimize lattice                       F
 
 ------------------------------------------------------
 Convergence criteria (Hartree,Angstrom)
 ------------------------------------------------------
 Maximum gradient               0.001000000000
 Maximum rms gradient           0.000666666667
 Maximum step allowed           0.010000000000
 Maximum rms step allowed       0.006666666667
 Maximum energy change allowe   0.000170000000
 Maximum stress energy allowe   0.000500000000
 
Initial model Hessian                  Automatic Hessian
 
------------------------------------
Quasi-Newton Optimizer Parameters
------------------------------------
Hessian Update Method                  BFGS
Maximum number of steps                  250
First GDIIS cycle                          0
Maximum GDIIS vectors                      0
Trust radius (bohr)                        0.200000
Trust radius varies                        T
Constraints converged at all steps         T
Use projector                              T
 
 Rigid motions settings for: old optimizer
 Atomic rotations (x,y,z):     T T T
 Atomic translations (x,y,z):  T T T
 Tolerance:                   1.000000000000000E-006
 
--------
Geometry
--------
Formula: C4H7Cl4OSn
Atoms
  Index Symbol   x (angstrom)   y (angstrom)   z (angstrom)
      1      H     0.30883566    -1.71322737     0.34845077
      2      C    -0.85933175     0.07325638     0.95361639
      3      C     0.30566658    -0.62207952     0.35697327
      4      C     1.44363467     0.02246096    -0.23005168
      5      O     1.61592302     1.24992601    -0.30213575
      6      H    -0.69195270     1.15283717     0.94428296
      7      H    -1.40849480    -1.48746718     2.39475159
      8      C    -1.20706757    -0.41125312     2.37345100
      9      H    -0.38777363    -0.20492454     3.06899219
     10      H    -2.09949902     0.10683830     2.73788510
     11      H    -1.70568492    -0.10955427     0.32499363
     12      H     2.18584514    -0.63577321    -0.63098981
     13     Sn     2.05590296     4.51894516    -0.20247893
     14     Cl    -0.10617220     4.83774791    -1.11463553
     15     Cl     2.96912365     4.46262241    -2.38676133
     16     Cl     4.21797812     4.20014240     0.70967767
     17     Cl     1.14268227     4.57526790     1.98180347
 
Total System Charge             0.00000
 
 
----------------
ADF Engine Input
----------------
 
 NumericalQuality VeryGood
 SCF
 Converge 1.0e-6
 Iterations 99
 End
 SYMMETRY NOSYM
 SpinPolarization 1.0
 Unrestricted Yes
 XC
 GGA OLYP
 End
 basis
 core None
 type TZ2P
 End
 

 Title: *** (NO TITLE) ***

 Using automatic Hessian for delocalized coordinates.
 *** GOStep1 ***

 Energy gradients wrt nuclear displacements
 ==========================================

     Atom      Cartesian (a.u./angstrom)
                 X         Y         Z
 ----------------------------------------
     1 H    -0.000304  0.000028  0.000255
     2 C    -0.030046 -0.007101 -0.021068
     3 C     0.001020 -0.002924 -0.001377
     4 C     0.029828 -0.020827 -0.016274
     5 O     0.001837 -0.011633 -0.001770
     6 H    -0.001232 -0.000926 -0.000384
     7 H     0.000105 -0.000016  0.000068
     8 C    -0.000869  0.000464 -0.002146
     9 H     0.000345  0.000131 -0.000028
    10 H    -0.000126  0.000003  0.000266
    11 H     0.032487  0.007304  0.023788
    12 H    -0.033766  0.029139  0.018274
    13 Sn   -0.000027  0.018062  0.002633
    14 Cl    0.000211 -0.002870 -0.000135
    15 Cl    0.000107 -0.003054 -0.000687
    16 Cl    0.000224 -0.002962 -0.000303
    17 Cl    0.000205 -0.002818 -0.001113
 ----------------------------------------
 Mulliken charges used for AMS results%charges...
 
----------------------------------------------------------------------
Geometry Convergence after Step   1       (Hartree/Angstrom,Angstrom)
----------------------------------------------------------------------
current energy                               -2.87955357 Hartree
energy change                      -2.87955357     0.00017000    F
constrained gradient max            0.03376025     0.00100000    F
constrained gradient rms            0.01213844     0.00066667    F
gradient max                        0.03376025
gradient rms                        0.01213844
cart. step max                      0.02500835     0.01000000    F
cart. step rms                      0.00874494     0.00666667    F
 
 
--------
Geometry
--------
Formula: C4H7Cl4OSn
Atoms
  Index Symbol   x (angstrom)   y (angstrom)   z (angstrom)
      1      H     0.30056750    -1.71677586     0.34587531
      2      C    -0.85673932     0.07802693     0.95145247
      3      C     0.30349163    -0.62561304     0.35471461
      4      C     1.44592465     0.01200984    -0.23118325
      5      O     1.61338933     1.24449779    -0.29852532
      6      H    -0.67819820     1.15644351     0.94191869
      7      H    -1.41048373    -1.47730071     2.39771336
      8      C    -1.20025878    -0.40280676     2.37462773
      9      H    -0.37662475    -0.20241776     3.06653607
     10      H    -2.08694234     0.12269094     2.74215137
     11      H    -1.72460088    -0.10321012     0.31307305
     12      H     2.20736206    -0.66078156    -0.64334690
     13     Sn     2.04843880     4.50343628    -0.19947203
     14     Cl    -0.11103819     4.83751759    -1.11092523
     15     Cl     2.96518016     4.46695663    -2.38120170
     16     Cl     4.20845745     4.20599770     0.72174256
     17     Cl     1.13169010     4.57709399     1.98267422
 
Total System Charge             0.00000
 
 *** GOStep2 ***

 Energy gradients wrt nuclear displacements
 ==========================================

     Atom      Cartesian (a.u./angstrom)
                 X         Y         Z
 ----------------------------------------
     1 H     0.000005  0.000047  0.000030
     2 C    -0.011136 -0.002798 -0.007039
     3 C    -0.000368 -0.000698  0.000529
     4 C     0.010240 -0.014245 -0.005503
     5 O     0.000563 -0.000039 -0.001039
     6 H     0.000185 -0.000016  0.000239
     7 H     0.000040 -0.000053  0.000006
     8 C     0.000353  0.000594 -0.000692
     9 H     0.000002 -0.000085  0.000246
    10 H    -0.000057 -0.000011  0.000090
    11 H     0.009733  0.002245  0.007253
    12 H    -0.010249  0.008448  0.005456
    13 Sn    0.000182  0.015798  0.002076
    14 Cl    0.000536 -0.002291  0.000302
    15 Cl   -0.000170 -0.002414 -0.000420
    16 Cl   -0.000214 -0.002300 -0.000051
    17 Cl    0.000354 -0.002182 -0.001481
 ----------------------------------------
 Mulliken charges used for AMS results%charges...

 dE(predicted):    -0.12864E-02, dE(actual):    -0.17085E-02, Trust radius:    0.200000, all in a.u.
 
----------------------------------------------------------------------
Geometry Convergence after Step   2       (Hartree/Angstrom,Angstrom)
----------------------------------------------------------------------
current energy                               -2.88126208 Hartree
energy change                      -0.00170851     0.00017000    F
constrained gradient max            0.01580091     0.00100000    F
constrained gradient rms            0.00476798     0.00066667    F
gradient max                        0.01580091
gradient rms                        0.00476798
cart. step max                      0.01576936     0.01000000    F
cart. step rms                      0.00540023     0.00666667    T
 
 
--------
Geometry
--------
Formula: C4H7Cl4OSn
Atoms
  Index Symbol   x (angstrom)   y (angstrom)   z (angstrom)
      1      H     0.29422851    -1.71797752     0.34061929
      2      C    -0.85465481     0.08011820     0.95389192
      3      C     0.30013885    -0.62680736     0.35179151
      4      C     1.44220394     0.00977347    -0.23286608
      5      O     1.60868160     1.24184304    -0.29492915
      6      H    -0.67356940     1.15815278     0.94430867
      7      H    -1.40997462    -1.47689202     2.39895404
      8      C    -1.19594768    -0.40315802     2.37736200
      9      H    -0.36921536    -0.20653402     3.06644250
     10      H    -2.07952366     0.12499435     2.74834585
     11      H    -1.73452381    -0.10057781     0.31094364
     12      H     2.21549452    -0.66951245    -0.65010428
     13     Sn     2.04533475     4.48766692    -0.20041774
     14     Cl    -0.10729535     4.84437999    -1.11877580
     15     Cl     2.97195595     4.47047330    -2.37650650
     16     Cl     4.20311401     4.21256168     0.72992756
     17     Cl     1.12316804     4.58726088     1.97883758
 
Total System Charge             0.00000
 
 *** GOStep3 ***

 Energy gradients wrt nuclear displacements
 ==========================================

     Atom      Cartesian (a.u./angstrom)
                 X         Y         Z
 ----------------------------------------
     1 H     0.000130 -0.000114 -0.000039
     2 C    -0.000334  0.000093  0.000210
     3 C     0.000241  0.000740  0.000327
     4 C    -0.001022 -0.005666 -0.000130
     5 O    -0.000356 -0.001315 -0.000354
     6 H     0.000476  0.000269  0.000189
     7 H    -0.000040 -0.000094  0.000064
     8 C     0.000489  0.000151  0.000087
     9 H    -0.000093 -0.000065  0.000072
    10 H    -0.000049 -0.000008  0.000013
    11 H    -0.001077 -0.000208 -0.000632
    12 H     0.000956 -0.000795 -0.000230
    13 Sn    0.000389  0.013097  0.001440
    14 Cl    0.000890 -0.001575  0.000384
    15 Cl   -0.000401 -0.001644  0.000268
    16 Cl   -0.000667 -0.001454 -0.000190
    17 Cl    0.000467 -0.001413 -0.001477
 ----------------------------------------
 Mulliken charges used for AMS results%charges...

 dE(predicted):    -0.33073E-03, dE(actual):    -0.42816E-03, Trust radius:    0.200000, all in a.u.
 
----------------------------------------------------------------------
Geometry Convergence after Step   3       (Hartree/Angstrom,Angstrom)
----------------------------------------------------------------------
current energy                               -2.88169024 Hartree
energy change                      -0.00042816     0.00017000    F
constrained gradient max            0.01309826     0.00100000    F
constrained gradient rms            0.00210973     0.00066667    F
gradient max                        0.01309826
gradient rms                        0.00210973
cart. step max                      0.01750559     0.01000000    F
cart. step rms                      0.00565550     0.00666667    T
 
 
--------
Geometry
--------
Formula: C4H7Cl4OSn
Atoms
  Index Symbol   x (angstrom)   y (angstrom)   z (angstrom)
      1      H     0.29518795    -1.71798705     0.33978063
      2      C    -0.85427888     0.07774008     0.95706102
      3      C     0.30129296    -0.62694666     0.35516478
      4      C     1.44293850     0.01261018    -0.22623828
      5      O     1.60837291     1.24406683    -0.28690703
      6      H    -0.67635838     1.15610123     0.94922454
      7      H    -1.41435301    -1.48361764     2.39559099
      8      C    -1.20128373    -0.40971867     2.37783904
      9      H    -0.37715066    -0.21379564     3.07019541
     10      H    -2.08665479     0.11693407     2.74649637
     11      H    -1.73499462    -0.10392237     0.30835554
     12      H     2.21711590    -0.66784510    -0.65337841
     13     Sn     2.04807630     4.47577932    -0.20489972
     14     Cl    -0.10394260     4.85406491    -1.11672606
     15     Cl     2.97107183     4.47395792    -2.38159096
     16     Cl     4.21010515     4.22357750     0.72051132
     17     Cl     1.13447065     4.60476647     1.97734583
 
Total System Charge             0.00000
 
 *** GOStep4 ***

 Energy gradients wrt nuclear displacements
 ==========================================

     Atom      Cartesian (a.u./angstrom)
                 X         Y         Z
 ----------------------------------------
     1 H     0.000006 -0.000125 -0.000044
     2 C     0.003933  0.001187  0.002762
     3 C     0.000253  0.000652 -0.000281
     4 C    -0.004475 -0.001127  0.003674
     5 O    -0.000616 -0.003147 -0.000843
     6 H     0.000255  0.000136  0.000028
     7 H    -0.000050 -0.000044  0.000035
     8 C     0.000196 -0.000118  0.000333
     9 H    -0.000065  0.000002 -0.000053
    10 H    -0.000033  0.000001 -0.000001
    11 H    -0.004470 -0.000997 -0.003163
    12 H     0.004333 -0.003842 -0.002835
    13 Sn    0.000625  0.010505  0.000773
    14 Cl    0.000983 -0.000823  0.000461
    15 Cl   -0.000441 -0.000901  0.000746
    16 Cl   -0.000858 -0.000681 -0.000330
    17 Cl    0.000424 -0.000679 -0.001262
 ----------------------------------------
 Mulliken charges used for AMS results%charges...

 dE(predicted):    -0.11772E-03, dE(actual):    -0.17613E-03, Trust radius:    0.200000, all in a.u.
 
----------------------------------------------------------------------
Geometry Convergence after Step   4       (Hartree/Angstrom,Angstrom)
----------------------------------------------------------------------
current energy                               -2.88186637 Hartree
energy change                      -0.00017613     0.00017000    F
constrained gradient max            0.01050659     0.00100000    F
constrained gradient rms            0.00226658     0.00066667    F
gradient max                        0.01050659
gradient rms                        0.00226658
cart. step max                      0.02592788     0.01000000    F
cart. step rms                      0.00853520     0.00666667    F
 
 
--------
Geometry
--------
Formula: C4H7Cl4OSn
Atoms
  Index Symbol   x (angstrom)   y (angstrom)   z (angstrom)
      1      H     0.29663791    -1.71724678     0.33806842
      2      C    -0.85739508     0.07199686     0.96207926
      3      C     0.29852359    -0.62641574     0.35545577
      4      C     1.43457772     0.01933366    -0.23002038
      5      O     1.60154755     1.24976945    -0.28185995
      6      H    -0.68757989     1.15135844     0.95470597
      7      H    -1.41172178    -1.49498983     2.39611203
      8      C    -1.20360361    -0.42022594     2.38132296
      9      H    -0.38044445    -0.22194551     3.07422690
     10      H    -2.09134700     0.10195772     2.75033864
     11      H    -1.73864480    -0.11362528     0.31211326
     12      H     2.21617671    -0.66011368    -0.65139284
     13     Sn     2.05299361     4.45389020    -0.21173502
     14     Cl    -0.09115582     4.87595207    -1.12600319
     15     Cl     2.98351043     4.48128053    -2.38431227
     16     Cl     4.21627138     4.23409485     0.71849036
     17     Cl     1.14126900     4.63069435     1.97023508
 
Total System Charge             0.00000
 
 *** GOStep5 ***

 Energy gradients wrt nuclear displacements
 ==========================================

     Atom      Cartesian (a.u./angstrom)
                 X         Y         Z
 ----------------------------------------
     1 H    -0.000183 -0.000005 -0.000043
     2 C     0.006578  0.001765  0.004109
     3 C     0.000719  0.000010  0.000403
     4 C    -0.008527  0.003505  0.001590
     5 O     0.000100 -0.006488  0.000145
     6 H    -0.000200 -0.000145 -0.000189
     7 H    -0.000017  0.000064 -0.000030
     8 C    -0.000298 -0.000380  0.000447
     9 H     0.000023  0.000072 -0.000146
    10 H     0.000004  0.000018 -0.000032
    11 H    -0.005641 -0.001314 -0.004170
    12 H     0.006587 -0.005250 -0.002455
    13 Sn    0.000980  0.006058 -0.000162
    14 Cl    0.000926  0.000496  0.000404
    15 Cl   -0.000445  0.000363  0.001244
    16 Cl   -0.000953  0.000619 -0.000423
    17 Cl    0.000346  0.000612 -0.000691
 ----------------------------------------
 Mulliken charges used for AMS results%charges...

 dE(predicted):    -0.15406E-03, dE(actual):    -0.19073E-03, Trust radius:    0.200000, all in a.u.
 
----------------------------------------------------------------------
Geometry Convergence after Step   5       (Hartree/Angstrom,Angstrom)
----------------------------------------------------------------------
current energy                               -2.88205711 Hartree
energy change                      -0.00019073     0.00017000    F
constrained gradient max            0.00852902     0.00100000    F
constrained gradient rms            0.00267659     0.00066667    F
gradient max                        0.00852902
gradient rms                        0.00267659
cart. step max                      0.02849433     0.01000000    F
cart. step rms                      0.01229624     0.00666667    F
 
 
--------
Geometry
--------
Formula: C4H7Cl4OSn
Atoms
  Index Symbol   x (angstrom)   y (angstrom)   z (angstrom)
      1      H     0.30227551    -1.71390056     0.33860458
      2      C    -0.85814345     0.06902589     0.96712499
      3      C     0.30253106    -0.62334040     0.36340719
      4      C     1.44203751     0.02724056    -0.21085716
      5      O     1.60422162     1.25769550    -0.26407349
      6      H    -0.68999696     1.14860357     0.97055912
      7      H    -1.42489711    -1.51055488     2.38162506
      8      C    -1.21718802    -0.43567347     2.37849197
      9      H    -0.40054008    -0.24338347     3.08081753
     10      H    -2.10842114     0.08302144     2.74380397
     11      H    -1.73121675    -0.11071757     0.30915464
     12      H     2.21284839    -0.64716363    -0.65109319
     13     Sn     2.05885384     4.43902530    -0.22111262
     14     Cl    -0.08881688     4.88529101    -1.12032199
     15     Cl     2.97525892     4.48028248    -2.40020881
     16     Cl     4.23264372     4.25112493     0.69374819
     17     Cl     1.16816529     4.65918868     1.96815505
 
Total System Charge             0.00000
 
 *** GOStep6 ***

 Energy gradients wrt nuclear displacements
 ==========================================

     Atom      Cartesian (a.u./angstrom)
                 X         Y         Z
 ----------------------------------------
     1 H    -0.000147  0.000143  0.000080
     2 C     0.004716  0.001021  0.002809
     3 C    -0.000544 -0.000399 -0.001220
     4 C    -0.003286  0.003636  0.005629
     5 O    -0.000759 -0.008745 -0.001578
     6 H    -0.000464 -0.000281 -0.000220
     7 H     0.000033  0.000125 -0.000088
     8 C    -0.000547 -0.000247  0.000209
     9 H     0.000080  0.000092 -0.000104
    10 H     0.000063  0.000013 -0.000036
    11 H    -0.003208 -0.000789 -0.002543
    12 H     0.003094 -0.003261 -0.003229
    13 Sn    0.001113  0.002788 -0.000808
    14 Cl    0.000509  0.001527  0.000229
    15 Cl   -0.000240  0.001255  0.001135
    16 Cl   -0.000593  0.001529 -0.000338
    17 Cl    0.000182  0.001593  0.000071
 ----------------------------------------
 Mulliken charges used for AMS results%charges...

 dE(predicted):    -0.10698E-03, dE(actual):    -0.11213E-03, Trust radius:    0.200000, all in a.u.
 
----------------------------------------------------------------------
Geometry Convergence after Step   6       (Hartree/Angstrom,Angstrom)
----------------------------------------------------------------------
current energy                               -2.88216924 Hartree
energy change                      -0.00011213     0.00017000    T
constrained gradient max            0.00874187     0.00100000    F
constrained gradient rms            0.00215948     0.00066667    F
gradient max                        0.00874187
gradient rms                        0.00215948
cart. step max                      0.01164550     0.01000000    F
cart. step rms                      0.00462819     0.00666667    T
 
 
--------
Geometry
--------
Formula: C4H7Cl4OSn
Atoms
  Index Symbol   x (angstrom)   y (angstrom)   z (angstrom)
      1      H     0.30249457    -1.71129320     0.33599713
      2      C    -0.86071517     0.06864065     0.96898998
      3      C     0.29991077    -0.62071064     0.36123954
      4      C     1.43694014     0.03215052    -0.21623469
      5      O     1.59826213     1.26321486    -0.26385725
      6      H    -0.69216792     1.14831879     0.97628244
      7      H    -1.42211447    -1.51552765     2.38041130
      8      C    -1.21493224    -0.44048776     2.37980180
      9      H    -0.39654936    -0.25018129     3.08068064
     10      H    -2.10539922     0.07650240     2.74940277
     11      H    -1.73233107    -0.10820246     0.31479749
     12      H     2.21041037    -0.63786734    -0.64606701
     13     Sn     2.05965690     4.43095530    -0.22384941
     14     Cl    -0.08339465     4.89014464    -1.13196749
     15     Cl     2.98532422     4.47785539    -2.40058324
     16     Cl     4.23188034     4.24780845     0.69960370
     17     Cl     1.16234012     4.66444473     1.96317730
 
Total System Charge             0.00000
 
 *** GOStep7 ***

 Energy gradients wrt nuclear displacements
 ==========================================

     Atom      Cartesian (a.u./angstrom)
                 X         Y         Z
 ----------------------------------------
     1 H    -0.000065  0.000157  0.000039
     2 C     0.001068 -0.000001  0.000440
     3 C    -0.000437 -0.000442 -0.000184
     4 C    -0.000720  0.000913  0.000624
     5 O    -0.000447 -0.009056 -0.000627
     6 H    -0.000365 -0.000168 -0.000126
     7 H     0.000052  0.000090 -0.000056
     8 C    -0.000387 -0.000062 -0.000028
     9 H     0.000074  0.000036 -0.000013
    10 H     0.000067  0.000008 -0.000037
    11 H     0.000012 -0.000040 -0.000127
    12 H     0.000146 -0.000441 -0.000201
    13 Sn    0.001077  0.001816 -0.000827
    14 Cl    0.000068  0.001944 -0.000096
    15 Cl   -0.000075  0.001574  0.000642
    16 Cl   -0.000061  0.001757 -0.000083
    17 Cl   -0.000008  0.001916  0.000660
 ----------------------------------------
 Mulliken charges used for AMS results%charges...

 dE(predicted):    -0.64348E-04, dE(actual):    -0.91982E-04, Trust radius:    0.200000, all in a.u.
 
----------------------------------------------------------------------
Geometry Convergence after Step   7       (Hartree/Angstrom,Angstrom)
----------------------------------------------------------------------
current energy                               -2.88226122 Hartree
energy change                      -0.00009198     0.00017000    T
constrained gradient max            0.00905431     0.00100000    F
constrained gradient rms            0.00144027     0.00066667    F
gradient max                        0.00905431
gradient rms                        0.00144027
cart. step max                      0.01430064     0.01000000    F
cart. step rms                      0.00471946     0.00666667    T
 
 
--------
Geometry
--------
Formula: C4H7Cl4OSn
Atoms
  Index Symbol   x (angstrom)   y (angstrom)   z (angstrom)
      1      H     0.30562083    -1.70668056     0.33409907
      2      C    -0.86253668     0.07014187     0.97001946
      3      C     0.30024789    -0.61599817     0.36142802
      4      C     1.43614464     0.03980547    -0.21550637
      5      O     1.59285034     1.27234650    -0.25852492
      6      H    -0.69113654     1.14962436     0.98428539
      7      H    -1.42332834    -1.52076522     2.37443518
      8      C    -1.21550460    -0.44573192     2.37858591
      9      H    -0.39698588    -0.25948330     3.08035909
     10      H    -2.10567032     0.06957588     2.75144547
     11      H    -1.73106865    -0.10134816     0.31705537
     12      H     2.21074514    -0.62356670    -0.63990471
     13     Sn     2.05992079     4.42470937    -0.22681569
     14     Cl    -0.08401868     4.88748706    -1.13730330
     15     Cl     2.98818917     4.46811355    -2.40558500
     16     Cl     4.23411720     4.24084979     0.69848180
     17     Cl     1.16202916     4.66668557     1.96127023
 
Total System Charge             0.00000
 
 *** GOStep8 ***

 Energy gradients wrt nuclear displacements
 ==========================================

     Atom      Cartesian (a.u./angstrom)
                 X         Y         Z
 ----------------------------------------
     1 H     0.000075  0.000055 -0.000050
     2 C    -0.003416 -0.001054 -0.002362
     3 C    -0.000322 -0.000071  0.000644
     4 C     0.003334 -0.003366 -0.003104
     5 O    -0.000552 -0.008482 -0.000093
     6 H    -0.000012  0.000083  0.000061
     7 H     0.000033 -0.000006  0.000012
     8 C     0.000046  0.000198 -0.000257
     9 H     0.000011 -0.000041  0.000087
    10 H     0.000030  0.000002 -0.000018
    11 H     0.003275  0.000717  0.002436
    12 H    -0.003513  0.002759  0.002343
    13 Sn    0.000876  0.001769 -0.000595
    14 Cl   -0.000911  0.002174 -0.000469
    15 Cl    0.000443  0.001576 -0.000464
    16 Cl    0.000963  0.001686  0.000336
    17 Cl   -0.000361  0.002001  0.001493
 ----------------------------------------
 Mulliken charges used for AMS results%charges...

 dE(predicted):    -0.64886E-04, dE(actual):    -0.99006E-04, Trust radius:    0.200000, all in a.u.
 
----------------------------------------------------------------------
Geometry Convergence after Step   8       (Hartree/Angstrom,Angstrom)
----------------------------------------------------------------------
current energy                               -2.88236022 Hartree
energy change                      -0.00009901     0.00017000    T
constrained gradient max            0.00848140     0.00100000    F
constrained gradient rms            0.00192580     0.00066667    F
gradient max                        0.00848140
gradient rms                        0.00192580
cart. step max                      0.03132836     0.01000000    F
cart. step rms                      0.01075832     0.00666667    F
 
 
--------
Geometry
--------
Formula: C4H7Cl4OSn
Atoms
  Index Symbol   x (angstrom)   y (angstrom)   z (angstrom)
      1      H     0.31284443    -1.69566791     0.32958708
      2      C    -0.86614282     0.07281353     0.97377065
      3      C     0.30101486    -0.60491794     0.36215176
      4      C     1.43425447     0.05933196    -0.21045928
      5      O     1.58047894     1.29462449    -0.24454473
      6      H    -0.69210262     1.15200615     1.00208689
      7      H    -1.42523950    -1.53407771     2.36133221
      8      C    -1.21787092    -0.45887835     2.37673581
      9      H    -0.39987797    -0.28002592     3.08093652
     10      H    -2.10858555     0.05128452     2.75565913
     11      H    -1.73096037    -0.09013794     0.32022175
     12      H     2.21397479    -0.59223834    -0.62981917
     13     Sn     2.06216316     4.41285515    -0.23372024
     14     Cl    -0.08278151     4.88291515    -1.14893389
     15     Cl     2.99343413     4.44542826    -2.41685374
     16     Cl     4.24021567     4.22555623     0.69362314
     17     Cl     1.16479630     4.67489406     1.95605112
 
Total System Charge             0.00000
 
 *** GOStep9 ***

 Energy gradients wrt nuclear displacements
 ==========================================

     Atom      Cartesian (a.u./angstrom)
                 X         Y         Z
 ----------------------------------------
     1 H     0.000251 -0.000172 -0.000099
     2 C    -0.008344 -0.001970 -0.005347
     3 C    -0.000059  0.000503  0.001413
     4 C     0.007503 -0.008599 -0.006883
     5 O    -0.000608 -0.007355  0.000455
     6 H     0.000559  0.000395  0.000339
     7 H    -0.000022 -0.000157  0.000115
     8 C     0.000696  0.000492 -0.000430
     9 H    -0.000099 -0.000132  0.000177
    10 H    -0.000059 -0.000010  0.000040
    11 H     0.006409  0.001391  0.005009
    12 H    -0.007249  0.005995  0.004922
    13 Sn    0.000492  0.001856 -0.000137
    14 Cl   -0.002507  0.002554 -0.001176
    15 Cl    0.001256  0.001541 -0.002360
    16 Cl    0.002746  0.001539  0.001044
    17 Cl   -0.000963  0.002128  0.002918
 ----------------------------------------
 Mulliken charges used for AMS results%charges...

 dE(predicted):    -0.10848E-03, dE(actual):    -0.18102E-03, Trust radius:    0.200000, all in a.u.
 
----------------------------------------------------------------------
Geometry Convergence after Step   9       (Hartree/Angstrom,Angstrom)
----------------------------------------------------------------------
current energy                               -2.88254124 Hartree
energy change                      -0.00018102     0.00017000    F
constrained gradient max            0.00859839     0.00100000    F
constrained gradient rms            0.00334762     0.00066667    F
gradient max                        0.00859839
gradient rms                        0.00334762
cart. step max                      0.04099800     0.01000000    F
cart. step rms                      0.01349217     0.00666667    F
 
 
--------
Geometry
--------
Formula: C4H7Cl4OSn
Atoms
  Index Symbol   x (angstrom)   y (angstrom)   z (angstrom)
      1      H     0.32391550    -1.67985918     0.32398789
      2      C    -0.86965088     0.07686309     0.97823269
      3      C     0.30352476    -0.58922631     0.36349537
      4      C     1.43219294     0.08713909    -0.20303978
      5      O     1.56484363     1.32545770    -0.22750416
      6      H    -0.69664220     1.15606534     1.02044707
      7      H    -1.42407925    -1.54829036     2.34717073
      8      C    -1.22013875    -0.47252342     2.37477801
      9      H    -0.40366857    -0.29910481     3.08196209
     10      H    -2.11312554     0.02977131     2.75918304
     11      H    -1.73173486    -0.08042979     0.32214741
     12      H     2.21973933    -0.55124035    -0.62203313
     13     Sn     2.06463444     4.39792414    -0.24077208
     14     Cl    -0.08251386     4.87176075    -1.16002756
     15     Cl     2.99775130     4.41311244    -2.42956169
     16     Cl     4.24643230     4.19968651     0.68876145
     17     Cl     1.16813518     4.67865924     1.95059766
 
Total System Charge             0.00000
 
 *** GOStep10 ***

 Energy gradients wrt nuclear displacements
 ==========================================

     Atom      Cartesian (a.u./angstrom)
                 X         Y         Z
 ----------------------------------------
     1 H     0.000348 -0.000427 -0.000137
     2 C    -0.010969 -0.002166 -0.006785
     3 C     0.000469  0.000956  0.001808
     4 C     0.008962 -0.012177 -0.008387
     5 O    -0.000450 -0.006046  0.000646
     6 H     0.001071  0.000641  0.000528
     7 H    -0.000099 -0.000301  0.000209
     8 C     0.001273  0.000648 -0.000460
     9 H    -0.000208 -0.000191  0.000207
    10 H    -0.000169 -0.000020  0.000115
    11 H     0.007438  0.001623  0.006043
    12 H    -0.008706  0.007315  0.005945
    13 Sn    0.000035  0.002912  0.000493
    14 Cl   -0.004178  0.002762 -0.001830
    15 Cl    0.002118  0.001251 -0.004508
    16 Cl    0.004653  0.001173  0.001879
    17 Cl   -0.001589  0.002047  0.004236
 ----------------------------------------
 Mulliken charges used for AMS results%charges...

 dE(predicted):    -0.23771E-03, dE(actual):    -0.33269E-03, Trust radius:    0.400000, all in a.u.
 
----------------------------------------------------------------------
Geometry Convergence after Step  10       (Hartree/Angstrom,Angstrom)
----------------------------------------------------------------------
current energy                               -2.88287393 Hartree
energy change                      -0.00033269     0.00017000    F
constrained gradient max            0.01217655     0.00100000    F
constrained gradient rms            0.00417778     0.00066667    F
gradient max                        0.01217655
gradient rms                        0.00417778
cart. step max                      0.07575597     0.01000000    F
cart. step rms                      0.02480520     0.00666667    F
 
 
--------
Geometry
--------
Formula: C4H7Cl4OSn
Atoms
  Index Symbol   x (angstrom)   y (angstrom)   z (angstrom)
      1      H     0.34736727    -1.64729205     0.31468736
      2      C    -0.87349074     0.08722113     0.98406611
      3      C     0.31088614    -0.55724208     0.36533028
      4      C     1.42956878     0.14174959    -0.19020827
      5      O     1.53823365     1.38477490    -0.20054416
      6      H    -0.70870424     1.16712191     1.04372796
      7      H    -1.41438206    -1.56541938     2.32676265
      8      C    -1.22096115    -0.48809501     2.37125727
      9      H    -0.40807000    -0.31735998     3.08294482
     10      H    -2.12008735    -0.00141024     2.76190659
     11      H    -1.73372024    -0.06853050     0.32161725
     12      H     2.23315583    -0.47548438    -0.61558237
     13     Sn     2.06562489     4.36651441    -0.24848187
     14     Cl    -0.08736948     4.83679587    -1.17217546
     15     Cl     2.99966282     4.34842714    -2.44734744
     16     Cl     4.25214331     4.13810419     0.68478386
     17     Cl     1.16975804     4.66588987     1.94508044
 
Total System Charge             0.00000
 
 *** GOStep11 ***

 Energy gradients wrt nuclear displacements
 ==========================================

     Atom      Cartesian (a.u./angstrom)
                 X         Y         Z
 ----------------------------------------
     1 H     0.000357 -0.000847 -0.000144
     2 C    -0.010658 -0.001363 -0.005929
     3 C     0.001729  0.001344  0.001696
     4 C     0.005776 -0.014801 -0.006635
     5 O     0.000283 -0.003734  0.000300
     6 H     0.001715  0.000920  0.000648
     7 H    -0.000238 -0.000493  0.000317
     8 C     0.001967  0.000665 -0.000265
     9 H    -0.000367 -0.000226  0.000156
    10 H    -0.000366 -0.000039  0.000261
    11 H     0.005129  0.001258  0.004684
    12 H    -0.006425  0.005944  0.004662
    13 Sn   -0.000659  0.006894  0.001773
    14 Cl   -0.006637  0.002631 -0.002625
    15 Cl    0.003390  0.000275 -0.007968
    16 Cl    0.007527  0.000146  0.003259
    17 Cl   -0.002523  0.001426  0.005809
 ----------------------------------------
 Mulliken charges used for AMS results%charges...

 dE(predicted):    -0.74940E-03, dE(actual):    -0.88128E-03, Trust radius:    0.800000, all in a.u.
 
----------------------------------------------------------------------
Geometry Convergence after Step  11       (Hartree/Angstrom,Angstrom)
----------------------------------------------------------------------
current energy                               -2.88375521 Hartree
energy change                      -0.00088128     0.00017000    F
constrained gradient max            0.01479969     0.00100000    F
constrained gradient rms            0.00424898     0.00066667    F
gradient max                        0.01479969
gradient rms                        0.00424898
cart. step max                      0.13949207     0.01000000    F
cart. step rms                      0.04802261     0.00666667    F
 
 
--------
Geometry
--------
Formula: C4H7Cl4OSn
Atoms
  Index Symbol   x (angstrom)   y (angstrom)   z (angstrom)
      1      H     0.39557016    -1.58051989     0.29974668
      2      C    -0.87509213     0.11164715     0.99076486
      3      C     0.32932412    -0.49262181     0.36805524
      4      C     1.42728104     0.24689233    -0.16769896
      5      O     1.49457264     1.49669407    -0.15752715
      6      H    -0.73589432     1.19373644     1.07017980
      7      H    -1.38489168    -1.58179486     2.29644480
      8      C    -1.21741004    -0.50120744     2.36391880
      9      H    -0.41337577    -0.32448944     3.08373014
     10      H    -2.13083284    -0.04483353     2.75854126
     11      H    -1.73501652    -0.05469861     0.31282764
     12      H     2.26135198    -0.33599231    -0.61419400
     13     Sn     2.05949457     4.29301558    -0.25395938
     14     Cl    -0.10498077     4.75020930    -1.17841608
     15     Cl     2.99016967     4.22231741    -2.46933254
     16     Cl     4.25145374     4.00409477     0.68217889
     17     Cl     1.16789162     4.61331623     1.94256502
 
Total System Charge             0.00000
 
 *** GOStep12 ***

 Energy gradients wrt nuclear displacements
 ==========================================

     Atom      Cartesian (a.u./angstrom)
                 X         Y         Z
 ----------------------------------------
     1 H     0.000082 -0.001462 -0.000045
     2 C    -0.003017  0.001627  0.000569
     3 C     0.004312  0.001194  0.000268
     4 C    -0.008500 -0.014697  0.003044
     5 O     0.002498  0.000431 -0.001364
     6 H     0.002327  0.001093  0.000477
     7 H    -0.000467 -0.000712  0.000394
     8 C     0.002523  0.000315  0.000392
     9 H    -0.000555 -0.000186 -0.000081
    10 H    -0.000684 -0.000106  0.000504
    11 H    -0.004370 -0.000549 -0.002226
    12 H     0.004643 -0.000961 -0.002127
    13 Sn   -0.001435  0.016554  0.003940
    14 Cl   -0.009543  0.001668 -0.003200
    15 Cl    0.004891 -0.001902 -0.012551
    16 Cl    0.010949 -0.002003  0.005066
    17 Cl   -0.003654 -0.000303  0.006943
 ----------------------------------------
 Mulliken charges used for AMS results%charges...

 dE(predicted):    -0.18723E-02, dE(actual):    -0.20321E-02, Trust radius:    1.000000, all in a.u.
 
----------------------------------------------------------------------
Geometry Convergence after Step  12       (Hartree/Angstrom,Angstrom)
----------------------------------------------------------------------
current energy                               -2.88578728 Hartree
energy change                      -0.00203208     0.00017000    F
constrained gradient max            0.01655434     0.00100000    F
constrained gradient rms            0.00484842     0.00066667    F
gradient max                        0.01655434
gradient rms                        0.00484842
cart. step max                      0.18138568     0.01000000    F
cart. step rms                      0.06162298     0.00666667    F
 
 
--------
Geometry
--------
Formula: C4H7Cl4OSn
Atoms
  Index Symbol   x (angstrom)   y (angstrom)   z (angstrom)
      1      H     0.45517174    -1.49378930     0.28053043
      2      C    -0.87331753     0.14622027     0.99564980
      3      C     0.35303372    -0.40988087     0.36872537
      4      C     1.42464894     0.37583874    -0.14282997
      5      O     1.43986988     1.63354886    -0.10690131
      6      H    -0.76561740     1.22990063     1.09680159
      7      H    -1.34132488    -1.59241869     2.25962469
      8      C    -1.20590851    -0.50911207     2.35249465
      9      H    -0.41193029    -0.32373842     3.08072297
     10      H    -2.13524600    -0.08942375     2.75126924
     11      H    -1.73352798    -0.03428165     0.29948137
     12      H     2.29509445    -0.16274008    -0.61349637
     13     Sn     2.04469743     4.19247278    -0.25543410
     14     Cl    -0.13071246     4.63597178    -1.17983726
     15     Cl     2.97246029     4.05363667    -2.48614027
     16     Cl     4.23646078     3.82270909     0.68636869
     17     Cl     1.15576330     4.54085141     1.94079550
 
Total System Charge             0.00000
 
 *** GOStep13 ***

 Energy gradients wrt nuclear displacements
 ==========================================

     Atom      Cartesian (a.u./angstrom)
                 X         Y         Z
 ----------------------------------------
     1 H    -0.000234 -0.002249  0.000084
     2 C     0.005557  0.005244  0.008498
     3 C     0.007364  0.000681 -0.001355
     4 C    -0.026116 -0.018171  0.014751
     5 O     0.005450  0.008616 -0.003190
     6 H     0.003090  0.001389  0.000340
     7 H    -0.000699 -0.000963  0.000463
     8 C     0.003206  0.000030  0.001098
     9 H    -0.000770 -0.000142 -0.000347
    10 H    -0.001067 -0.000207  0.000825
    11 H    -0.015372 -0.002922 -0.010629
    12 H     0.018481 -0.008122 -0.010601
    13 Sn   -0.001559  0.030004  0.005947
    14 Cl   -0.011532 -0.000339 -0.002850
    15 Cl    0.005967 -0.004879 -0.016183
    16 Cl    0.013050 -0.004987  0.006372
    17 Cl   -0.004816 -0.002984  0.006777
 ----------------------------------------
 Mulliken charges used for AMS results%charges...
 Rebuilding optimization coordinates

 dE(predicted):    -0.24767E-02, dE(actual):    -0.26064E-02, Trust radius:    1.000000, all in a.u.
 
----------------------------------------------------------------------
Geometry Convergence after Step  13       (Hartree/Angstrom,Angstrom)
----------------------------------------------------------------------
current energy                               -2.88839364 Hartree
energy change                      -0.00260635     0.00017000    F
constrained gradient max            0.03000473     0.00100000    F
constrained gradient rms            0.00902671     0.00066667    F
gradient max                        0.03000473
gradient rms                        0.00902671
cart. step max                      0.20548868     0.01000000    F
cart. step rms                      0.06449119     0.00666667    F
 
 
--------
Geometry
--------
Formula: C4H7Cl4OSn
Atoms
  Index Symbol   x (angstrom)   y (angstrom)   z (angstrom)
      1      H     0.51826306    -1.40226705     0.26385517
      2      C    -0.86809481     0.18333305     0.99688114
      3      C     0.37893948    -0.32384489     0.36810378
      4      C     1.42181959     0.50490173    -0.12208599
      5      O     1.38046202     1.76733535    -0.06722253
      6      H    -0.79604087     1.26803820     1.11417850
      7      H    -1.28686763    -1.59357626     2.22700447
      8      C    -1.18717577    -0.50824166     2.33988392
      9      H    -0.40396220    -0.30856878     3.07548364
     10      H    -2.13236450    -0.12647017     2.73989520
     11      H    -1.72748420    -0.01730494     0.28324286
     12      H     2.32739615     0.01278058    -0.61346097
     13     Sn     2.02338631     4.08486271    -0.25097572
     14     Cl    -0.15854306     4.52397257    -1.17636021
     15     Cl     2.94882623     3.87511399    -2.49233344
     16     Cl     4.20498126     3.61722041     0.69916404
     17     Cl     1.13607443     4.45848056     1.94257115
 
Total System Charge             0.00000
 
 *** GOStep14 ***

 Energy gradients wrt nuclear displacements
 ==========================================

     Atom      Cartesian (a.u./angstrom)
                 X         Y         Z
 ----------------------------------------
     1 H    -0.000516 -0.002923  0.000113
     2 C     0.012999  0.008818  0.016130
     3 C     0.010282  0.000435 -0.002968
     4 C    -0.042507 -0.019420  0.026564
     5 O     0.008936  0.018382 -0.005403
     6 H     0.003680  0.001632  0.000208
     7 H    -0.000864 -0.001189  0.000492
     8 C     0.003786 -0.000118  0.001678
     9 H    -0.000934 -0.000107 -0.000573
    10 H    -0.001376 -0.000330  0.001111
    11 H    -0.025142 -0.005550 -0.018559
    12 H     0.031893 -0.013376 -0.018986
    13 Sn   -0.001602  0.040097  0.007992
    14 Cl   -0.011989 -0.003431 -0.001617
    15 Cl    0.006177 -0.008051 -0.018072
    16 Cl    0.012784 -0.008317  0.006863
    17 Cl   -0.005606 -0.006553  0.005027
 ----------------------------------------
 Mulliken charges used for AMS results%charges...

 dE(predicted):    -0.58778E-02, dE(actual):    -0.21919E-02, Trust radius:    1.000000, all in a.u.
 
----------------------------------------------------------------------
Geometry Convergence after Step  14       (Hartree/Angstrom,Angstrom)
----------------------------------------------------------------------
current energy                               -2.89058555 Hartree
energy change                      -0.00219192     0.00017000    F
constrained gradient max            0.04250480     0.00100000    F
constrained gradient rms            0.01344005     0.00066667    F
gradient max                        0.04250480
gradient rms                        0.01344005
cart. step max                      0.20687453     0.01000000    F
cart. step rms                      0.06441981     0.00666667    F
 
 
--------
Geometry
--------
Formula: C4H7Cl4OSn
Atoms
  Index Symbol   x (angstrom)   y (angstrom)   z (angstrom)
      1      H     0.57869555    -1.31063873     0.24525709
      2      C    -0.86034864     0.22060431     0.99862564
      3      C     0.40474710    -0.23891262     0.36733248
      4      C     1.41899100     0.63071018    -0.09991708
      5      O     1.32215181     1.89736677    -0.02303697
      6      H    -0.81850350     1.30430726     1.13671068
      7      H    -1.23500315    -1.59579250     2.18752473
      8      C    -1.16643887    -0.51069555     2.32449595
      9      H    -0.39322784    -0.30370695     3.06812128
     10      H    -2.12456444    -0.16531778     2.72736945
     11      H    -1.71831617     0.00709942     0.26767499
     12      H     2.35557972     0.18728701    -0.61064249
     13     Sn     2.00053620     3.97985375    -0.24736380
     14     Cl    -0.18623546     4.42479870    -1.17404166
     15     Cl     2.92091589     3.67892710    -2.49590344
     16     Cl     4.16529217     3.41034587     0.71494972
     17     Cl     1.11534411     4.39952915     1.94066845
 
Total System Charge             0.00000
 
 *** GOStep15 ***

 Energy gradients wrt nuclear displacements
 ==========================================

     Atom      Cartesian (a.u./angstrom)
                 X         Y         Z
 ----------------------------------------
     1 H    -0.000845 -0.003846  0.000122
     2 C     0.017960  0.012028  0.022365
     3 C     0.012073 -0.001491 -0.003807
     4 C    -0.054617 -0.020314  0.036167
     5 O     0.016169  0.046606 -0.008211
     6 H     0.004550  0.002001  0.000113
     7 H    -0.001046 -0.001493  0.000547
     8 C     0.004629 -0.000149  0.002174
     9 H    -0.001152 -0.000097 -0.000762
    10 H    -0.001710 -0.000509  0.001429
    11 H    -0.033055 -0.007922 -0.025244
    12 H     0.044087 -0.016983 -0.026628
    13 Sn   -0.006197  0.032972  0.010676
    14 Cl   -0.011391 -0.007166  0.000621
    15 Cl    0.006060 -0.011279 -0.019076
    16 Cl    0.011143 -0.011727  0.006910
    17 Cl   -0.006656 -0.010630  0.002603
 ----------------------------------------
 Mulliken charges used for AMS results%charges...

 dE(predicted):    -0.27857E-02, dE(actual):     0.84516E-03, Trust radius:    0.104651, all in a.u.
 
----------------------------------------------------------------------
Geometry Convergence after Step  15       (Hartree/Angstrom,Angstrom)
----------------------------------------------------------------------
current energy                               -2.88974039 Hartree
energy change                       0.00084516     0.00017000    F
constrained gradient max            0.05461615     0.00100000    F
constrained gradient rms            0.01747149     0.00066667    F
gradient max                        0.05461615
gradient rms                        0.01747149
cart. step max                      0.07985955     0.01000000    F
cart. step rms                      0.02207426     0.00666667    F
 
 
--------
Geometry
--------
Formula: C4H7Cl4OSn
Atoms
  Index Symbol   x (angstrom)   y (angstrom)   z (angstrom)
      1      H     0.57769902    -1.32047036     0.25160837
      2      C    -0.86964136     0.19865194     1.00403245
      3      C     0.39624125    -0.25052640     0.37286255
      4      C     1.40630317     0.62141675    -0.09674055
      5      O     1.29722876     1.88330381    -0.01803815
      6      H    -0.84104998     1.28253524     1.14115903
      7      H    -1.23081920    -1.61924795     2.19363149
      8      C    -1.17285542    -0.53375481     2.32973405
      9      H    -0.40331794    -0.31828112     3.07497760
     10      H    -2.13500232    -0.19554946     2.72809580
     11      H    -1.72285536    -0.02426006     0.27203828
     12      H     2.34290936     0.18330644    -0.60459176
     13     Sn     2.01995280     4.00265511    -0.25914623
     14     Cl    -0.15052824     4.50465825    -1.19086127
     15     Cl     2.93377335     3.69029790    -2.50280477
     16     Cl     4.17992556     3.43203267     0.70724149
     17     Cl     1.15165203     4.47899741     1.92462662
 
Total System Charge             0.00000
 
 *** GOStep16 ***

 Energy gradients wrt nuclear displacements
 ==========================================

     Atom      Cartesian (a.u./angstrom)
                 X         Y         Z
 ----------------------------------------
     1 H    -0.000328 -0.002662 -0.000004
     2 C     0.019516  0.011822  0.021786
     3 C     0.010395  0.002845 -0.003503
     4 C    -0.051630 -0.019556  0.034222
     5 O     0.012053  0.030454 -0.007097
     6 H     0.003921  0.001481  0.000169
     7 H    -0.000941 -0.001170  0.000461
     8 C     0.004002 -0.000550  0.002343
     9 H    -0.000953  0.000013 -0.000757
    10 H    -0.001390 -0.000402  0.001023
    11 H    -0.031709 -0.008177 -0.024835
    12 H     0.041621 -0.015534 -0.025124
    13 Sn   -0.003258  0.035161  0.008577
    14 Cl   -0.011731 -0.005016 -0.000210
    15 Cl    0.005475 -0.010044 -0.018347
    16 Cl    0.011549 -0.010329  0.007286
    17 Cl   -0.006593 -0.008334  0.004011
 ----------------------------------------
 Mulliken charges used for AMS results%charges...

 dE(predicted):    -0.16456E-02, dE(actual):    -0.21867E-02, Trust radius:    0.209301, all in a.u.
 
----------------------------------------------------------------------
Geometry Convergence after Step  16       (Hartree/Angstrom,Angstrom)
----------------------------------------------------------------------
current energy                               -2.89192712 Hartree
energy change                      -0.00218673     0.00017000    F
constrained gradient max            0.05162888     0.00100000    F
constrained gradient rms            0.01607977     0.00066667    F
gradient max                        0.05162888
gradient rms                        0.01607977
cart. step max                      0.21504289     0.01000000    F
cart. step rms                      0.06776041     0.00666667    F
 
 
--------
Geometry
--------
Formula: C4H7Cl4OSn
Atoms
  Index Symbol   x (angstrom)   y (angstrom)   z (angstrom)
      1      H     0.61372936    -1.29164290     0.26079169
      2      C    -0.89998415     0.14689500     1.02103765
      3      C     0.38348862    -0.23324866     0.39205130
      4      C     1.35774543     0.68205712    -0.06715175
      5      O     1.18312449     1.93345568     0.02772724
      6      H    -0.93029102     1.22842559     1.17070215
      7      H    -1.18456720    -1.69927862     2.18582210
      8      C    -1.18119311    -0.61459143     2.33497369
      9      H    -0.43016624    -0.36967163     3.09025631
     10      H    -2.16238072    -0.32620881     2.72414896
     11      H    -1.73238557    -0.10992053     0.27909216
     12      H     2.30887134     0.29286471    -0.57134051
     13     Sn     2.06892033     4.02057045    -0.29553194
     14     Cl    -0.04244267     4.69223264    -1.25252468
     15     Cl     2.95747638     3.59714713    -2.52262454
     16     Cl     4.19970490     3.37263934     0.68510367
     17     Cl     1.26996529     4.69404031     1.86529153
 
Total System Charge             0.00000
 
 *** GOStep17 ***

 Energy gradients wrt nuclear displacements
 ==========================================

     Atom      Cartesian (a.u./angstrom)
                 X         Y         Z
 ----------------------------------------
     1 H     0.000065 -0.001093 -0.000127
     2 C     0.021923  0.011444  0.020524
     3 C     0.005810  0.008202 -0.002061
     4 C    -0.044830 -0.019686  0.030598
     5 O     0.006422  0.014685 -0.005584
     6 H     0.003175  0.000517  0.000253
     7 H    -0.000812 -0.000610  0.000323
     8 C     0.002940 -0.001161  0.002647
     9 H    -0.000658  0.000179 -0.000753
    10 H    -0.000847 -0.000326  0.000386
    11 H    -0.028979 -0.009192 -0.024347
    12 H     0.037515 -0.011851 -0.022684
    13 Sn    0.001213  0.031933  0.004425
    14 Cl   -0.011746 -0.001562 -0.001311
    15 Cl    0.004049 -0.008523 -0.016138
    16 Cl    0.011389 -0.008490  0.007546
    17 Cl   -0.006628 -0.004464  0.006303
 ----------------------------------------
 Mulliken charges used for AMS results%charges...

 dE(predicted):    -0.41139E-02, dE(actual):    -0.41386E-02, Trust radius:    0.209301, all in a.u.
 Residual max backtransformation error   0.9480E-05
 
----------------------------------------------------------------------
Geometry Convergence after Step  17       (Hartree/Angstrom,Angstrom)
----------------------------------------------------------------------
current energy                               -2.89606572 Hartree
energy change                      -0.00413860     0.00017000    F
constrained gradient max            0.04482787     0.00100000    F
constrained gradient rms            0.01418752     0.00066667    F
gradient max                        0.04482787
gradient rms                        0.01418752
cart. step max                      0.21600311     0.01000000    F
cart. step rms                      0.07948336     0.00666667    F
 
 
--------
Geometry
--------
Formula: C4H7Cl4OSn
Atoms
  Index Symbol   x (angstrom)   y (angstrom)   z (angstrom)
      1      H     0.66364047    -1.23672868     0.26796988
      2      C    -0.93457716     0.09328084     1.03763368
      3      C     0.36995016    -0.19655174     0.41310866
      4      C     1.29300543     0.77944533    -0.02749367
      5      O     1.04758959     2.01320286     0.08461604
      6      H    -1.03859196     1.16750532     1.20337942
      7      H    -1.11618056    -1.78396949     2.17026817
      8      C    -1.18296550    -0.70433717     2.33627314
      9      H    -0.45679509    -0.42420635     3.10387358
     10      H    -2.18432162    -0.48250646     2.71601387
     11      H    -1.73783097    -0.20315207     0.28473227
     12      H     2.26004953     0.45404551    -0.52580189
     13     Sn     2.11069467     4.01502149    -0.32988584
     14     Cl     0.09221474     4.87110092    -1.33347931
     15     Cl     2.96823413     3.46543045    -2.53271212
     16     Cl     4.20195974     3.27814120     0.67026893
     17     Cl     1.42353989     4.91004342     1.78906019
 
Total System Charge             0.00000
 
 *** GOStep18 ***

 Energy gradients wrt nuclear displacements
 ==========================================

     Atom      Cartesian (a.u./angstrom)
                 X         Y         Z
 ----------------------------------------
     1 H    -0.000017 -0.000424 -0.000047
     2 C     0.022058  0.010769  0.018411
     3 C     0.002246  0.009758 -0.001137
     4 C    -0.039298 -0.011391  0.027397
     5 O     0.002924 -0.002203 -0.004670
     6 H     0.002492 -0.000167  0.000275
     7 H    -0.000672 -0.000093  0.000172
     8 C     0.001958 -0.001529  0.002539
     9 H    -0.000371  0.000348 -0.000660
    10 H    -0.000341 -0.000236 -0.000021
    11 H    -0.024714 -0.009578 -0.022542
    12 H     0.031810 -0.006765 -0.019361
    13 Sn    0.004085  0.023797  0.000852
    14 Cl   -0.010315  0.001341 -0.002734
    15 Cl    0.002635 -0.006356 -0.013454
    16 Cl    0.010743 -0.006091  0.007519
    17 Cl   -0.005223 -0.001180  0.007462
 ----------------------------------------
 Mulliken charges used for AMS results%charges...

 dE(predicted):    -0.47002E-02, dE(actual):    -0.41021E-02, Trust radius:    0.209301, all in a.u.
 
----------------------------------------------------------------------
Geometry Convergence after Step  18       (Hartree/Angstrom,Angstrom)
----------------------------------------------------------------------
current energy                               -2.90016782 Hartree
energy change                      -0.00410210     0.00017000    F
constrained gradient max            0.03929611     0.00100000    F
constrained gradient rms            0.01203568     0.00066667    F
gradient max                        0.03929611
gradient rms                        0.01203568
cart. step max                      0.21125811     0.01000000    F
cart. step rms                      0.09338024     0.00666667    F
 
 
--------
Geometry
--------
Formula: C4H7Cl4OSn
Atoms
  Index Symbol   x (angstrom)   y (angstrom)   z (angstrom)
      1      H     0.72969642    -1.14894766     0.27369392
      2      C    -0.96909663     0.04055651     1.05215303
      3      C     0.35813164    -0.13685391     0.43619295
      4      C     1.21267295     0.91465972     0.02224123
      5      O     0.88515779     2.12796931     0.15475171
      6      H    -1.16027355     1.09955637     1.23845103
      7      H    -1.02338709    -1.86810226     2.14166302
      8      C    -1.17464395    -0.80088632     2.32972154
      9      H    -0.48209916    -0.48417348     3.11431248
     10      H    -2.19486103    -0.66307944     2.69809332
     11      H    -1.72966319    -0.29610381     0.29034799
     12      H     2.19044499     0.66530362    -0.46225101
     13     Sn     2.14214619     3.99318191    -0.35986455
     14     Cl     0.25350646     5.03382816    -1.42979065
     15     Cl     2.95844819     3.28321532    -2.52218979
     16     Cl     4.17415234     3.13687512     0.66044467
     17     Cl     1.60928311     5.11876623     1.68985413
 
Total System Charge             0.00000
 
 *** GOStep19 ***

 Energy gradients wrt nuclear displacements
 ==========================================

     Atom      Cartesian (a.u./angstrom)
                 X         Y         Z
 ----------------------------------------
     1 H    -0.000288 -0.000413  0.000107
     2 C     0.015732  0.007968  0.012552
     3 C    -0.000273  0.005199 -0.000554
     4 C    -0.023942 -0.005367  0.018571
     5 O    -0.003952 -0.007024 -0.001688
     6 H     0.001626 -0.000227  0.000169
     7 H    -0.000502  0.000118  0.000055
     8 C     0.000925 -0.001281  0.001740
     9 H    -0.000174  0.000446 -0.000483
    10 H    -0.000050 -0.000157 -0.000083
    11 H    -0.015539 -0.007340 -0.015469
    12 H     0.019862 -0.001403 -0.012695
    13 Sn    0.006639  0.013252 -0.002246
    14 Cl   -0.007873  0.003111 -0.003517
    15 Cl    0.001839 -0.004158 -0.009576
    16 Cl    0.009550 -0.003850  0.005950
    17 Cl   -0.003578  0.001127  0.007168
 ----------------------------------------
 Mulliken charges used for AMS results%charges...
 Rebuilding optimization coordinates

 dE(predicted):    -0.36838E-02, dE(actual):    -0.33941E-02, Trust radius:    0.418602, all in a.u.
 Residual max backtransformation error   0.2181E-04
 
----------------------------------------------------------------------
Geometry Convergence after Step  19       (Hartree/Angstrom,Angstrom)
----------------------------------------------------------------------
current energy                               -2.90356190 Hartree
energy change                      -0.00339409     0.00017000    F
constrained gradient max            0.02393935     0.00100000    F
constrained gradient rms            0.00797078     0.00066667    F
gradient max                        0.02393935
gradient rms                        0.00797078
cart. step max                      0.21055833     0.01000000    F
cart. step rms                      0.08101175     0.00666667    F
 
 
--------
Geometry
--------
Formula: C4H7Cl4OSn
Atoms
  Index Symbol   x (angstrom)   y (angstrom)   z (angstrom)
      1      H     0.75224354    -1.06550036     0.24175280
      2      C    -0.98613307     0.03088523     1.06885571
      3      C     0.35242648    -0.07493811     0.45921804
      4      C     1.18574800     1.01970408     0.11365645
      5      O     0.84431709     2.21795965     0.32492464
      6      H    -1.21376920     1.07088731     1.31389146
      7      H    -1.00100289    -1.93986130     2.04004438
      8      C    -1.18585330    -0.89081259     2.29013004
      9      H    -0.51352834    -0.60459720     3.10369651
     10      H    -2.21459048    -0.80340696     2.64987511
     11      H    -1.72035339    -0.27818749     0.28499858
     12      H     2.16393827     0.81430864    -0.36406899
     13     Sn     2.14943709     3.96618496    -0.38232284
     14     Cl     0.30344780     5.02526277    -1.49546689
     15     Cl     2.87621213     3.07265699    -2.49990836
     16     Cl     4.19330496     3.12998340     0.62255129
     17     Cl     1.79377078     5.32523638     1.55599708
 
Total System Charge             0.00000
 
 *** GOStep20 ***

 Energy gradients wrt nuclear displacements
 ==========================================

     Atom      Cartesian (a.u./angstrom)
                 X         Y         Z
 ----------------------------------------
     1 H    -0.000193 -0.000265  0.000202
     2 C     0.009448  0.004577  0.007901
     3 C    -0.000105  0.001540 -0.001656
     4 C    -0.014445  0.002821  0.008119
     5 O    -0.005330 -0.009946  0.004522
     6 H     0.000474 -0.000289  0.000015
     7 H    -0.000274  0.000153 -0.000029
     8 C     0.000072 -0.001040  0.000978
     9 H    -0.000096  0.000381 -0.000314
    10 H     0.000011 -0.000062 -0.000039
    11 H    -0.008250 -0.003853 -0.008941
    12 H     0.011188  0.001615 -0.005382
    13 Sn    0.003738  0.002888 -0.006538
    14 Cl   -0.004659  0.003256 -0.003771
    15 Cl    0.001121 -0.002201 -0.005940
    16 Cl    0.008609 -0.001229  0.004550
    17 Cl   -0.001308  0.001653  0.006322
 ----------------------------------------
 Mulliken charges used for AMS results%charges...

 dE(predicted):    -0.13409E-02, dE(actual):    -0.10266E-02, Trust radius:    0.418602, all in a.u.
 Oscillation detected, halving the step
 Persistent oscillations may indicate discontinuity in the atomic forces.
 
----------------------------------------------------------------------
Geometry Convergence after Step  20       (Hartree/Angstrom,Angstrom)
----------------------------------------------------------------------
current energy                               -2.90458853 Hartree
energy change                      -0.00102662     0.00017000    F
constrained gradient max            0.01444424     0.00100000    F
constrained gradient rms            0.00489952     0.00066667    F
gradient max                        0.01444424
gradient rms                        0.00489952
cart. step max                      0.09183348     0.01000000    F
cart. step rms                      0.03503783     0.00666667    F
 
 
--------
Geometry
--------
Formula: C4H7Cl4OSn
Atoms
  Index Symbol   x (angstrom)   y (angstrom)   z (angstrom)
      1      H     0.76701471    -1.08029397     0.26758039
      2      C    -0.98468222     0.02165266     1.05885096
      3      C     0.35502343    -0.08815112     0.45212288
      4      C     1.17471846     1.00387655     0.06811037
      5      O     0.81788991     2.20253328     0.23309116
      6      H    -1.23001246     1.06617713     1.26404465
      7      H    -0.97022009    -1.91221320     2.10105870
      8      C    -1.17180530    -0.85780810     2.31270779
      9      H    -0.50497248    -0.53180028     3.11580026
     10      H    -2.20223014    -0.77289436     2.66809680
     11      H    -1.71335317    -0.32792016     0.28668052
     12      H     2.15516872     0.79257972    -0.40486438
     13     Sn     2.14035615     3.95935588    -0.36802469
     14     Cl     0.32699422     5.07507457    -1.47691682
     15     Cl     2.90864268     3.15200939    -2.50466537
     16     Cl     4.15522658     3.06858798     0.64364918
     17     Cl     1.75585645     5.24499942     1.61050262
 
Total System Charge             0.00000
 
 *** GOStep21 ***

 Energy gradients wrt nuclear displacements
 ==========================================

     Atom      Cartesian (a.u./angstrom)
                 X         Y         Z
 ----------------------------------------
     1 H    -0.000186 -0.000140  0.000029
     2 C     0.009452  0.005444  0.008313
     3 C     0.000790  0.001475 -0.001189
     4 C    -0.016733  0.006576  0.011243
     5 O    -0.003097 -0.012822  0.000101
     6 H     0.000032 -0.000366 -0.000177
     7 H    -0.000210  0.000128 -0.000033
     8 C     0.000015 -0.001114  0.000795
     9 H    -0.000074  0.000344 -0.000276
    10 H     0.000016  0.000008 -0.000061
    11 H    -0.008199 -0.004241 -0.008818
    12 H     0.011442  0.001138 -0.006891
    13 Sn    0.003460  0.002519 -0.002412
    14 Cl   -0.004133  0.003014 -0.003685
    15 Cl    0.000952 -0.001775 -0.005898
    16 Cl    0.007587 -0.001127  0.003980
    17 Cl   -0.001112  0.000938  0.004978
 ----------------------------------------
 Mulliken charges used for AMS results%charges...

 dE(predicted):    -0.31901E-03, dE(actual):    -0.25137E-03, Trust radius:    0.418602, all in a.u.
 
----------------------------------------------------------------------
Geometry Convergence after Step  21       (Hartree/Angstrom,Angstrom)
----------------------------------------------------------------------
current energy                               -2.90483990 Hartree
energy change                      -0.00025137     0.00017000    F
constrained gradient max            0.01673114     0.00100000    F
constrained gradient rms            0.00517400     0.00066667    F
gradient max                        0.01673114
gradient rms                        0.00517400
cart. step max                      0.21128888     0.01000000    F
cart. step rms                      0.08515722     0.00666667    F
 
 
--------
Geometry
--------
Formula: C4H7Cl4OSn
Atoms
  Index Symbol   x (angstrom)   y (angstrom)   z (angstrom)
      1      H     0.68000492    -1.15257674     0.20756532
      2      C    -0.95766560     0.08252478     1.06957119
      3      C     0.36013894    -0.13270633     0.42389199
      4      C     1.25754623     0.89675009     0.02260846
      5      O     1.02087807     2.12799821     0.21308028
      6      H    -1.10989771     1.14128864     1.29767029
      7      H    -1.07778326    -1.86938307     2.06543346
      8      C    -1.18532781    -0.80676519     2.30766855
      9      H    -0.47342035    -0.56506934     3.10219142
     10      H    -2.19556697    -0.64602253     2.69540145
     11      H    -1.71821609    -0.17972661     0.32756090
     12      H     2.17995807     0.58129084    -0.47808699
     13     Sn     2.09440311     3.96264498    -0.32179124
     14     Cl     0.18494830     4.86403184    -1.42414605
     15     Cl     2.96191374     3.28014177    -2.45350932
     16     Cl     4.16304877     3.22643703     0.65170595
     17     Cl     1.59465314     5.20490702     1.62100934
 
Total System Charge             0.00000
 
 *** GOStep22 ***

 Energy gradients wrt nuclear displacements
 ==========================================

     Atom      Cartesian (a.u./angstrom)
                 X         Y         Z
 ----------------------------------------
     1 H    -0.000311 -0.001100 -0.000565
     2 C    -0.012473 -0.001072 -0.004237
     3 C     0.006968 -0.012139 -0.003283
     4 C    -0.002321 -0.002021  0.002501
     5 O     0.013769  0.019921 -0.006389
     6 H    -0.002156  0.000929 -0.000875
     7 H     0.000631 -0.000693 -0.000076
     8 C    -0.000088  0.000988 -0.001563
     9 H     0.000006 -0.000613  0.000345
    10 H    -0.000541  0.000131  0.000524
    11 H     0.008090  0.003449  0.008714
    12 H    -0.003833 -0.004404  0.001458
    13 Sn   -0.012545  0.004002  0.010934
    14 Cl    0.004091 -0.000391  0.000332
    15 Cl    0.000225 -0.002075  0.001013
    16 Cl    0.000183  0.000263 -0.003386
    17 Cl    0.000308 -0.005174 -0.005446
 ----------------------------------------
 Mulliken charges used for AMS results%charges...

 dE(predicted):    -0.20555E-02, dE(actual):     0.54047E-03, Trust radius:    0.095127, all in a.u.
 
----------------------------------------------------------------------
Geometry Convergence after Step  22       (Hartree/Angstrom,Angstrom)
----------------------------------------------------------------------
current energy                               -2.90429943 Hartree
energy change                       0.00054047     0.00017000    F
constrained gradient max            0.01992119     0.00100000    F
constrained gradient rms            0.00561951     0.00066667    F
gradient max                        0.01992119
gradient rms                        0.00561951
cart. step max                      0.08173531     0.01000000    F
cart. step rms                      0.02949840     0.00666667    F
 
 
--------
Geometry
--------
Formula: C4H7Cl4OSn
Atoms
  Index Symbol   x (angstrom)   y (angstrom)   z (angstrom)
      1      H     0.69837780    -1.11840376     0.20608722
      2      C    -0.96361171     0.07071341     1.07193251
      3      C     0.35558405    -0.10817205     0.42914401
      4      C     1.23177149     0.93902813     0.03976004
      5      O     0.95756785     2.15478168     0.24650772
      6      H    -1.13776501     1.12327307     1.30935123
      7      H    -1.04745598    -1.88979542     2.05555585
      8      C    -1.17713815    -0.83160093     2.30369587
      9      H    -0.47267241    -0.57787641     3.10101113
     10      H    -2.19159979    -0.69345210     2.68773703
     11      H    -1.72133269    -0.20456434     0.31852391
     12      H     2.17005042     0.66302615    -0.46148943
     13     Sn     2.10559792     3.94873296    -0.33502535
     14     Cl     0.22406989     4.90612013    -1.44823470
     15     Cl     2.94415290     3.20208443    -2.45702971
     16     Cl     4.15273850     3.18010727     0.67097247
     17     Cl     1.65128037     5.25176316     1.58932522
 
Total System Charge             0.00000
 
 *** GOStep23 ***

 Energy gradients wrt nuclear displacements
 ==========================================

     Atom      Cartesian (a.u./angstrom)
                 X         Y         Z
 ----------------------------------------
     1 H    -0.000132  0.000187 -0.000474
     2 C    -0.002803  0.000306  0.000200
     3 C     0.003469 -0.003073 -0.001404
     4 C    -0.006060  0.005028  0.004170
     5 O     0.008651  0.001470 -0.004064
     6 H    -0.000973  0.000162 -0.000643
     7 H     0.000322 -0.000142 -0.000048
     8 C    -0.000307  0.000297 -0.000568
     9 H     0.000058 -0.000308  0.000163
    10 H    -0.000135  0.000051  0.000160
    11 H     0.001432  0.000757  0.001700
    12 H     0.000685 -0.002372 -0.000640
    13 Sn   -0.008124  0.001347  0.005517
    14 Cl    0.002243  0.000673 -0.000084
    15 Cl   -0.000047 -0.001460 -0.000538
    16 Cl    0.001875  0.000738 -0.000672
    17 Cl   -0.000156 -0.003663 -0.002774
 ----------------------------------------
 Mulliken charges used for AMS results%charges...

 dE(predicted):    -0.99124E-03, dE(actual):    -0.10524E-02, Trust radius:    0.190253, all in a.u.
 
----------------------------------------------------------------------
Geometry Convergence after Step  23       (Hartree/Angstrom,Angstrom)
----------------------------------------------------------------------
current energy                               -2.90535183 Hartree
energy change                      -0.00105240     0.00017000    F
constrained gradient max            0.00865129     0.00100000    F
constrained gradient rms            0.00262212     0.00066667    F
gradient max                        0.00865129
gradient rms                        0.00262212
cart. step max                      0.14442776     0.01000000    F
cart. step rms                      0.05105203     0.00666667    F
 
 
--------
Geometry
--------
Formula: C4H7Cl4OSn
Atoms
  Index Symbol   x (angstrom)   y (angstrom)   z (angstrom)
      1      H     0.73674566    -1.06663121     0.21554198
      2      C    -0.97469369     0.04972407     1.07308478
      3      C     0.34796394    -0.07122571     0.43002977
      4      C     1.17870692     1.01076794     0.03729495
      5      O     0.82866233     2.21606349     0.24228340
      6      H    -1.18530446     1.09411053     1.31676642
      7      H    -0.97916118    -1.91340458     2.05691493
      8      C    -1.14792707    -0.86093472     2.30521984
      9      H    -0.45109501    -0.57933108     3.09978435
     10      H    -2.16559166    -0.76263665     2.69256726
     11      H    -1.72149399    -0.25226170     0.32288545
     12      H     2.12819747     0.78576451    -0.45037310
     13     Sn     2.12358164     3.94009800    -0.34829280
     14     Cl     0.31357053     4.99392511    -1.49900974
     15     Cl     2.95519252     3.09932398    -2.43496370
     16     Cl     4.08760586     3.03567950     0.71356327
     17     Cl     1.70465567     5.29673392     1.55452795
 
Total System Charge             0.00000
 
 *** GOStep24 ***

 Energy gradients wrt nuclear displacements
 ==========================================

     Atom      Cartesian (a.u./angstrom)
                 X         Y         Z
 ----------------------------------------
     1 H    -0.000075  0.000521 -0.000234
     2 C    -0.003243 -0.001943 -0.003720
     3 C    -0.001499  0.000121  0.001575
     4 C     0.014029 -0.005439 -0.006381
     5 O    -0.008372  0.007738  0.003567
     6 H     0.000280  0.000115 -0.000138
     7 H     0.000020  0.000014  0.000077
     8 C    -0.000144  0.000363 -0.000210
     9 H     0.000056 -0.000157  0.000093
    10 H     0.000041 -0.000093 -0.000024
    11 H     0.003373  0.001361  0.003516
    12 H    -0.005884 -0.000465  0.002472
    13 Sn    0.001600  0.001538  0.000268
    14 Cl   -0.000075  0.001056  0.000602
    15 Cl    0.000094 -0.002103  0.000388
    16 Cl    0.002122 -0.000344 -0.000911
    17 Cl   -0.002322 -0.002284 -0.000938
 ----------------------------------------
 Mulliken charges used for AMS results%charges...

 dE(predicted):    -0.58016E-03, dE(actual):    -0.17876E-03, Trust radius:    0.190253, all in a.u.
 
----------------------------------------------------------------------
Geometry Convergence after Step  24       (Hartree/Angstrom,Angstrom)
----------------------------------------------------------------------
current energy                               -2.90553058 Hartree
energy change                      -0.00017876     0.00017000    F
constrained gradient max            0.01403104     0.00100000    F
constrained gradient rms            0.00324769     0.00066667    F
gradient max                        0.01403104
gradient rms                        0.00324769
cart. step max                      0.09473990     0.01000000    F
cart. step rms                      0.02680479     0.00666667    F
 
 
--------
Geometry
--------
Formula: C4H7Cl4OSn
Atoms
  Index Symbol   x (angstrom)   y (angstrom)   z (angstrom)
      1      H     0.70527466    -1.07376292     0.18992180
      2      C    -0.97791536     0.05635729     1.08230566
      3      C     0.33727948    -0.07559643     0.42808184
      4      C     1.18898077     0.99873569     0.06031313
      5      O     0.88099452     2.20234508     0.29775624
      6      H    -1.16939385     1.09825624     1.35056056
      7      H    -1.01328070    -1.92753198     2.02329115
      8      C    -1.16135762    -0.87793209     2.29527943
      9      H    -0.45499319    -0.62503969     3.09103823
     10      H    -2.17478415    -0.76881795     2.69048089
     11      H    -1.73747296    -0.21699491     0.32612435
     12      H     2.13676285     0.76829408    -0.43947876
     13     Sn     2.12610925     3.94227485    -0.35142826
     14     Cl     0.28802749     4.93795012    -1.51132514
     15     Cl     2.94829753     3.09793124    -2.43931325
     16     Cl     4.12933310     3.13041940     0.71283807
     17     Cl     1.72775367     5.34887735     1.52137907
 
Total System Charge             0.00000
 
 *** GOStep25 ***

 Energy gradients wrt nuclear displacements
 ==========================================

     Atom      Cartesian (a.u./angstrom)
                 X         Y         Z
 ----------------------------------------
     1 H    -0.000009 -0.000036  0.000153
     2 C     0.001365 -0.000126  0.000179
     3 C    -0.001581  0.000716 -0.000052
     4 C    -0.000247  0.003474 -0.000613
     5 O     0.000433 -0.003931  0.001341
     6 H     0.000160 -0.000150  0.000065
[...]
 Index  Atom      ---- Displacements (x/y/z) ----
     1     H       0.218085   0.144705  -0.178453
     2     C      -0.042655  -0.030598   0.120878
     3     C      -0.065970  -0.013709   0.050116
     4     C       0.042404   0.022238  -0.029021
     5     O      -0.005092  -0.010348  -0.000316
     6     H       0.233621   0.388417  -0.669658
     7     H      -0.070624  -0.107736   0.105292
     8     C       0.024753  -0.043156  -0.056304
     9     H      -0.055761   0.125735   0.094641
    10     H       0.040467   0.189040  -0.069558
    11     H       0.138928   0.121110  -0.263188
    12     H       0.065721   0.078601  -0.030504
    13    Sn       0.000053   0.000039  -0.000052
    14    Cl       0.000052  -0.000085   0.000050
    15    Cl      -0.000079   0.000026   0.000071
    16    Cl      -0.000029  -0.000054  -0.000055
    17    Cl      -0.000005   0.000009   0.000009
 
 Mode:    38      Frequency (cm-1):     1364.5733     Intensity (km/mol):       16.4020
 Index  Atom      ---- Displacements (x/y/z) ----
     1     H      -0.134987  -0.083534   0.075567
     2     C      -0.016569  -0.014672   0.029682
     3     C       0.047666   0.007864  -0.041100
     4     C       0.023866  -0.028647  -0.039165
     5     O      -0.016327   0.068548   0.050629
     6     H       0.003621   0.080187  -0.141991
     7     H      -0.013890  -0.177134   0.350797
     8     C       0.001540   0.059539  -0.066337
     9     H      -0.148162  -0.249989   0.197325
    10     H       0.127735  -0.308276   0.143368
    11     H      -0.025062   0.033223   0.048936
    12     H      -0.220806  -0.669683  -0.086126
    13    Sn      -0.000050   0.000114   0.000051
    14    Cl       0.000109  -0.000097   0.000053
    15    Cl       0.000057  -0.000096  -0.000065
    16    Cl      -0.000051  -0.000106  -0.000136
    17    Cl      -0.000002  -0.000074  -0.000005
 
 Mode:    39      Frequency (cm-1):     1373.7931     Intensity (km/mol):       18.0611
 Index  Atom      ---- Displacements (x/y/z) ----
     1     H      -0.001246   0.039955   0.006149
     2     C       0.018487  -0.006330  -0.017469
     3     C      -0.013007   0.018086   0.023203
     4     C      -0.033147   0.018586   0.045637
     5     O       0.015769  -0.061931  -0.046800
     6     H      -0.040470   0.013275  -0.037445
     7     H       0.044792  -0.201810   0.407326
     8     C      -0.005496   0.077463  -0.064046
     9     H      -0.153585  -0.360924   0.193749
    10     H       0.139019  -0.384270   0.179209
    11     H      -0.018946   0.021311   0.055929
    12     H       0.175894   0.575915   0.088247
    13    Sn      -0.000029  -0.000183  -0.000044
    14    Cl      -0.000088   0.000164  -0.000069
    15    Cl       0.000041   0.000099   0.000010
    16    Cl       0.000093   0.000142   0.000222
    17    Cl       0.000030   0.000102   0.000004
 
 Mode:    40      Frequency (cm-1):     1418.0048     Intensity (km/mol):        7.3690
 Index  Atom      ---- Displacements (x/y/z) ----
     1     H       0.209873   0.078316  -0.109432
     2     C      -0.031103   0.065690  -0.019671
     3     C      -0.069292  -0.034268   0.041089
     4     C       0.036597   0.023733  -0.026787
     5     O      -0.006582   0.003961   0.008177
     6     H       0.567927  -0.211066   0.321431
     7     H      -0.033861  -0.019120   0.072262
     8     C       0.001879   0.020587  -0.008665
     9     H      -0.036212  -0.055338   0.055801
    10     H       0.022135  -0.115359   0.041993
    11     H       0.114122  -0.556119  -0.299264
    12     H      -0.003789  -0.085580  -0.043395
    13    Sn       0.000057   0.000022   0.000000
    14    Cl      -0.000032  -0.000054   0.000021
    15    Cl      -0.000056   0.000011   0.000033
    16    Cl      -0.000045  -0.000041  -0.000110
    17    Cl      -0.000019  -0.000005  -0.000004
 
 Mode:    41      Frequency (cm-1):     1434.1676     Intensity (km/mol):        2.1254
 Index  Atom      ---- Displacements (x/y/z) ----
     1     H       0.384956   0.183980  -0.323057
     2     C       0.082500   0.018903  -0.061912
     3     C      -0.142714  -0.106946   0.096426
     4     C       0.086124   0.087862  -0.046580
     5     O      -0.015377  -0.008793   0.012156
     6     H      -0.536325  -0.026835   0.160803
     7     H       0.247341  -0.052976   0.059431
     8     C      -0.011945   0.016777   0.007515
     9     H       0.017359  -0.267226  -0.047526
    10     H       0.008684   0.060278   0.013159
    11     H      -0.010214   0.311054   0.093808
    12     H      -0.036211  -0.261430  -0.091329
    13    Sn       0.000027   0.000027  -0.000047
    14    Cl       0.000065  -0.000119   0.000076
    15    Cl      -0.000043  -0.000015   0.000031
    16    Cl      -0.000044  -0.000085  -0.000071
    17    Cl      -0.000008  -0.000014   0.000011
 
 Mode:    42      Frequency (cm-1):     1462.5287     Intensity (km/mol):        6.5525
 Index  Atom      ---- Displacements (x/y/z) ----
     1     H      -0.041665  -0.023248   0.035043
     2     C      -0.023201  -0.007678  -0.002013
     3     C       0.012919   0.009608  -0.009522
     4     C      -0.007243  -0.010924   0.002332
     5     O       0.001343   0.003828   0.000476
     6     H       0.068725  -0.032267   0.017387
     7     H       0.477538   0.077829  -0.308475
     8     C      -0.041003  -0.018032  -0.022879
     9     H      -0.213873  -0.208536   0.315691
    10     H       0.381532   0.433949   0.362499
    11     H       0.001861  -0.007610  -0.053152
    12     H       0.001652   0.020194   0.005174
    13    Sn      -0.000001   0.000004   0.000001
    14    Cl      -0.000003   0.000008  -0.000003
    15    Cl      -0.000000   0.000000   0.000003
    16    Cl       0.000002   0.000001   0.000004
    17    Cl      -0.000000  -0.000001  -0.000001
 
 Mode:    43      Frequency (cm-1):     1468.4703     Intensity (km/mol):        8.2817
 Index  Atom      ---- Displacements (x/y/z) ----
     1     H       0.030980   0.020841  -0.030768
     2     C       0.032539  -0.006305  -0.033924
     3     C      -0.023777  -0.013642   0.018068
     4     C       0.012615   0.026389   0.000325
     5     O      -0.002136  -0.011465  -0.003427
     6     H      -0.123230  -0.040794   0.056175
     7     H      -0.484175   0.167789  -0.209270
     8     C       0.029236  -0.026216  -0.029233
     9     H      -0.220808   0.469351   0.441996
    10     H       0.254258  -0.225533   0.275576
    11     H      -0.017298   0.058737   0.062297
    12     H      -0.008061  -0.030535  -0.008071
    13    Sn      -0.000013  -0.000027   0.000008
    14    Cl      -0.000009   0.000010  -0.000007
    15    Cl       0.000027  -0.000008  -0.000024
    16    Cl       0.000007   0.000010  -0.000007
    17    Cl       0.000007   0.000010  -0.000006
 
 Mode:    44      Frequency (cm-1):     1534.9838     Intensity (km/mol):      130.3113
 Index  Atom      ---- Displacements (x/y/z) ----
     1     H      -0.309257  -0.221320   0.219560
     2     C      -0.031922   0.002870   0.037776
     3     C       0.060559  -0.013251  -0.072847
     4     C       0.024072   0.422130   0.178870
     5     O      -0.010743  -0.250847  -0.110627
     6     H       0.124924   0.046388  -0.058406
     7     H       0.049657  -0.018503   0.001723
     8     C       0.000901  -0.008117  -0.000917
     9     H       0.024458  -0.017815  -0.041266
    10     H      -0.030628   0.093146  -0.050100
    11     H       0.028477  -0.062428  -0.093019
    12     H      -0.331531  -0.584929   0.072878
    13    Sn      -0.000573  -0.000850   0.000274
    14    Cl      -0.000264   0.000629  -0.000361
    15    Cl       0.000935  -0.000229  -0.000809
    16    Cl       0.000403   0.000535   0.000429
    17    Cl       0.000202   0.000267  -0.000110
 
 Mode:    45      Frequency (cm-1):     2930.6023     Intensity (km/mol):        6.1235
 Index  Atom      ---- Displacements (x/y/z) ----
     1     H      -0.001019   0.009804   0.002362
     2     C       0.068391  -0.011066   0.028469
     3     C       0.002409  -0.000412  -0.000740
     4     C      -0.000362  -0.000972   0.000694
     5     O      -0.000108   0.000216   0.000132
     6     H       0.035029   0.131327   0.084183
     7     H      -0.001179   0.013573   0.007527
     8     C      -0.003995  -0.000599  -0.000523
     9     H       0.039314  -0.001629   0.022555
    10     H       0.019392  -0.003996  -0.020489
    11     H      -0.886989   0.003295  -0.422771
    12     H       0.005971  -0.000553  -0.007621
    13    Sn       0.000004   0.000002   0.000003
    14    Cl      -0.000006  -0.000002  -0.000002
    15    Cl      -0.000003   0.000000  -0.000000
    16    Cl      -0.000002  -0.000001  -0.000007
    17    Cl      -0.000002  -0.000001  -0.000001
 
 Mode:    46      Frequency (cm-1):     2937.7760     Intensity (km/mol):       41.8115
 Index  Atom      ---- Displacements (x/y/z) ----
     1     H      -0.010856   0.053289   0.036305
     2     C      -0.000137   0.000891  -0.000063
     3     C       0.002085  -0.002287  -0.003285
     4     C      -0.054591   0.010209   0.062349
     5     O       0.000271   0.002426   0.000785
     6     H      -0.000116  -0.013012  -0.009270
     7     H       0.000319   0.001742   0.000988
     8     C      -0.000037  -0.000109   0.000049
     9     H      -0.001348   0.000042  -0.000701
    10     H       0.000655  -0.000275  -0.000081
    11     H       0.007268   0.000230   0.004059
    12     H       0.631598  -0.175226  -0.747511
    13    Sn      -0.000055  -0.000051   0.000038
    14    Cl      -0.000016   0.000031  -0.000029
    15    Cl       0.000038  -0.000140  -0.000087
    16    Cl       0.000022   0.000023   0.000015
    17    Cl       0.000011   0.000003  -0.000010
 
 Mode:    47      Frequency (cm-1):     2998.8141     Intensity (km/mol):       27.6062
 Index  Atom      ---- Displacements (x/y/z) ----
     1     H       0.000593  -0.014574  -0.006595
     2     C       0.000246   0.002154   0.000717
     3     C       0.000305   0.001190   0.000205
     4     C      -0.000019   0.000175   0.000083
     5     O      -0.000012  -0.000128  -0.000046
     6     H      -0.002084  -0.021711  -0.011007
     7     H       0.083225   0.540257   0.309100
     8     C       0.000710  -0.040765   0.027114
     9     H      -0.489608   0.006719  -0.267705
    10     H       0.398373  -0.066972  -0.357433
    11     H      -0.003918   0.001312  -0.001707
    12     H      -0.001407   0.000063   0.001342
    13    Sn       0.000006   0.000009  -0.000000
    14    Cl      -0.000001  -0.000006   0.000001
    15    Cl      -0.000006  -0.000003   0.000003
    16    Cl      -0.000004  -0.000004  -0.000005
    17    Cl      -0.000003  -0.000006   0.000000
 
 Mode:    48      Frequency (cm-1):     3056.7809     Intensity (km/mol):        2.3734
 Index  Atom      ---- Displacements (x/y/z) ----
     1     H      -0.006206   0.081671   0.047592
     2     C       0.014082   0.060484   0.038533
     3     C       0.001149  -0.006730  -0.003701
     4     C       0.001165   0.000601  -0.001072
     5     O       0.000209  -0.000207  -0.000278
     6     H      -0.083763  -0.738216  -0.419695
     7     H       0.046955   0.317895   0.176695
     8     C      -0.010647  -0.027261  -0.035332
     9     H       0.235173  -0.013886   0.121120
    10     H      -0.152391   0.016591   0.123577
    11     H      -0.099259   0.013984  -0.039721
    12     H      -0.012413   0.002359   0.013675
    13    Sn       0.000000   0.000004  -0.000003
    14    Cl       0.000004  -0.000002   0.000003
    15    Cl      -0.000001   0.000001   0.000002
    16    Cl      -0.000001  -0.000002   0.000000
    17    Cl      -0.000000  -0.000002   0.000001
 
 Mode:    49      Frequency (cm-1):     3078.4270     Intensity (km/mol):       15.7429
 Index  Atom      ---- Displacements (x/y/z) ----
     1     H       0.008322  -0.113395  -0.064088
     2     C      -0.009094  -0.034269  -0.022650
     3     C      -0.001052   0.009781   0.005557
     4     C      -0.001152  -0.000470   0.000934
     5     O      -0.000068   0.000171   0.000160
     6     H       0.047214   0.411972   0.230604
     7     H       0.088016   0.586409   0.318618
     8     C      -0.008471  -0.049615  -0.062258
     9     H       0.316091  -0.021763   0.161345
    10     H      -0.306111   0.032007   0.261608
    11     H       0.073589  -0.007972   0.033438
    12     H       0.009524  -0.001640  -0.010454
    13    Sn      -0.000002  -0.000006  -0.000001
    14    Cl      -0.000003   0.000004  -0.000001
    15    Cl       0.000002   0.000001  -0.000001
    16    Cl       0.000002   0.000002   0.000009
    17    Cl       0.000000   0.000001   0.000000
 
 Mode:    50      Frequency (cm-1):     3080.7082     Intensity (km/mol):       16.2520
 Index  Atom      ---- Displacements (x/y/z) ----
     1     H      -0.000016   0.001516   0.001304
     2     C       0.005374   0.003338   0.004153
     3     C      -0.000083  -0.000072  -0.000031
     4     C      -0.000071  -0.000104  -0.000042
     5     O       0.000009   0.000048   0.000006
     6     H      -0.005314  -0.043928  -0.024365
     7     H       0.020115  -0.013629  -0.009058
     8     C       0.091705  -0.006758  -0.010527
     9     H      -0.602238   0.016337  -0.347184
    10     H      -0.512638   0.078894   0.481701
    11     H      -0.053591   0.002948  -0.026720
    12     H      -0.000500  -0.000026   0.000994
    13    Sn       0.000001  -0.000003   0.000001
    14    Cl      -0.000003   0.000002  -0.000002
    15    Cl      -0.000000   0.000002  -0.000001
    16    Cl      -0.000001   0.000002  -0.000002
    17    Cl       0.000000   0.000002  -0.000001
 
 Mode:    51      Frequency (cm-1):     3108.5955     Intensity (km/mol):       16.9781
 Index  Atom      ---- Displacements (x/y/z) ----
     1     H      -0.085728   0.844858   0.491634
     2     C      -0.004610  -0.010658  -0.005624
     3     C       0.006604  -0.072576  -0.041589
     4     C       0.005131  -0.000023  -0.005424
     5     O      -0.000167   0.000820   0.000585
     6     H       0.013026   0.123583   0.072140
     7     H       0.008935   0.056987   0.027831
     8     C      -0.000117  -0.004538  -0.004137
     9     H       0.012008  -0.001279   0.005332
    10     H      -0.018539   0.003390   0.015378
    11     H       0.027890  -0.001915   0.010675
    12     H      -0.038776   0.005800   0.043742
    13    Sn       0.000008   0.000010  -0.000006
    14    Cl       0.000002  -0.000006   0.000005
    15    Cl      -0.000012   0.000008   0.000012
    16    Cl      -0.000004  -0.000004  -0.000001
    17    Cl      -0.000003  -0.000003   0.000002

PES point character: Geometry corresponds to a transition state.
                     (Hint: Very small negative frequencies do not count towards being a
                     transition state, as they usually indicate noise on a very flat PES. See
                     the PESPointCharacter%NegativeFrequenciesTolerance keyword documentation.)




 ============================
 Statistical Thermal Analysis  ***  ideal gas assumed  ***
 ============================
  
 Pressure:                  1.000000 atm.
 Temperature:             298.150000 K



 Moments of Inertia [amu*bohr^2] and principal axis
 ==================================================

        2126.5418       7352.4216       7459.9049
 ------------------------------------------------
          -0.4833         -0.2249          0.8461
          -0.8419          0.3845         -0.3787
           0.2401          0.8953          0.3751


 The rotational contribution to the molecular entropy includes
 a term, dependent on the symmetry number sigma. The results 
 reported below were computed using sigma = 1, determined from
 the point group symmetry of the input geometry (NOSYM). 
 If this is not the correct symmetry, try symmetrizing the molecule before
 running the calculation (note: linear molecules should be aligned along one
 of the Cartesian axes).
 Contributions from frequencies below 20 1/cm are not included in vibrational sums.
 Their contributions, if any, are reported separately.


     Temp                                                        Transl      Rotat     Vibrat     Total
     ----                                                        ------      -----     ------     -----

     298.15   Entropy (cal/mol-K):                               43.284     33.122     46.356    122.762
              Nuclear Internal Energy (kcal/mol):                 0.889      0.889     71.445     73.222
              Constant Volume Heat Capacity (cal/mol-K):          2.981      2.981     36.349     42.311
          (c) Constant Volume Heat Capacity (cal/mol-K):          2.981      2.981     33.570     39.531

 Contributions from frequencies below 20 1/cm
 Frequency (1/cm):                                   17.643    18.411
 Entropy (cal/mol-K):                                 6.883     6.799
 Nuclear Internal Energy (kcal/mol):                  0.593     0.593
 Constant Volume Heat Capacity (cal/mol-K):           1.986     1.986

       Summary of energy terms
                                                   hartree              eV         kcal/mol           kJ/mol
                                      --------------------     -----------       ----------      -----------
      Energy from Engine:               -2.928175873836414        -79.6797         -1837.46         -7687.92
      Nuclear Internal Energy:           0.116687005294690          3.1752            73.22           306.36
  (c) Nuclear Internal Energy:           0.115211048384876          3.1351            72.30           302.49
      Internal Energy U:                -2.811488868541724        -76.5045         -1764.24         -7381.56
      pV/n = RT:                         0.000944186013486          0.0257             0.59             2.48
      Enthalpy H:                       -2.810544682528238        -76.4788         -1763.64         -7379.08
      -T*S:                             -0.058328269192761         -1.5872           -36.60          -153.14
  (c) -T*S:                             -0.060344375024212         -1.6421           -37.87          -158.43
      Gibbs free energy:                -2.868872951720999        -78.0660         -1800.25         -7532.22
 
 
 
  (c) The properties marked with this symbol have been corrected using 'low vibrational frequency free rotor
      interpolation corrections'. For those terms all positive frequencies are used (also ones below 20 1/cm),
      but the contribution to the partition function of small vibrational frequencies is modified as described
      in the following paper:
      S. Grimme, 'Supramolecular Binding Thermodynamics by Dispersion-Corrected Density Functional Theory'
      (Chem. Eur. J. 2012, 18, 9955-9964)
      Configuration: Dampener Frequency          :   100.000 1/cm
                     Dampener Alpha              :     4.000
                     Averaging Moment of Inertia : 1.000E-44 kg m2

--------------
Atomic charges
--------------
  Index   Atom    Charge
      1      H   -0.1999
      2      C    0.3832
      3      C    0.2800
      4      C    0.6481
      5      O   -0.5247
      6      H   -0.1597
      7      H   -0.2074
      8      C    0.6398
      9      H   -0.1945
     10      H   -0.2018
     11      H   -0.1537
     12      H   -0.2388
     13     Sn    1.0341
     14     Cl   -0.2683
     15     Cl   -0.2823
     16     Cl   -0.2645
     17     Cl   -0.2894


Dipole moment vector    (Debye):    -2.81093651   -5.74505370    0.50469136
              magnitude (Debye):     6.41573998


ERROR: Geometry optimization failed! (Converged, but did not find a minimum on the PES.)


AMS application finished. Exiting.
NORMAL TERMINATION
     Total cpu time:   51688.79
  Total system time:     352.99
 Total elapsed time:  104032.85
