

 Parallel Execution: Process Information
 ==============================================================================
 Rank   Node Name                              NodeID   MyNodeRank  NodeMaster
    0   node120                                   0          0          0
    1   node120                                   0          1         -1
    2   node120                                   0          2         -1
    3   node120                                   0          3         -1
 ==============================================================================


May use up to 122928MB of RAM as shared memory on node 0

 *******************************************************************************
 *                                                                             *
 *  --------------------------------                                           *
 *   Amsterdam Modeling Suite (AMS)              2021.102                      *
 *  --------------------------------                                           *
 *                                               r95042 2021-06-07             *
 *                                                                             *
 *                                                                             *
 *                              =================                              *
 *                              |               |                              *
 *                              |     A M S     |                              *
 *                              |               |                              *
 *                              =================                              *
 *                                                                             *
 *                                                                             *
 *   Online information and documentation:  https://www.scm.com/support/       *
 *   E-mail:  support@scm.com   info@scm.com                                   *
 *                                                                             *
 *   Scientific publications using AMS results must be properly referenced     *
 *   See the User Manuals (or the web site) for recommended citations          *
 *   The terms and conditions of the End User License Agreement apply to       *
 *   the use of AMS, https://www.scm.com/license-terms/                        *
 *                                                                             *
 **********************  x86_64_linux_intel / intelmpi  ************************
 
 Licensed to: VU/FEW (+ SARA) / ALGEMEEN / Amsterdam / THE NETHERLANDS
 SCM User ID: u7668
  
 AMS 2021.102  RunTime: Jan30-2022 12:07:39  ShM Nodes: 1  Procs: 4

 AMS jobname: 26.achiral_catalyst.H_Ph_BF3.P2
 AMS jobid  : 975353393

 Start   directory: /scistor/tc/yhk800/MasterProject/calculations/achiral_catalyst_H_Ph_BF3/26.achiral_catalyst.H_Ph_BF3.P2/
 Results directory: /scistor/tc/yhk800/MasterProject/calculations/achiral_catalyst_H_Ph_BF3/26.achiral_catalyst.H_Ph_BF3.P2/
 Scratch directory: /scratch/5298/amstmp_26.achiral_catalyst.H_Ph_BF3.P2_kid0.975353393/


 Communication costs MPI_COMM_WORLD:      1.501 usec per message,   0.0064 usec per 8-byte item
 Communication costs for intra-node:      0.910 usec per message,   0.0070 usec per 8-byte item

 RNG seed: 728536225 -1059110264 -2048475934 1337257660 -1679494408 -1212806931 2021815222 1221018243



                      ************************************************************************
                      *  ADF 2021.102  RunTime: Jan30-2022 12:07:39  ShM Nodes: 1  Procs: 4  *
                      ************************************************************************
  
       ***************************
       *  GEOMETRY OPTIMIZATION  *
       ***************************

Optimization Method                    Quasi Newton
Optimization Coordinates               Delocalized Coordinates
Optimize lattice                       F
 
 ------------------------------------------------------
 Convergence criteria (Hartree,Angstrom)
 ------------------------------------------------------
 Maximum gradient               0.001000000000
 Maximum rms gradient           0.000666666667
 Maximum step allowed           0.010000000000
 Maximum rms step allowed       0.006666666667
 Maximum energy change allowe   0.000270000000
 Maximum stress energy allowe   0.000500000000
 
Initial model Hessian                  Automatic Hessian
 
------------------------------------
Quasi-Newton Optimizer Parameters
------------------------------------
Hessian Update Method                  BFGS
Maximum number of steps                  250
First GDIIS cycle                          0
Maximum GDIIS vectors                      0
Trust radius (bohr)                        0.200000
Trust radius varies                        T
Constraints converged at all steps         T
Use projector                              T
 
 Rigid motions settings for: old optimizer
 Atomic rotations (x,y,z):     T T T
 Atomic translations (x,y,z):  T T T
 Tolerance:                   1.000000000000000E-006
 
--------
Geometry
--------
Formula: C10H12BF3O
Atoms
  Index Symbol   x (angstrom)   y (angstrom)   z (angstrom)
      1      H     0.83345051    -1.35209109     1.20167740
      2      C    -0.83092072     0.03538951     0.93442801
      3      C     0.35139657    -0.78131674     0.40158875
      4      C     1.39689343     0.07225735    -0.26739819
      5      O     2.40703452    -0.34587328    -0.75774611
      6      H    -1.19392452     0.69150371     0.13740680
      7      H     0.00939092    -1.50634328    -0.34451216
      8      H    -0.05768346     0.24518214     2.94899716
      9      C    -0.44138171     0.87842746     2.14736270
     10      H     0.32560687     1.60312788     1.87585802
     11      H    -1.31355949     1.41759590     2.51749654
     12      C    -4.04067044    -2.67858482     2.01857462
     13      C    -4.31865374    -1.53007797     1.26695277
     14      C    -3.28313086    -0.65450113     0.91718762
     15      C    -1.96962468    -0.92743114     1.31904430
     16      C    -1.69164136    -2.07593799     2.07066615
     17      C    -2.72716424    -2.95151482     2.42043130
     18      H    -5.32378380    -1.32122463     0.95944130
     19      H    -3.49585113     0.22436701     0.34202649
     20      H    -0.68651131    -2.28479133     2.37817763
     21      H    -2.51444398    -3.83038297     2.99559244
     22      H    -4.83308023    -3.34859962     2.28622427
     23      H     1.16279025     1.11629180    -0.25802988
     24      B     3.62898812    -1.04016615    -1.71419100
     25      F     2.75119537    -1.28653287    -2.65681860
     26      F     3.85452465    -1.93145899    -0.77904726
     27      F     4.28124433     0.09749341    -1.70670713
 
Total System Charge             0.00000
 
 
----------------
ADF Engine Input
----------------
 
 NumericalQuality VeryGood
 SCF
 Converge 1.0e-6
 Iterations 99
 End
 SYMMETRY NOSYM
 XC
 GGA OLYP
 End
 basis
 core None
 type TZ2P
 End
 

 Title: *** (NO TITLE) ***

 Using automatic Hessian for delocalized coordinates.
 *** GOStep1 ***

 Energy gradients wrt nuclear displacements
 ==========================================

     Atom      Cartesian (a.u./angstrom)
                 X         Y         Z
 ----------------------------------------
     1 H    -0.003611  0.001881  0.003290
     2 C     0.016505  0.033293 -0.015722
     3 C    -0.003057 -0.009676  0.009219
     4 C     0.033970  0.033851 -0.032777
     5 O     0.090903 -0.054868 -0.062414
     6 H     0.001753 -0.001591  0.001858
     7 H    -0.001676  0.005197  0.001289
     8 H    -0.001263 -0.000722 -0.003799
     9 C     0.000674 -0.005210  0.004425
    10 H    -0.005251 -0.007252 -0.004690
    11 H     0.000283 -0.004392 -0.004257
    12 C    -0.018317 -0.016624  0.006789
    13 C    -0.025679  0.005891 -0.009153
    14 C    -0.000655  0.030030 -0.019022
    15 C    -0.011357 -0.016814  0.013122
    16 C     0.036211  0.000538  0.003818
    17 C     0.004549 -0.024406  0.014512
    18 H     0.019510 -0.003953  0.006174
    19 H     0.004227 -0.016709  0.011573
    20 H    -0.014159  0.007170 -0.007499
    21 H    -0.004265  0.017047 -0.011035
    22 H     0.015064  0.012943 -0.004877
    23 H     0.000267 -0.054438  0.009716
    24 B     0.053502 -0.038069 -0.055785
    25 F     0.004461  0.047911  0.108707
    26 F    -0.082021  0.097466 -0.014489
    27 F    -0.110568 -0.038493  0.051029
 ----------------------------------------
 Mulliken charges used for AMS results%charges...
 
----------------------------------------------------------------------
Geometry Convergence after Step   1       (Hartree/Angstrom,Angstrom)
----------------------------------------------------------------------
current energy                               -5.74949622 Hartree
energy change                      -5.74949622     0.00027000    F
constrained gradient max            0.11056921     0.00100000    F
constrained gradient rms            0.03248020     0.00066667    F
gradient max                        0.11056921
gradient rms                        0.03248020
cart. step max                      0.13672087     0.01000000    F
cart. step rms                      0.03383529     0.00666667    F
 
 
--------
Geometry
--------
Formula: C10H12BF3O
Atoms
  Index Symbol   x (angstrom)   y (angstrom)   z (angstrom)
      1      H     0.83267032    -1.33428568     1.21018510
      2      C    -0.84986183     0.03673507     0.94977252
      3      C     0.34323165    -0.76669325     0.41227419
      4      C     1.38439233     0.09492086    -0.25851202
      5      O     2.40444665    -0.32168593    -0.75331068
      6      H    -1.21907181     0.69062703     0.15299172
      7      H     0.00803903    -1.49446995    -0.33534051
      8      H    -0.07494545     0.25318905     2.96729854
      9      C    -0.46449568     0.88378105     2.16563928
     10      H     0.29776425     1.61687910     1.89756057
     11      H    -1.33966064     1.41723546     2.53922157
     12      C    -4.06269425    -2.68170895     2.02541994
     13      C    -4.33510221    -1.53380721     1.27479372
     14      C    -3.29781399    -0.66025894     0.92978199
     15      C    -1.98459042    -0.93094516     1.33365848
     16      C    -1.71506423    -2.08197306     2.08582397
     17      C    -2.75233361    -2.95523179     2.43076983
     18      H    -5.34250938    -1.32221413     0.96237401
     19      H    -3.51000452     0.22214922     0.35225205
     20      H    -0.70967078    -2.29657674     2.39996405
     21      H    -2.54171800    -3.83799745     3.00832876
     22      H    -4.85983590    -3.35345821     2.29074933
     23      H     1.14789449     1.14911566    -0.25395300
     24      B     3.65845418    -1.02386013    -1.72653565
     25      F     2.86236738    -1.32890038    -2.74505824
     26      F     3.99124552    -1.97450825    -0.86051588
     27      F     4.40935677     0.06875005    -1.80094970
 
Total System Charge             0.00000
 
 *** GOStep2 ***

 Energy gradients wrt nuclear displacements
 ==========================================

     Atom      Cartesian (a.u./angstrom)
                 X         Y         Z
 ----------------------------------------
     1 H    -0.003708  0.002335  0.003100
     2 C     0.013056  0.029963 -0.016365
     3 C    -0.004483 -0.011789  0.010428
     4 C     0.020862  0.031732 -0.023319
     5 O     0.044959 -0.030422 -0.029816
     6 H     0.001363 -0.001378  0.001089
     7 H    -0.002274  0.004806  0.001008
     8 H    -0.000952 -0.000708 -0.003075
     9 C     0.000494 -0.004984  0.005290
    10 H    -0.004098 -0.005899 -0.004264
    11 H    -0.000126 -0.003482 -0.003368
    12 C    -0.012913 -0.011685  0.004682
    13 C    -0.018693  0.003505 -0.006582
    14 C    -0.000193  0.022896 -0.014441
    15 C    -0.010070 -0.014039  0.012751
    16 C     0.027893 -0.000759  0.003544
    17 C     0.002542 -0.018014  0.010322
    18 H     0.014214 -0.003095  0.004745
    19 H     0.003242 -0.012324  0.008761
    20 H    -0.010777  0.006028 -0.006082
    21 H    -0.003357  0.012493 -0.008070
    22 H     0.011040  0.009565 -0.003486
    23 H    -0.003396 -0.038612  0.009884
    24 B     0.019635 -0.016020 -0.025887
    25 F     0.005567  0.023301  0.054080
    26 F    -0.038381  0.046126 -0.008397
    27 F    -0.051448 -0.019541  0.023470
 ----------------------------------------
 Mulliken charges used for AMS results%charges...

 dE(predicted):    -0.42269E-01, dE(actual):    -0.33909E-01, Trust radius:    0.400000, all in a.u.
 
----------------------------------------------------------------------
Geometry Convergence after Step   2       (Hartree/Angstrom,Angstrom)
----------------------------------------------------------------------
current energy                               -5.78340521 Hartree
energy change                      -0.03390899     0.00027000    F
constrained gradient max            0.05407909     0.00100000    F
constrained gradient rms            0.01777116     0.00066667    F
gradient max                        0.05407909
gradient rms                        0.01777116
cart. step max                      0.21256881     0.01000000    F
cart. step rms                      0.06034507     0.00666667    F
 
 
--------
Geometry
--------
Formula: C10H12BF3O
Atoms
  Index Symbol   x (angstrom)   y (angstrom)   z (angstrom)
      1      H     0.93822675    -1.30091191     1.21230069
      2      C    -0.82993428    -0.01539947     1.00741992
      3      C     0.39603640    -0.75264153     0.43461390
      4      C     1.39124782     0.14005226    -0.26535099
      5      O     2.41226346    -0.26266682    -0.78665791
      6      H    -1.21086806     0.63856342     0.21475996
      7      H     0.08845757    -1.50264325    -0.30546290
      8      H    -0.06625969     0.24985580     3.03297012
      9      C    -0.46445320     0.86024443     2.21843002
     10      H     0.28633701     1.61296836     1.95989320
     11      H    -1.34835620     1.38404170     2.58921495
     12      C    -4.13475198    -2.66089234     2.02226396
     13      C    -4.34395173    -1.53057079     1.23244645
     14      C    -3.27119771    -0.69843680     0.90344478
     15      C    -1.97571108    -0.98061046     1.35430810
     16      C    -1.77909392    -2.11690501     2.15222469
     17      C    -2.84991469    -2.94926249     2.48436335
     18      H    -5.33808154    -1.30049140     0.86784567
     19      H    -3.44410703     0.17543488     0.28629129
     20      H    -0.79347306    -2.35492162     2.52944718
     21      H    -2.68063475    -3.82465265     3.10007960
     22      H    -4.96353930    -3.31159488     2.27402512
     23      H     1.11832294     1.20144709    -0.34359745
     24      B     3.67887605    -0.97891616    -1.79224038
     25      F     2.88889091    -1.41410356    -2.79399449
     26      F     4.15090225    -1.89053445    -0.92083636
     27      F     4.42525695     0.11835497    -2.01351852
 
Total System Charge             0.00000
 
 *** GOStep3 ***

 Energy gradients wrt nuclear displacements
 ==========================================

     Atom      Cartesian (a.u./angstrom)
                 X         Y         Z
 ----------------------------------------
     1 H    -0.002216  0.003499  0.000310
     2 C     0.007230  0.012567 -0.004646
     3 C    -0.001741 -0.006538 -0.001363
     4 C     0.015198  0.018070 -0.000554
     5 O     0.027700 -0.020784 -0.022619
     6 H     0.000813 -0.002253  0.000783
     7 H    -0.001475  0.002016  0.000920
     8 H    -0.000742 -0.000186 -0.002196
     9 C     0.000568 -0.000028  0.002325
    10 H    -0.001685 -0.001407 -0.000715
    11 H     0.000236 -0.001168 -0.001191
    12 C    -0.003691 -0.003184  0.001033
    13 C    -0.006231  0.000855 -0.000969
    14 C     0.001072  0.008328 -0.003558
    15 C    -0.008283 -0.009038  0.003309
    16 C     0.008597 -0.002421  0.001588
    17 C    -0.000463 -0.004904  0.004320
    18 H     0.004476 -0.001681  0.001831
    19 H     0.001345 -0.004449  0.003163
    20 H    -0.005444  0.002650 -0.002117
    21 H    -0.001413  0.003977 -0.002955
    22 H     0.003802  0.002889 -0.001412
    23 H    -0.003783 -0.015032  0.001988
    24 B    -0.004068 -0.000193 -0.003208
    25 F     0.000058  0.008239  0.015639
    26 F    -0.013999  0.012983  0.000427
    27 F    -0.015862 -0.002807  0.009866
 ----------------------------------------
 Mulliken charges used for AMS results%charges...

 dE(predicted):    -0.11587E-01, dE(actual):    -0.11923E-01, Trust radius:    0.400000, all in a.u.
 
----------------------------------------------------------------------
Geometry Convergence after Step   3       (Hartree/Angstrom,Angstrom)
----------------------------------------------------------------------
current energy                               -5.79532864 Hartree
energy change                      -0.01192342     0.00027000    F
constrained gradient max            0.02769955     0.00100000    F
constrained gradient rms            0.00744401     0.00066667    F
gradient max                        0.02769955
gradient rms                        0.00744401
cart. step max                      0.14301441     0.01000000    F
cart. step rms                      0.04371909     0.00666667    F
 
 
--------
Geometry
--------
Formula: C10H12BF3O
Atoms
  Index Symbol   x (angstrom)   y (angstrom)   z (angstrom)
      1      H     0.93058940    -1.29460371     1.12178237
      2      C    -0.85616601    -0.00452656     1.02350622
      3      C     0.34025898    -0.73728764     0.38328023
      4      C     1.29330534     0.14803438    -0.37521966
      5      O     2.35620410    -0.24550939    -0.82021118
      6      H    -1.26035919     0.67089875     0.25809765
      7      H     0.00400845    -1.49115881    -0.34271185
      8      H    -0.00930377     0.23489323     3.02897398
      9      C    -0.42715083     0.85556225     2.22993118
     10      H     0.33095181     1.59802758     1.95448261
     11      H    -1.28309770     1.39697899     2.64209639
     12      C    -4.14087734    -2.67194468     2.02691715
     13      C    -4.35977298    -1.53298677     1.25405342
     14      C    -3.29533470    -0.69027643     0.93375162
     15      C    -1.99493889    -0.96030573     1.37965329
     16      C    -1.78992360    -2.11312062     2.15065738
     17      C    -2.84932451    -2.96289301     2.46565067
     18      H    -5.36205889    -1.29646770     0.90012824
     19      H    -3.48159901     0.19430020     0.32553344
     20      H    -0.79286865    -2.37215064     2.50110543
     21      H    -2.66426041    -3.85521575     3.06167062
     22      H    -4.96856852    -3.33204430     2.28039433
     23      H     1.08191031     1.23975731    -0.40361005
     24      B     3.72952649    -0.98162910    -1.73228485
     25      F     3.03190532    -1.52585289    -2.76462658
     26      F     4.23235858    -1.84262811    -0.81177378
     27      F     4.48507608     0.10695650    -2.01654432
 
Total System Charge             0.00000
 
 *** GOStep4 ***

 Energy gradients wrt nuclear displacements
 ==========================================

     Atom      Cartesian (a.u./angstrom)
                 X         Y         Z
 ----------------------------------------
     1 H    -0.001851 -0.000748  0.002291
     2 C     0.003664  0.002665  0.000011
     3 C     0.004472 -0.002005  0.009333
     4 C    -0.014331 -0.003591 -0.035084
     5 O     0.017218 -0.009611  0.002049
     6 H    -0.000629 -0.001292 -0.000641
     7 H     0.002662  0.001655 -0.000906
     8 H     0.000006  0.000050 -0.000197
     9 C    -0.000168  0.000864  0.000295
    10 H     0.000209  0.000912  0.000389
    11 H     0.000268  0.000227  0.000289
    12 C     0.001737  0.002045  0.000133
    13 C     0.002343 -0.000967 -0.000291
    14 C     0.000041 -0.002241  0.000481
    15 C    -0.003269 -0.001752  0.002574
    16 C    -0.002317  0.001197  0.000865
    17 C     0.000093  0.001341 -0.003029
    18 H    -0.001638  0.000392 -0.000119
    19 H    -0.000226  0.001047 -0.000824
    20 H     0.001353 -0.001076 -0.000810
    21 H     0.000153 -0.001279  0.000891
    22 H    -0.001312 -0.000807  0.000624
    23 H     0.006248  0.003446  0.011497
    24 B    -0.022237  0.013763  0.015573
    25 F    -0.000439 -0.002585 -0.004244
    26 F     0.003694 -0.004227  0.001247
    27 F     0.004256  0.002580 -0.002396
 ----------------------------------------
 Mulliken charges used for AMS results%charges...

 dE(predicted):    -0.29917E-02, dE(actual):    -0.16320E-02, Trust radius:    0.400000, all in a.u.
 
----------------------------------------------------------------------
Geometry Convergence after Step   4       (Hartree/Angstrom,Angstrom)
----------------------------------------------------------------------
current energy                               -5.79696060 Hartree
energy change                      -0.00163196     0.00027000    F
constrained gradient max            0.03508726     0.00100000    F
constrained gradient rms            0.00635164     0.00066667    F
gradient max                        0.03508726
gradient rms                        0.00635164
cart. step max                      0.21260612     0.01000000    F
cart. step rms                      0.04943797     0.00666667    F
 
 
--------
Geometry
--------
Formula: C10H12BF3O
Atoms
  Index Symbol   x (angstrom)   y (angstrom)   z (angstrom)
      1      H     0.95102592    -1.27011687     1.17479119
      2      C    -0.84638552     0.01433977     1.06800077
      3      C     0.35976329    -0.71048178     0.43763163
      4      C     1.31668792     0.17731518    -0.30837182
      5      O     2.35344408    -0.22692958    -0.80588448
      6      H    -1.23679132     0.70383829     0.30668908
      7      H     0.03404251    -1.46704754    -0.29201773
      8      H    -0.03130529     0.22662253     3.09335742
      9      C    -0.43150772     0.85725609     2.29203554
     10      H     0.33799378     1.59617623     2.03750717
     11      H    -1.28961250     1.40207953     2.69625346
     12      C    -4.12839904    -2.68646167     1.96734041
     13      C    -4.33737962    -1.54857845     1.18973180
     14      C    -3.27518966    -0.69095848     0.90567120
     15      C    -1.98502186    -0.94482320     1.39013714
     16      C    -1.79070793    -2.09543771     2.16712554
     17      C    -2.84827639    -2.95777317     2.45056573
     18      H    -5.33104841    -1.32399629     0.80161238
     19      H    -3.45539864     0.19342626     0.29259490
     20      H    -0.80203904    -2.34043324     2.55536703
     21      H    -2.66904976    -3.84725909     3.05485102
     22      H    -4.95570195    -3.35856811     2.19421752
     23      H     1.03935793     1.24528369    -0.47890775
     24      B     3.68730353    -1.01576632    -1.77671034
     25      F     2.92577903    -1.67387103    -2.69440034
     26      F     4.30257820    -1.77861535    -0.83535405
     27      F     4.38632835     0.05558768    -2.22915044
 
Total System Charge             0.00000
 
 *** GOStep5 ***

 Energy gradients wrt nuclear displacements
 ==========================================

     Atom      Cartesian (a.u./angstrom)
                 X         Y         Z
 ----------------------------------------
     1 H     0.001334 -0.000146  0.000309
     2 C    -0.000534 -0.000729 -0.000511
     3 C    -0.002826 -0.003189 -0.003340
     4 C     0.002985  0.000927  0.011678
     5 O     0.008184 -0.011146 -0.010414
     6 H    -0.001103 -0.000322 -0.000965
     7 H     0.000622 -0.001592  0.000679
     8 H     0.000469 -0.000043  0.000872
     9 C    -0.000251  0.000267 -0.000632
    10 H     0.000590  0.001113  0.000812
    11 H     0.000078  0.000426  0.000584
    12 C     0.002701  0.002276 -0.000652
    13 C     0.004079 -0.000550  0.000242
    14 C    -0.000669 -0.004180  0.002067
    15 C     0.000113  0.001274  0.001421
    16 C    -0.004207  0.001567 -0.001348
    17 C     0.000304  0.003234 -0.003172
    18 H    -0.002878  0.000873 -0.000964
    19 H    -0.000754  0.002496 -0.001819
    20 H     0.003267 -0.001620  0.000687
    21 H     0.000703 -0.002457  0.001782
    22 H    -0.002432 -0.001712  0.001004
    23 H    -0.000104  0.005404 -0.005318
    24 B    -0.027078  0.018799  0.019772
    25 F    -0.000513 -0.006707 -0.008709
    26 F     0.008716 -0.007617  0.002089
    27 F     0.009205  0.003355 -0.006155
 ----------------------------------------
 Mulliken charges used for AMS results%charges...

 dE(predicted):    -0.19732E-02, dE(actual):    -0.13903E-02, Trust radius:    0.400000, all in a.u.
 
----------------------------------------------------------------------
Geometry Convergence after Step   5       (Hartree/Angstrom,Angstrom)
----------------------------------------------------------------------
current energy                               -5.79835094 Hartree
energy change                      -0.00139034     0.00027000    F
constrained gradient max            0.02707977     0.00100000    F
constrained gradient rms            0.00563074     0.00066667    F
gradient max                        0.02707977
gradient rms                        0.00563074
cart. step max                      0.08403594     0.01000000    F
cart. step rms                      0.02626171     0.00666667    F
 
 
--------
Geometry
--------
Formula: C10H12BF3O
Atoms
  Index Symbol   x (angstrom)   y (angstrom)   z (angstrom)
      1      H     0.95374154    -1.29320980     1.12619480
      2      C    -0.84333126    -0.00930949     1.05389713
      3      C     0.35780999    -0.72274979     0.40225641
      4      C     1.30760708     0.17540608    -0.33987641
      5      O     2.36016653    -0.20825484    -0.82118137
      6      H    -1.23446673     0.69472423     0.30707593
      7      H     0.02341375    -1.46634006    -0.33653265
      8      H    -0.01522504     0.16956712     3.07492479
      9      C    -0.41676195     0.81373425     2.28573017
     10      H     0.35494186     1.55029137     2.03338546
     11      H    -1.26990893     1.35734560     2.70140517
     12      C    -4.15232922    -2.66598289     1.99229403
     13      C    -4.34957638    -1.53407013     1.20263537
     14      C    -3.27640539    -0.69489951     0.90140208
     15      C    -1.98592268    -0.96508610     1.37564584
     16      C    -1.80572128    -2.10320528     2.17545672
     17      C    -2.87619360    -2.94215525     2.48376908
     18      H    -5.33922224    -1.30511750     0.81135018
     19      H    -3.44713203     0.18421896     0.28099704
     20      H    -0.82567790    -2.33992356     2.58477040
     21      H    -2.70918144    -3.81955837     3.10605604
     22      H    -4.98519673    -3.32654261     2.22493955
     23      H     1.01467121     1.23807941    -0.49744817
     24      B     3.72990317    -0.98431124    -1.77263502
     25      F     2.97988402    -1.67953062    -2.66693787
     26      F     4.34769575    -1.69457941    -0.79746645
     27      F     4.38290774     0.10626680    -2.23742432
 
Total System Charge             0.00000
 
 *** GOStep6 ***

 Energy gradients wrt nuclear displacements
 ==========================================

     Atom      Cartesian (a.u./angstrom)
                 X         Y         Z
 ----------------------------------------
     1 H     0.000801  0.000640  0.000343
     2 C    -0.000684 -0.000515  0.000463
     3 C    -0.001714 -0.000272 -0.002577
     4 C    -0.001015  0.002207  0.006647
     5 O     0.015113 -0.013453 -0.012109
     6 H    -0.000031 -0.000192 -0.000494
     7 H     0.000724 -0.000803  0.000701
     8 H     0.000129 -0.000267  0.000370
     9 C    -0.000179  0.000121 -0.000618
    10 H     0.000155  0.000482  0.000333
    11 H    -0.000041  0.000175  0.000217
    12 C     0.001164  0.000171 -0.000826
    13 C     0.001190  0.000632  0.001364
    14 C    -0.000361 -0.000631  0.002199
    15 C     0.000632 -0.000889 -0.001703
    16 C    -0.001229 -0.000876 -0.002663
    17 C    -0.000617  0.002010  0.000722
    18 H    -0.000944  0.000063 -0.000745
    19 H    -0.000225  0.000970 -0.000731
    20 H     0.000586  0.000101  0.001546
    21 H     0.000201 -0.000962  0.000617
    22 H    -0.000792 -0.000845  0.000026
    23 H     0.000276  0.002390 -0.002203
    24 B    -0.021030  0.014517  0.014371
    25 F    -0.002103 -0.004025 -0.004867
    26 F     0.004889 -0.004275  0.002896
    27 F     0.005106  0.003528 -0.003280
 ----------------------------------------
 Mulliken charges used for AMS results%charges...

 dE(predicted):    -0.53657E-03, dE(actual):    -0.78560E-03, Trust radius:    0.400000, all in a.u.
 
----------------------------------------------------------------------
Geometry Convergence after Step   6       (Hartree/Angstrom,Angstrom)
----------------------------------------------------------------------
current energy                               -5.79913654 Hartree
energy change                      -0.00078560     0.00027000    F
constrained gradient max            0.02103353     0.00100000    F
constrained gradient rms            0.00454493     0.00066667    F
gradient max                        0.02103353
gradient rms                        0.00454493
cart. step max                      0.21039915     0.01000000    F
cart. step rms                      0.05304622     0.00666667    F
 
 
--------
Geometry
--------
Formula: C10H12BF3O
Atoms
  Index Symbol   x (angstrom)   y (angstrom)   z (angstrom)
      1      H     0.93898663    -1.32862251     1.02723059
      2      C    -0.84311135    -0.02387807     1.05530464
      3      C     0.32808557    -0.72781210     0.34292609
      4      C     1.25840150     0.18009725    -0.40931932
      5      O     2.34020992    -0.16840334    -0.84812366
      6      H    -1.24012803     0.71400779     0.34586755
      7      H    -0.04471367    -1.44173190    -0.40732496
      8      H     0.04279569     0.07931155     3.05563020
      9      C    -0.36570567     0.75334713     2.29645382
     10      H     0.41543770     1.47675963     2.03793134
     11      H    -1.19509683     1.30409280     2.74872982
     12      C    -4.17693700    -2.64461991     2.00846322
     13      C    -4.36118385    -1.51852474     1.20718187
     14      C    -3.27866459    -0.69184141     0.90026455
     15      C    -1.99256973    -0.96778781     1.38265436
     16      C    -1.82533669    -2.10056746     2.19444492
     17      C    -2.90316021    -2.93229250     2.50052132
     18      H    -5.34666590    -1.28204432     0.81551243
     19      H    -3.43899916     0.18236256     0.27376193
     20      H    -0.84884834    -2.34429492     2.60207989
     21      H    -2.74597396    -3.80599443     3.12700585
     22      H    -5.01486807    -3.29476859     2.24275176
     23      H     0.92501200     1.22455693    -0.58464473
     24      B     3.79678281    -0.95947730    -1.74003825
     25      F     3.08291700    -1.79575693    -2.52673111
     26      F     4.44038787    -1.48418026    -0.67749226
     27      F     4.33343625     0.13287020    -2.31635794
 
Total System Charge             0.00000
 
 *** GOStep7 ***

 Energy gradients wrt nuclear displacements
 ==========================================

     Atom      Cartesian (a.u./angstrom)
                 X         Y         Z
 ----------------------------------------
     1 H     0.000372  0.001111  0.000408
     2 C    -0.000924 -0.002481  0.000472
     3 C    -0.000338  0.004456 -0.002121
     4 C    -0.004282  0.002724 -0.000964
     5 O     0.019734 -0.015325 -0.010493
     6 H     0.001346  0.000204  0.000125
     7 H     0.001190 -0.000454  0.000778
     8 H    -0.000326 -0.000292 -0.000268
     9 C    -0.000453  0.000110 -0.000329
    10 H    -0.000299 -0.000363 -0.000351
    11 H    -0.000119 -0.000046 -0.000168
    12 C    -0.001453 -0.000752  0.001251
    13 C    -0.001807  0.000278 -0.000045
    14 C     0.000456  0.002115 -0.000073
    15 C     0.001443  0.000105 -0.001684
    16 C     0.001269 -0.000341  0.000980
    17 C    -0.000567 -0.002289  0.001124
    18 H     0.001318 -0.000382  0.000375
    19 H     0.000342 -0.000908  0.000779
    20 H    -0.001822  0.000571 -0.000052
    21 H    -0.000310  0.001055 -0.000802
    22 H     0.001195  0.000594 -0.000704
    23 H     0.001198 -0.001439  0.001527
    24 B    -0.013071  0.009876  0.007781
    25 F    -0.003310 -0.000384 -0.000080
    26 F    -0.000396  0.000254  0.002240
    27 F    -0.000387  0.002000  0.000297
 ----------------------------------------
 Mulliken charges used for AMS results%charges...

 dE(predicted):    -0.94860E-03, dE(actual):    -0.13522E-02, Trust radius:    0.800000, all in a.u.
 
----------------------------------------------------------------------
Geometry Convergence after Step   7       (Hartree/Angstrom,Angstrom)
----------------------------------------------------------------------
current energy                               -5.80048876 Hartree
energy change                      -0.00135223     0.00027000    F
constrained gradient max            0.01972941     0.00100000    F
constrained gradient rms            0.00383740     0.00066667    F
gradient max                        0.01972941
gradient rms                        0.00383740
cart. step max                      0.20397788     0.01000000    F
cart. step rms                      0.04967326     0.00666667    F
 
 
--------
Geometry
--------
Formula: C10H12BF3O
Atoms
  Index Symbol   x (angstrom)   y (angstrom)   z (angstrom)
      1      H     0.91651257    -1.36256777     0.93769683
      2      C    -0.84404413    -0.03213462     1.05997994
      3      C     0.29579249    -0.72995750     0.29304983
      4      C     1.21037767     0.18709912    -0.46567546
      5      O     2.31480583    -0.12900062    -0.86893865
      6      H    -1.24545125     0.73646405     0.38662578
      7      H    -0.11481571    -1.41236840    -0.46782812
      8      H     0.09829307    -0.00209050     3.03761263
      9      C    -0.31678158     0.69958983     2.30809258
     10      H     0.47283610     1.41146145     2.04420982
     11      H    -1.12142938     1.25568241     2.79698745
     12      C    -4.19333673    -2.63118481     2.01346772
     13      C    -4.37017522    -1.50630425     1.20889756
     14      C    -3.28262542    -0.68534886     0.90250452
     15      C    -1.99876818    -0.96643255     1.38795671
     16      C    -1.83906006    -2.09850393     2.20305737
     17      C    -2.92277753    -2.92133277     2.51306057
     18      H    -5.35261476    -1.26646932     0.81378058
     19      H    -3.43693654     0.18713580     0.27343356
     20      H    -0.86577886    -2.34310343     2.61566786
     21      H    -2.77193672    -3.79193720     3.14403861
     22      H    -5.03464886    -3.27552861     2.24806183
     23      H     0.84018654     1.21332659    -0.66839123
     24      B     3.85434696    -0.94128586    -1.70514600
     25      F     3.18297515    -1.90055496    -2.37125182
     26      F     4.51590345    -1.28020238    -0.58611060
     27      F     4.28964096     0.12035645    -2.40015594
 
Total System Charge             0.00000
 
 *** GOStep8 ***

 Energy gradients wrt nuclear displacements
 ==========================================

     Atom      Cartesian (a.u./angstrom)
                 X         Y         Z
 ----------------------------------------
     1 H     0.000342  0.000919  0.000257
     2 C    -0.001729 -0.004100  0.000535
     3 C     0.000222  0.007315 -0.000990
     4 C    -0.005756  0.002372 -0.004440
     5 O     0.020607 -0.015755 -0.008054
     6 H     0.001830  0.000542  0.000441
     7 H     0.001482 -0.000737  0.000650
     8 H    -0.000516 -0.000258 -0.000424
     9 C    -0.000371  0.000131 -0.000134
    10 H    -0.000359 -0.000693 -0.000680
    11 H    -0.000163 -0.000112 -0.000323
    12 C    -0.002220 -0.001860  0.000656
    13 C    -0.003171  0.000510  0.000082
    14 C     0.000523  0.003258 -0.000580
    15 C     0.002580  0.001193 -0.002286
    16 C     0.002706 -0.001461  0.000563
    17 C    -0.000859 -0.002613  0.003035
    18 H     0.002223 -0.000598  0.000697
    19 H     0.000553 -0.001784  0.001190
    20 H    -0.002706  0.001051 -0.000221
    21 H    -0.000418  0.001844 -0.001400
    22 H     0.001955  0.001187 -0.000937
    23 H     0.001724 -0.002634  0.003051
    24 B    -0.009053  0.008108  0.004771
    25 F    -0.003429  0.001831  0.001663
    26 F    -0.003149  0.002083  0.000643
    27 F    -0.002847  0.000259  0.002235
 ----------------------------------------
 Mulliken charges used for AMS results%charges...

 dE(predicted):    -0.22631E-02, dE(actual):    -0.12268E-02, Trust radius:    0.800000, all in a.u.
 
----------------------------------------------------------------------
Geometry Convergence after Step   8       (Hartree/Angstrom,Angstrom)
----------------------------------------------------------------------
current energy                               -5.80171559 Hartree
energy change                      -0.00122683     0.00027000    F
constrained gradient max            0.02060669     0.00100000    F
constrained gradient rms            0.00387641     0.00066667    F
gradient max                        0.02060669
gradient rms                        0.00387641
cart. step max                      0.20769667     0.01000000    F
cart. step rms                      0.05105166     0.00666667    F
 
 
--------
Geometry
--------
Formula: C10H12BF3O
Atoms
  Index Symbol   x (angstrom)   y (angstrom)   z (angstrom)
      1      H     0.88147239    -1.39648927     0.84741104
      2      C    -0.84790453    -0.03480491     1.06442376
      3      C     0.25674984    -0.72943658     0.24390286
      4      C     1.15887678     0.19589767    -0.51930229
      5      O     2.28432594    -0.08558425    -0.88591277
      6      H    -1.25409795     0.76181336     0.42736302
      7      H    -0.19574904    -1.37493049    -0.52681644
      8      H     0.15642874    -0.07427025     3.01322460
      9      C    -0.26822935     0.65235046     2.31468470
     10      H     0.52705874     1.35441787     2.04205177
     11      H    -1.04610633     1.21130611     2.84220983
     12      C    -4.20501266    -2.62146807     2.01802582
     13      C    -4.38007085    -1.49320738     1.21802604
     14      C    -3.29048521    -0.67430115     0.91251758
     15      C    -2.00665692    -0.96019404     1.39530923
     16      C    -1.84877434    -2.09646121     2.20537480
     17      C    -2.93368304    -2.91866401     2.51200638
     18      H    -5.36244797    -1.24825201     0.82649588
     19      H    -3.44376922     0.20188834     0.28874125
     20      H    -0.87482595    -2.34605442     2.61281707
     21      H    -2.78388724    -3.79256096     3.13828145
     22      H    -5.04778235    -3.26359445     2.25246868
     23      H     0.75153975     1.20134218    -0.75494311
     24      B     3.91956658    -0.93272781    -1.66180114
     25      F     3.29415893    -1.99802610    -2.18577641
     26      F     4.58183874    -1.07250571    -0.50745220
     27      F     4.25795639     0.06932442    -2.47864747
 
Total System Charge             0.00000
 
 *** GOStep9 ***

 Energy gradients wrt nuclear displacements
 ==========================================

     Atom      Cartesian (a.u./angstrom)
                 X         Y         Z
 ----------------------------------------
     1 H     0.000138  0.000531 -0.000039
     2 C    -0.002683 -0.005355  0.000137
     3 C     0.001013  0.008999  0.001153
     4 C    -0.006295  0.001464 -0.006612
     5 O     0.020284 -0.015238 -0.005325
     6 H     0.001871  0.000886  0.000700
     7 H     0.001454 -0.001160  0.000140
     8 H    -0.000559 -0.000034 -0.000445
     9 C    -0.000184  0.000049  0.000154
    10 H    -0.000283 -0.000863 -0.000901
    11 H    -0.000203 -0.000119 -0.000381
    12 C    -0.002609 -0.001647  0.000973
    13 C    -0.003596  0.000296 -0.000041
    14 C     0.000535  0.003218 -0.001132
    15 C     0.003466  0.002267 -0.002985
    16 C     0.002889 -0.001380  0.001417
    17 C    -0.000548 -0.003189  0.002587
    18 H     0.002493 -0.000656  0.000746
    19 H     0.000550 -0.001965  0.001471
    20 H    -0.002815  0.001105 -0.000453
    21 H    -0.000408  0.002115 -0.001559
    22 H     0.002151  0.001396 -0.000963
    23 H     0.001845 -0.002781  0.003806
    24 B    -0.005952  0.006743  0.002573
    25 F    -0.003005  0.003984  0.002364
    26 F    -0.005311  0.002698 -0.001343
    27 F    -0.004239 -0.001366  0.003957
 ----------------------------------------
 Mulliken charges used for AMS results%charges...

 dE(predicted):    -0.31616E-02, dE(actual):    -0.16096E-02, Trust radius:    0.800000, all in a.u.
 
----------------------------------------------------------------------
Geometry Convergence after Step   9       (Hartree/Angstrom,Angstrom)
----------------------------------------------------------------------
current energy                               -5.80332515 Hartree
energy change                      -0.00160955     0.00027000    F
constrained gradient max            0.02028369     0.00100000    F
constrained gradient rms            0.00390065     0.00066667    F
gradient max                        0.02028369
gradient rms                        0.00390065
cart. step max                      0.19974805     0.01000000    F
cart. step rms                      0.04980672     0.00666667    F
 
 
--------
Geometry
--------
Formula: C10H12BF3O
Atoms
  Index Symbol   x (angstrom)   y (angstrom)   z (angstrom)
      1      H     0.83317725    -1.42214514     0.76215056
      2      C    -0.85629263    -0.02595058     1.07163519
      3      C     0.21065798    -0.71976145     0.19928282
      4      C     1.10407948     0.21423803    -0.56491823
      5      O     2.24669193    -0.03280704    -0.89704536
      6      H    -1.26928626     0.79452288     0.46987529
      7      H    -0.28650826    -1.32272668    -0.57992144
      8      H     0.21306709    -0.12931320     2.98660598
      9      C    -0.22544507     0.61893032     2.32038656
     10      H     0.57082275     1.31615019     2.03813055
     11      H    -0.97690901     1.17527070     2.88770804
     12      C    -4.20599783    -2.62307140     2.01419758
     13      C    -4.38789890    -1.48491459     1.23022946
     14      C    -3.30218497    -0.65861732     0.93168414
     15      C    -2.01561906    -0.94696050     1.40565879
     16      C    -1.85041883    -2.09492525     2.19744542
     17      C    -2.93184678    -2.92221652     2.50000068
     18      H    -5.37329643    -1.23645805     0.84716044
     19      H    -3.46045738     0.22474953     0.31847283
     20      H    -0.87190385    -2.34983510     2.59197565
     21      H    -2.77654314    -3.80459749     3.11380498
     22      H    -5.04674183    -3.26961415     2.24614614
     23      H     0.66199651     1.19876706    -0.83361231
     24      B     3.99225720    -0.94913642    -1.61701500
     25      F     3.39963004    -2.08830045    -1.98602836
     26      F     4.63954217    -0.89632716    -0.45334456
     27      F     4.24591772    -0.03014287    -2.54598190
 
Total System Charge             0.00000
 
 *** GOStep10 ***

 Energy gradients wrt nuclear displacements
 ==========================================

     Atom      Cartesian (a.u./angstrom)
                 X         Y         Z
 ----------------------------------------
     1 H    -0.000294  0.000075 -0.000250
     2 C    -0.003635 -0.005566 -0.000356
     3 C     0.002452  0.008395  0.003796
     4 C    -0.004889 -0.000297 -0.007812
     5 O     0.016839 -0.013212 -0.002120
     6 H     0.001389  0.001163  0.000833
     7 H     0.000902 -0.001491 -0.000827
     8 H    -0.000375  0.000351 -0.000271
     9 C     0.000029  0.000056  0.000585
    10 H    -0.000038 -0.000829 -0.000919
    11 H    -0.000171 -0.000064 -0.000303
    12 C    -0.001883 -0.001472 -0.000061
    13 C    -0.002834  0.000001  0.000049
    14 C     0.000248  0.002322 -0.000819
    15 C     0.003847  0.003387 -0.003064
    16 C     0.002301 -0.001717  0.000790
    17 C    -0.000270 -0.001771  0.002565
    18 H     0.001928 -0.000359  0.000628
    19 H     0.000437 -0.001642  0.000931
    20 H    -0.001949  0.000803 -0.000492
    21 H    -0.000219  0.001663 -0.001206
    22 H     0.001618  0.001152 -0.000661
    23 H     0.001400 -0.001710  0.003626
    24 B    -0.003730  0.005299  0.001092
    25 F    -0.001703  0.005991  0.002169
    26 F    -0.006710  0.002138 -0.003340
    27 F    -0.004689 -0.002665  0.005437
 ----------------------------------------
 Mulliken charges used for AMS results%charges...

 dE(predicted):    -0.39835E-02, dE(actual):    -0.22079E-02, Trust radius:    0.800000, all in a.u.
 
----------------------------------------------------------------------
Geometry Convergence after Step  10       (Hartree/Angstrom,Angstrom)
----------------------------------------------------------------------
current energy                               -5.80553306 Hartree
energy change                      -0.00220792     0.00027000    F
constrained gradient max            0.01683638     0.00100000    F
constrained gradient rms            0.00353583     0.00066667    F
gradient max                        0.01683638
gradient rms                        0.00353583
cart. step max                      0.20110761     0.01000000    F
cart. step rms                      0.04825090     0.00666667    F
 
 
--------
Geometry
--------
Formula: C10H12BF3O
Atoms
  Index Symbol   x (angstrom)   y (angstrom)   z (angstrom)
      1      H     0.78293556    -1.42858815     0.68332903
      2      C    -0.87025531    -0.00852389     1.07727539
      3      C     0.16497487    -0.69524014     0.15755291
      4      C     1.05340678     0.25289616    -0.59870922
      5      O     2.20881686     0.03843547    -0.90412846
      6      H    -1.29353076     0.83032091     0.50851883
      7      H    -0.37063608    -1.25447928    -0.62973813
      8      H     0.25806570    -0.16838413     2.95764456
      9      C    -0.19794322     0.59805502     2.32447666
     10      H     0.59322441     1.29934532     2.03742345
     11      H    -0.92876007     1.14239411     2.92955598
     12      C    -4.19975576    -2.63271471     2.01121157
     13      C    -4.39572058    -1.48210155     1.24943239
     14      C    -3.31790020    -0.64452985     0.95554570
     15      C    -2.02537785    -0.93324624     1.41288053
     16      C    -1.84576465    -2.09490630     2.18063030
     17      C    -2.91824138    -2.93554930     2.47488515
     18      H    -5.38724176    -1.23183575     0.88046232
     19      H    -3.48796522     0.25085726     0.36125270
     20      H    -0.86011009    -2.35238058     2.55866865
     21      H    -2.75147671    -3.82943878     3.07074399
     22      H    -5.03553103    -3.28811773     2.24142143
     23      H     0.58039356     1.21903949    -0.89429803
     24      B     4.07436158    -0.99651902    -1.57574814
     25      F     3.48775388    -2.17261516    -1.78492074
     26      F     4.70550464    -0.77224073    -0.42934712
     27      F     4.25726269    -0.17512509    -2.60133776
 
Total System Charge             0.00000
 
 *** GOStep11 ***

 Energy gradients wrt nuclear displacements
 ==========================================

     Atom      Cartesian (a.u./angstrom)
                 X         Y         Z
 ----------------------------------------
     1 H    -0.000712 -0.000116 -0.000277
     2 C    -0.004574 -0.004771 -0.000548
     3 C     0.003931  0.005676  0.005342
     4 C    -0.002487 -0.001882 -0.006356
     5 O     0.012409 -0.010379 -0.000407
     6 H     0.000669  0.001300  0.000816
     7 H    -0.000101 -0.001434 -0.001658
     8 H    -0.000061  0.000574  0.000075
     9 C     0.000282 -0.000062  0.000929
    10 H     0.000259 -0.000594 -0.000753
    11 H    -0.000155  0.000044 -0.000163
    12 C    -0.000871  0.000054  0.000209
    13 C    -0.001118 -0.000358  0.000198
    14 C    -0.000041  0.000397 -0.000363
    15 C     0.003767  0.003564 -0.003359
    16 C     0.000551 -0.001017  0.000824
    17 C     0.000404 -0.000724  0.000208
    18 H     0.000741 -0.000064  0.000026
    19 H     0.000088 -0.000466  0.000386
    20 H    -0.000442  0.000441 -0.000071
    21 H     0.000031  0.000664 -0.000355
    22 H     0.000536  0.000423 -0.000232
    23 H     0.000234  0.000219  0.002286
    24 B    -0.001118  0.003001 -0.000112
    25 F    -0.000382  0.007497  0.001465
    26 F    -0.007251  0.000993 -0.004562
    27 F    -0.004591 -0.002981  0.006453
 ----------------------------------------
 Mulliken charges used for AMS results%charges...
 Rebuilding optimization coordinates

 dE(predicted):    -0.42228E-02, dE(actual):    -0.25112E-02, Trust radius:    0.800000, all in a.u.
 
----------------------------------------------------------------------
Geometry Convergence after Step  11       (Hartree/Angstrom,Angstrom)
----------------------------------------------------------------------
current energy                               -5.80804427 Hartree
energy change                      -0.00251121     0.00027000    F
constrained gradient max            0.01240373     0.00100000    F
constrained gradient rms            0.00295789     0.00066667    F
gradient max                        0.01240373
gradient rms                        0.00295789
cart. step max                      0.20142270     0.01000000    F
cart. step rms                      0.05824826     0.00666667    F
 
 
--------
Geometry
--------
Formula: C10H12BF3O
Atoms
  Index Symbol   x (angstrom)   y (angstrom)   z (angstrom)
      1      H     0.71657459    -1.42719633     0.56809694
      2      C    -0.89402840     0.00767974     1.06691898
      3      C     0.10155308    -0.66227004     0.08655455
      4      C     0.98943007     0.30742904    -0.64923491
      5      O     2.15921847     0.12888652    -0.91716581
      6      H    -1.33517353     0.86342326     0.53832084
      7      H    -0.47374297    -1.16992193    -0.70684170
      8      H     0.31251002    -0.21569466     2.89268214
      9      C    -0.17036945     0.57133240     2.30575588
     10      H     0.60790334     1.28485013     2.01313646
     11      H    -0.87563154     1.09248181     2.96003150
     12      C    -4.19580431    -2.64378134     2.02780888
     13      C    -4.41347606    -1.47453137     1.30109752
     14      C    -3.34560892    -0.62702762     1.00157803
     15      C    -2.04123083    -0.92341293     1.41857332
     16      C    -1.83982103    -2.10364375     2.15105344
     17      C    -2.90311468    -2.95169932     2.45534071
     18      H    -5.41626408    -1.21601738     0.96606841
     19      H    -3.53265318     0.28206246     0.43132035
     20      H    -0.84188141    -2.37206191     2.49105496
     21      H    -2.71915197    -3.86140114     3.02396673
     22      H    -5.02519635    -3.30691375     2.26482043
     23      H     0.48766930     1.25264667    -0.97825908
     24      B     4.19719333    -1.05441900    -1.50334020
     25      F     3.60718831    -2.24018990    -1.58349805
     26      F     4.78497462    -0.68661191    -0.37566900
     27      F     4.33942345    -0.31919041    -2.59548739
 
Total System Charge             0.00000
 
 *** GOStep12 ***

 Energy gradients wrt nuclear displacements
 ==========================================

     Atom      Cartesian (a.u./angstrom)
                 X         Y         Z
 ----------------------------------------
     1 H    -0.000820 -0.000040  0.000012
     2 C    -0.004651 -0.002804 -0.000393
     3 C     0.003895  0.001853  0.003878
     4 C     0.000922 -0.002557 -0.002575
     5 O     0.007671 -0.006527 -0.000192
     6 H     0.000150  0.001065  0.000496
     7 H    -0.000629 -0.001067 -0.001643
     8 H     0.000240  0.000368  0.000421
     9 C     0.000328 -0.000435  0.000780
    10 H     0.000462 -0.000178 -0.000428
    11 H    -0.000096  0.000226  0.000053
    12 C     0.000667  0.000197 -0.001508
    13 C     0.000911 -0.000482  0.000386
    14 C    -0.000129 -0.001325  0.000599
    15 C     0.002418  0.003128 -0.001568
    16 C    -0.001420 -0.000784 -0.000240
    17 C     0.000283  0.001906  0.000596
    18 H    -0.000742  0.000506 -0.000107
    19 H    -0.000202  0.000659 -0.000696
    20 H     0.001151 -0.000274 -0.000029
    21 H     0.000274 -0.000731  0.000347
    22 H    -0.000654 -0.000456  0.000274
    23 H    -0.001073  0.002289  0.000015
    24 B     0.002805 -0.001284 -0.000149
    25 F    -0.000081  0.007665  0.001147
    26 F    -0.007326  0.000146 -0.005467
    27 F    -0.004357 -0.001064  0.005994
 ----------------------------------------
 Mulliken charges used for AMS results%charges...

 dE(predicted):    -0.23546E-02, dE(actual):    -0.24966E-02, Trust radius:    1.000000, all in a.u.
 
----------------------------------------------------------------------
Geometry Convergence after Step  12       (Hartree/Angstrom,Angstrom)
----------------------------------------------------------------------
current energy                               -5.81054089 Hartree
energy change                      -0.00249662     0.00027000    F
constrained gradient max            0.00767546     0.00100000    F
constrained gradient rms            0.00232552     0.00066667    F
gradient max                        0.00767546
gradient rms                        0.00232552
cart. step max                      0.20588250     0.01000000    F
cart. step rms                      0.04777597     0.00666667    F
 
 
--------
Geometry
--------
Formula: C10H12BF3O
Atoms
  Index Symbol   x (angstrom)   y (angstrom)   z (angstrom)
      1      H     0.67183995    -1.43156085     0.46417633
      2      C    -0.90248003     0.00915918     1.05277353
      3      C     0.05729906    -0.64246824     0.02340564
      4      C     0.94055895     0.34152924    -0.70047437
      5      O     2.11908559     0.18934347    -0.94309781
      6      H    -1.35244319     0.88192878     0.56087238
      7      H    -0.54945080    -1.11068068    -0.77051479
      8      H     0.36190007    -0.27141212     2.83099457
      9      C    -0.13616370     0.53385311     2.28273406
     10      H     0.63560614     1.25229367     1.98522791
     11      H    -0.81726613     1.03886996     2.97432005
     12      C    -4.19519029    -2.64204903     2.04710554
     13      C    -4.42288826    -1.46142824     1.34208754
     14      C    -3.35764059    -0.61470867     1.03114316
     15      C    -2.04578811    -0.92298893     1.41478327
     16      C    -1.83432059    -2.11463887     2.12568084
     17      C    -2.89456344    -2.96309484     2.43954885
     18      H    -5.43150297    -1.19364867     1.03256177
     19      H    -3.55301141     0.30437200     0.47984729
     20      H    -0.83082766    -2.39098367     2.44233738
     21      H    -2.70273308    -3.88154164     2.99142298
     22      H    -5.02235811    -3.30509437     2.29226938
     23      H     0.42117211     1.27289325    -1.04481561
     24      B     4.25757367    -1.07164128    -1.41894117
     25      F     3.67508053    -2.25987517    -1.37761555
     26      F     4.81741343    -0.57453286    -0.33084603
     27      F     4.37158870    -0.43708717    -2.57230322
 
Total System Charge             0.00000
 
 *** GOStep13 ***

 Energy gradients wrt nuclear displacements
 ==========================================

     Atom      Cartesian (a.u./angstrom)
                 X         Y         Z
 ----------------------------------------
     1 H    -0.000879 -0.000023 -0.000251
     2 C    -0.004889 -0.002866 -0.000271
     3 C     0.003847  0.001555  0.004241
     4 C     0.002366 -0.002985 -0.002291
     5 O     0.005627 -0.004977  0.000338
     6 H     0.000254  0.001000  0.000506
     7 H    -0.000768 -0.000755 -0.001764
     8 H     0.000255  0.000254  0.000441
     9 C     0.000242 -0.000591  0.000599
    10 H     0.000485 -0.000083 -0.000484
    11 H    -0.000088  0.000257  0.000127
    12 C     0.000510  0.000526 -0.000940
    13 C     0.000978 -0.000487  0.000403
    14 C    -0.000047 -0.001456  0.000593
    15 C     0.002394  0.003042 -0.001701
    16 C    -0.001625 -0.000700 -0.000083
    17 C     0.000437  0.001549  0.000002
    18 H    -0.000793  0.000443 -0.000233
    19 H    -0.000240  0.000820 -0.000601
    20 H     0.001196 -0.000164  0.000218
    21 H     0.000255 -0.000788  0.000440
    22 H    -0.000684 -0.000550  0.000235
    23 H    -0.001516  0.002501 -0.000383
    24 B     0.007590 -0.003863 -0.000775
    25 F     0.000219  0.011148  0.000482
    26 F    -0.009549 -0.001221 -0.008153
    27 F    -0.005577 -0.001586  0.009304
 ----------------------------------------
 Mulliken charges used for AMS results%charges...

 dE(predicted):    -0.12653E-02, dE(actual):    -0.82159E-03, Trust radius:    1.000000, all in a.u.
 
----------------------------------------------------------------------
Geometry Convergence after Step  13       (Hartree/Angstrom,Angstrom)
----------------------------------------------------------------------
current energy                               -5.81136248 Hartree
energy change                      -0.00082159     0.00027000    F
constrained gradient max            0.01114756     0.00100000    F
constrained gradient rms            0.00287938     0.00066667    F
gradient max                        0.01114756
gradient rms                        0.00287938
cart. step max                      0.20706086     0.01000000    F
cart. step rms                      0.05469595     0.00666667    F
 
 
--------
Geometry
--------
Formula: C10H12BF3O
Atoms
  Index Symbol   x (angstrom)   y (angstrom)   z (angstrom)
      1      H     0.61877804    -1.41390908     0.35514621
      2      C    -0.92024405     0.02475619     1.03072946
      3      C     0.00312587    -0.60489821    -0.04671688
      4      C     0.88509098     0.39619109    -0.74938297
      5      O     2.07143531     0.26525434    -0.96345297
      6      H    -1.38724900     0.90770542     0.57439462
      7      H    -0.63088442    -1.03554493    -0.83913742
      8      H     0.40719624    -0.29872446     2.75387395
      9      C    -0.11508520     0.51892972     2.24800079
     10      H     0.64068676     1.25265703     1.94728627
     11      H    -0.77564349     0.99676015     2.97783036
     12      C    -4.17808143    -2.65349688     2.06919256
     13      C    -4.42961510    -1.45466917     1.40387154
     14      C    -3.37520118    -0.60059161     1.07695747
     15      C    -2.05080124    -0.91894420     1.40578221
     16      C    -1.81498553    -2.12951950     2.07530357
     17      C    -2.86430436    -2.98627041     2.40354233
     18      H    -5.44832959    -1.17928133     1.13690388
     19      H    -3.58924280     0.33312499     0.55810513
     20      H    -0.80128473    -2.41455235     2.34885243
     21      H    -2.65374643    -3.91922634     2.92336090
     22      H    -4.99667776    -3.32249179     2.32670345
     23      H     0.35840588     1.32382637    -1.09501024
     24      B     4.31561897    -1.12709372    -1.31395927
     25      F     3.71994885    -2.30141601    -1.17055468
     26      F     4.85934998    -0.53186446    -0.26697872
     27      F     4.43222933    -0.59190350    -2.51596005
 
Total System Charge             0.00000
 
 *** GOStep14 ***

 Energy gradients wrt nuclear displacements
 ==========================================

     Atom      Cartesian (a.u./angstrom)
                 X         Y         Z
 ----------------------------------------
     1 H    -0.000464 -0.000100  0.000026
     2 C    -0.003795 -0.001664  0.000571
     3 C     0.002602  0.000330  0.003158
     4 C     0.002379 -0.003563 -0.003001
     5 O     0.002441 -0.002982  0.001596
     6 H     0.000075  0.000777  0.000377
     7 H    -0.000445 -0.000342 -0.001491
     8 H     0.000263  0.000165  0.000374
     9 C     0.000218 -0.000323  0.000334
    10 H     0.000455  0.000050 -0.000303
    11 H    -0.000039  0.000252  0.000214
    12 C     0.000467  0.000644 -0.000492
    13 C     0.001039 -0.000217  0.000453
    14 C    -0.000144 -0.001568  0.000368
    15 C     0.002176  0.002213 -0.001569
    16 C    -0.001485 -0.000337 -0.000294
    17 C     0.000424  0.001324 -0.000474
    18 H    -0.000819  0.000372 -0.000343
    19 H    -0.000311  0.000890 -0.000529
    20 H     0.001202 -0.000218  0.000263
    21 H     0.000270 -0.000774  0.000461
    22 H    -0.000680 -0.000557  0.000251
    23 H    -0.001488  0.003037 -0.000158
    24 B     0.008202 -0.004309 -0.001428
    25 F    -0.000265  0.008475 -0.000416
    26 F    -0.007461 -0.001009 -0.006120
    27 F    -0.004821 -0.000566  0.008170
 ----------------------------------------
 Mulliken charges used for AMS results%charges...

 dE(predicted):    -0.10972E-02, dE(actual):    -0.98456E-03, Trust radius:    1.000000, all in a.u.
 
----------------------------------------------------------------------
Geometry Convergence after Step  14       (Hartree/Angstrom,Angstrom)
----------------------------------------------------------------------
current energy                               -5.81234704 Hartree
energy change                      -0.00098456     0.00027000    F
constrained gradient max            0.00848837     0.00100000    F
constrained gradient rms            0.00239919     0.00066667    F
gradient max                        0.00848837
gradient rms                        0.00239919
cart. step max                      0.20814518     0.01000000    F
cart. step rms                      0.04979659     0.00666667    F
 
 
--------
Geometry
--------
Formula: C10H12BF3O
Atoms
  Index Symbol   x (angstrom)   y (angstrom)   z (angstrom)
      1      H     0.58102121    -1.40030705     0.25210697
      2      C    -0.92980224     0.02693450     1.00671319
      3      C    -0.03935807    -0.57733458    -0.11295150
      4      C     0.83603636     0.44081749    -0.79905988
      5      O     2.02803382     0.33096974    -0.99489430
      6      H    -1.40830311     0.92019500     0.58409705
      7      H    -0.69622158    -0.97929002    -0.90021216
      8      H     0.44899491    -0.33955270     2.67795635
      9      C    -0.09028707     0.49050971     2.21171847
     10      H     0.65334446     1.23575458     1.91007870
     11      H    -0.73096099     0.94409593     2.97390366
     12      C    -4.16990174    -2.65572730     2.09274277
     13      C    -4.43421423    -1.44155753     1.46072766
     14      C    -3.38474674    -0.58730611     1.11829169
     15      C    -2.05259847    -0.92200479     1.39562676
     16      C    -1.80386643    -2.14702180     2.03340307
     17      C    -2.84848119    -3.00414260     2.37713674
     18      H    -5.45872232    -1.15374548     1.23404873
     19      H    -3.60848467     0.35872508     0.62768583
     20      H    -0.78472350    -2.44392545     2.26928937
     21      H    -2.62816135    -3.94858889     2.87045897
     22      H    -4.98422152    -3.32439350     2.36231355
     23      H     0.29975867     1.36049630    -1.14792615
     24      B     4.35618448    -1.15115633    -1.21100655
     25      F     3.75908320    -2.30830350    -0.96240950
     26      F     4.89571685    -0.46178159    -0.21905166
     27      F     4.47537112    -0.72755177    -2.45610389
 
Total System Charge             0.00000
 
 *** GOStep15 ***

 Energy gradients wrt nuclear displacements
 ==========================================

     Atom      Cartesian (a.u./angstrom)
                 X         Y         Z
 ----------------------------------------
     1 H    -0.000140 -0.000103  0.000002
     2 C    -0.002632 -0.001393  0.000608
     3 C     0.001349  0.000881  0.001615
     4 C     0.001216 -0.002649 -0.002207
     5 O     0.001707 -0.001776  0.001504
     6 H     0.000236  0.000434  0.000195
     7 H    -0.000018 -0.000175 -0.000782
     8 H     0.000129  0.000011  0.000218
     9 C     0.000032 -0.000307 -0.000020
    10 H     0.000221  0.000023 -0.000285
    11 H    -0.000065  0.000149  0.000133
    12 C    -0.000001  0.000241  0.000013
    13 C     0.000373 -0.000218 -0.000086
    14 C    -0.000021 -0.000542  0.000384
    15 C     0.001758  0.001428 -0.001408
    16 C    -0.000686 -0.000074  0.000238
    17 C     0.000211  0.000333 -0.000208
    18 H    -0.000271  0.000212 -0.000119
    19 H    -0.000151  0.000418 -0.000161
    20 H     0.000505 -0.000092  0.000207
    21 H     0.000115 -0.000291  0.000136
    22 H    -0.000221 -0.000183  0.000092
    23 H    -0.000919  0.002030 -0.000053
    24 B     0.006168 -0.003071 -0.002879
    25 F    -0.000261  0.005568 -0.000961
    26 F    -0.004847 -0.000472 -0.003519
    27 F    -0.003787 -0.000383  0.007343
 ----------------------------------------
 Mulliken charges used for AMS results%charges...
 Rebuilding optimization coordinates

 dE(predicted):    -0.58300E-03, dE(actual):    -0.56695E-03, Trust radius:    1.000000, all in a.u.
 
----------------------------------------------------------------------
Geometry Convergence after Step  15       (Hartree/Angstrom,Angstrom)
----------------------------------------------------------------------
current energy                               -5.81291398 Hartree
energy change                      -0.00056695     0.00027000    F
constrained gradient max            0.00733650     0.00100000    F
constrained gradient rms            0.00173587     0.00066667    F
gradient max                        0.00733650
gradient rms                        0.00173587
cart. step max                      0.21036331     0.01000000    F
cart. step rms                      0.05240563     0.00666667    F
 
 
--------
Geometry
--------
Formula: C10H12BF3O
Atoms
  Index Symbol   x (angstrom)   y (angstrom)   z (angstrom)
      1      H     0.54220224    -1.37088896     0.16094042
      2      C    -0.94144253     0.04335214     0.98545914
      3      C    -0.08277757    -0.53750847    -0.17164970
      4      C     0.78608762     0.49457921    -0.84566366
      5      O     1.98175912     0.39911101    -1.03321685
      6      H    -1.43537999     0.94196071     0.59348651
      7      H    -0.76178308    -0.91565508    -0.95027475
      8      H     0.48697389    -0.35293410     2.60536377
      9      C    -0.07242849     0.48428169     2.17730765
     10      H     0.65509782     1.24512622     1.87638349
     11      H    -0.69621064     0.91003242     2.96882587
     12      C    -4.14503329    -2.67029824     2.10697972
     13      C    -4.43016091    -1.43758290     1.52143843
     14      C    -3.39215725    -0.57504148     1.16493054
     15      C    -2.05159944    -0.91772967     1.38678418
     16      C    -1.78171704    -2.16139756     1.97758984
     17      C    -2.81500333    -3.02736099     2.33417103
     18      H    -5.46143266    -1.14431109     1.33816131
     19      H    -3.63130715     0.38356898     0.70809977
     20      H    -0.75571416    -2.46612055     2.16718679
     21      H    -2.57880208    -3.98575921     2.79115692
     22      H    -4.94994583    -3.34659012     2.38438957
     23      H     0.24238511     1.40819783    -1.19466079
     24      B     4.37581334    -1.20409071    -1.09996457
     25      F     3.75893477    -2.32568680    -0.75204620
     26      F     4.92438044    -0.44165418    -0.16881162
     27      F     4.50975099    -0.89479277    -2.37768286
 
Total System Charge             0.00000
 
 *** GOStep16 ***

 Energy gradients wrt nuclear displacements
 ==========================================

     Atom      Cartesian (a.u./angstrom)
                 X         Y         Z
 ----------------------------------------
     1 H     0.000158 -0.000055  0.000189
     2 C    -0.000823 -0.000342  0.000745
     3 C    -0.000448  0.000407 -0.000277
     4 C    -0.001504 -0.000907 -0.000639
     5 O     0.002903 -0.000952  0.000700
     6 H     0.000108  0.000077  0.000024
     7 H     0.000184 -0.000069  0.000038
     8 H     0.000009 -0.000007  0.000030
     9 C     0.000039 -0.000017 -0.000146
    10 H     0.000014 -0.000026 -0.000045
    11 H    -0.000035  0.000040  0.000040
    12 C    -0.000097 -0.000201 -0.000165
    13 C    -0.000164  0.000314  0.000532
    14 C    -0.000057 -0.000206 -0.000470
    15 C     0.000922  0.000776 -0.000069
    16 C     0.000073 -0.000131 -0.000354
    17 C    -0.000063 -0.000030  0.000319
    18 H     0.000089 -0.000014 -0.000110
    19 H    -0.000022 -0.000067 -0.000085
    20 H    -0.000018 -0.000033  0.000009
    21 H     0.000007  0.000102  0.000006
    22 H     0.000081  0.000016 -0.000138
    23 H    -0.000385  0.000734 -0.000008
    24 B     0.003835 -0.000951 -0.001515
    25 F     0.000570  0.003281 -0.000548
    26 F    -0.003343 -0.001781 -0.003136
    27 F    -0.002034  0.000040  0.005072
 ----------------------------------------
 Mulliken charges used for AMS results%charges...

 dE(predicted):    -0.40873E-03, dE(actual):    -0.36915E-03, Trust radius:    1.000000, all in a.u.
 
----------------------------------------------------------------------
Geometry Convergence after Step  16       (Hartree/Angstrom,Angstrom)
----------------------------------------------------------------------
current energy                               -5.81328313 Hartree
energy change                      -0.00036915     0.00027000    F
constrained gradient max            0.00506066     0.00100000    F
constrained gradient rms            0.00112123     0.00066667    F
gradient max                        0.00506066
gradient rms                        0.00112123
cart. step max                      0.16062670     0.01000000    F
cart. step rms                      0.03726840     0.00666667    F
 
 
--------
Geometry
--------
Formula: C10H12BF3O
Atoms
  Index Symbol   x (angstrom)   y (angstrom)   z (angstrom)
      1      H     0.51785198    -1.35358583     0.09522585
      2      C    -0.94607181     0.05041591     0.96895460
      3      C    -0.10974932    -0.51291470    -0.21321260
      4      C     0.75327002     0.52796507    -0.88117077
      5      O     1.95024564     0.44031043    -1.06702849
      6      H    -1.44785026     0.95431175     0.59994249
      7      H    -0.80405777    -0.87464748    -0.98545766
      8      H     0.51400168    -0.37056291     2.55303052
      9      C    -0.05579185     0.47272866     2.15146762
     10      H     0.66335710     1.24164382     1.85136857
     11      H    -0.66601346     0.88120088     2.96233584
     12      C    -4.12896929    -2.67772361     2.11662702
     13      C    -4.42504096    -1.43370708     1.56113028
     14      C    -3.39376245    -0.56598337     1.19760794
     15      C    -2.04913328    -0.91701439     1.37780494
     16      C    -1.76812919    -2.17188972     1.93875287
     17      C    -2.79479773    -3.04262062     2.30313006
     18      H    -5.45967562    -1.13408269     1.41088576
     19      H    -3.64120650     0.40257026     0.76738109
     20      H    -0.73886171    -2.48213266     2.09816063
     21      H    -2.55016765    -4.00999718     2.73578501
     22      H    -4.92865872    -3.35659934     2.40222535
     23      H     0.20445608     1.43784139    -1.22916777
     24      B     4.37886405    -1.22930456    -1.01688941
     25      F     3.74927854    -2.31764697    -0.59141950
     26      F     4.93848250    -0.40992922    -0.13995228
     27      F     4.51861985    -1.01383850    -2.31283402
 
Total System Charge             0.00000
 
 *** GOStep17 ***

 Energy gradients wrt nuclear displacements
 ==========================================

     Atom      Cartesian (a.u./angstrom)
                 X         Y         Z
 ----------------------------------------
     1 H     0.000247 -0.000056  0.000139
     2 C    -0.000015 -0.000004  0.000527
     3 C    -0.000846  0.000452 -0.000921
     4 C    -0.002669  0.000278  0.000162
     5 O     0.003174 -0.000667  0.000300
     6 H     0.000091 -0.000048 -0.000022
     7 H     0.000284 -0.000028  0.000392
     8 H    -0.000043 -0.000037 -0.000048
     9 C    -0.000038  0.000026 -0.000264
    10 H    -0.000072 -0.000050  0.000028
    11 H    -0.000026 -0.000028 -0.000013
    12 C    -0.000156 -0.000162  0.000259
    13 C    -0.000316  0.000014 -0.000287
    14 C    -0.000115  0.000314  0.000008
    15 C     0.000448  0.000058 -0.000236
    16 C     0.000348  0.000136  0.000033
    17 C    -0.000141 -0.000427  0.000049
    18 H     0.000240 -0.000063  0.000013
    19 H     0.000053 -0.000192  0.000133
    20 H    -0.000254  0.000067  0.000099
    21 H    -0.000038  0.000228 -0.000108
    22 H     0.000193  0.000184 -0.000033
    23 H    -0.000043 -0.000133 -0.000060
    24 B     0.001712 -0.000486 -0.003444
    25 F     0.000575  0.001351 -0.000462
    26 F    -0.001287 -0.000568 -0.001092
    27 F    -0.001308 -0.000162  0.004849
 ----------------------------------------
 Mulliken charges used for AMS results%charges...

 dE(predicted):    -0.86802E-04, dE(actual):    -0.11713E-03, Trust radius:    1.000000, all in a.u.
 
----------------------------------------------------------------------
Geometry Convergence after Step  17       (Hartree/Angstrom,Angstrom)
----------------------------------------------------------------------
current energy                               -5.81340027 Hartree
energy change                      -0.00011713     0.00027000    T
constrained gradient max            0.00484668     0.00100000    F
constrained gradient rms            0.00091285     0.00066667    F
gradient max                        0.00484668
gradient rms                        0.00091285
cart. step max                      0.20851385     0.01000000    F
cart. step rms                      0.05178049     0.00666667    F
 
 
--------
Geometry
--------
Formula: C10H12BF3O
Atoms
  Index Symbol   x (angstrom)   y (angstrom)   z (angstrom)
      1      H     0.48421930    -1.33397074     0.00501669
      2      C    -0.94920254     0.05782802     0.94429789
      3      C    -0.14579371    -0.48398314    -0.27064400
      4      C     0.70763722     0.56601797    -0.93683775
      5      O     1.90488217     0.48714203    -1.12433831
      6      H    -1.45949761     0.96916140     0.60663432
      7      H    -0.86240830    -0.82478985    -1.03171731
      8      H     0.55330572    -0.39596489     2.47848095
      9      C    -0.02774792     0.45529551     2.11136821
     10      H     0.68223362     1.23194638     1.80962206
     11      H    -0.61662318     0.84431162     2.94713986
     12      C    -4.10517813    -2.68533375     2.13249112
     13      C    -4.41374352    -1.42398727     1.62498879
     14      C    -3.39129733    -0.55336306     1.24372050
     15      C    -2.04327661    -0.91608439     1.36516923
     16      C    -1.74945651    -2.18712891     1.88125175
     17      C    -2.76736697    -3.06199536     2.26000020
     18      H    -5.45139940    -1.11524184     1.52141648
     19      H    -3.64821878     0.42736744     0.84818056
     20      H    -0.71704942    -2.50762754     1.99213909
     21      H    -2.51308522    -4.04253591     2.65585487
     22      H    -4.89809974    -3.36836001     2.42694597
     23      H     0.15077199     1.47052991    -1.28361448
     24      B     4.37130250    -1.25398874    -0.89006496
     25      F     3.71597067    -2.29205994    -0.38290565
     26      F     4.93407393    -0.37813204    -0.07732890
     27      F     4.53553766    -1.15024554    -2.20258325
 
Total System Charge             0.00000
 
 *** GOStep18 ***

 Energy gradients wrt nuclear displacements
 ==========================================

     Atom      Cartesian (a.u./angstrom)
                 X         Y         Z
 ----------------------------------------
     1 H     0.000178 -0.000042 -0.000009
     2 C     0.000586  0.000306  0.000364
     3 C    -0.000590  0.000523 -0.000901
     4 C    -0.002502  0.001520  0.000445
     5 O     0.002303 -0.000606 -0.000007
     6 H     0.000045 -0.000097 -0.000030
     7 H     0.000213  0.000026  0.000460
     8 H    -0.000020 -0.000009 -0.000083
     9 C    -0.000093  0.000039 -0.000340
    10 H    -0.000084 -0.000052  0.000069
    11 H    -0.000008 -0.000081 -0.000053
    12 C    -0.000128 -0.000397 -0.000262
    13 C    -0.000300  0.000431  0.000746
    14 C    -0.000119  0.000101 -0.000688
    15 C    -0.000194 -0.000281  0.000266
    16 C     0.000432  0.000129 -0.000005
    17 C    -0.000139 -0.000290  0.000406
    18 H     0.000251 -0.000126 -0.000013
    19 H     0.000104 -0.000277  0.000066
    20 H    -0.000339  0.000011 -0.000111
    21 H    -0.000057  0.000254 -0.000090
    22 H     0.000187  0.000108 -0.000227
    23 H     0.000210 -0.001016 -0.000130
    24 B     0.001211  0.003373  0.006007
    25 F     0.000709 -0.000140  0.001235
    26 F    -0.002541 -0.004422 -0.003183
    27 F     0.000687  0.001013 -0.003934
 ----------------------------------------
 Mulliken charges used for AMS results%charges...

 dE(predicted):    -0.74906E-04, dE(actual):    -0.38512E-04, Trust radius:    1.000000, all in a.u.
 
----------------------------------------------------------------------
Geometry Convergence after Step  18       (Hartree/Angstrom,Angstrom)
----------------------------------------------------------------------
current energy                               -5.81343878 Hartree
energy change                      -0.00003851     0.00027000    T
constrained gradient max            0.00600032     0.00100000    F
constrained gradient rms            0.00124118     0.00066667    F
gradient max                        0.00600032
gradient rms                        0.00124118
cart. step max                      0.21229428     0.01000000    F
cart. step rms                      0.04528853     0.00666667    F
 
 
--------
Geometry
--------
Formula: C10H12BF3O
Atoms
  Index Symbol   x (angstrom)   y (angstrom)   z (angstrom)
      1      H     0.46036555    -1.32334940    -0.06172684
      2      C    -0.94644592     0.05959877     0.92941668
      3      C    -0.16992396    -0.46552988    -0.31034471
      4      C     0.67516621     0.59130082    -0.97679839
      5      O     1.87045203     0.51422312    -1.17542677
      6      H    -1.45954897     0.97855423     0.61748954
      7      H    -0.90463515    -0.78879844    -1.06205825
      8      H     0.58436863    -0.42575448     2.42601130
      9      C    -0.00069636     0.43361153     2.08505270
     10      H     0.70606411     1.21309936     1.78297845
     11      H    -0.57172217     0.80995891     2.93882694
     12      C    -4.09025886    -2.68908297     2.13755514
     13      C    -4.40291900    -1.41496005     1.66589549
     14      C    -3.38458060    -0.54264393     1.27760518
     15      C    -2.03656961    -0.91665208     1.35628566
     16      C    -1.73847518    -2.20106187     1.83552944
     17      C    -2.75228687    -3.07717167     2.22191144
     18      H    -5.44087880    -1.09736857     1.59599696
     19      H    -3.64473636     0.44810000     0.90971574
     20      H    -0.70570240    -2.53086210     1.91155840
     21      H    -2.49483014    -4.06811475     2.58920298
     22      H    -4.88026012    -3.37345597     2.43728700
     23      H     0.11066877     1.49426228    -1.31512104
     24      B     4.35625438    -1.25974082    -0.79577561
     25      F     3.69113090    -2.22504241    -0.17061136
     26      F     4.94919381    -0.30153621    -0.08957062
     27      F     4.50129597    -1.30677608    -2.10620151
 
[...]
     6     H       0.462760  -0.821723   0.281212
     7     H       0.022855   0.008462   0.024779
     8     H      -0.044244   0.069971  -0.026564
     9     C       0.002703  -0.009643   0.000819
    10     H       0.035864   0.034011  -0.017955
    11     H      -0.024752   0.011138   0.032818
    12     C       0.000050  -0.000109   0.000038
    13     C       0.000151   0.000118  -0.000072
    14     C       0.000232  -0.002990   0.001143
    15     C      -0.001106   0.000986  -0.000329
    16     C      -0.000524  -0.000190   0.000096
    17     C      -0.000195   0.000070  -0.000019
    18     H       0.002924  -0.000629   0.000131
    19     H      -0.004351   0.028880  -0.010777
    20     H       0.007142  -0.002684   0.000829
    21     H       0.000455  -0.000251   0.000076
    22     H       0.000352  -0.000130   0.000094
    23     H       0.009615  -0.023226   0.007558
    24     B       0.000046   0.000024  -0.000032
    25     F      -0.000007  -0.000008   0.000008
    26     F      -0.000007  -0.000006   0.000000
    27     F      -0.000005  -0.000001   0.000010
 
 Mode:    73      Frequency (cm-1):     3000.0675     Intensity (km/mol):       17.1093
 Index  Atom      ---- Displacements (x/y/z) ----
     1     H       0.005391  -0.005576   0.001044
     2     C       0.000548  -0.000018   0.000901
     3     C       0.002124   0.001774   0.002747
     4     C      -0.000120  -0.000379   0.000099
     5     O       0.000167   0.000069   0.000066
     6     H      -0.002722   0.003079  -0.002240
     7     H      -0.031794  -0.015334  -0.033904
     8     H       0.282097  -0.449405   0.171693
     9     C      -0.032635  -0.015701  -0.033862
    10     H       0.400304   0.440287  -0.187974
    11     H      -0.299759   0.190320   0.410279
    12     C      -0.000031  -0.000013  -0.000009
    13     C      -0.000099   0.000049   0.000009
    14     C      -0.000142  -0.000130   0.000030
    15     C       0.000397   0.000523  -0.000260
    16     C       0.001123  -0.000401   0.000207
    17     C      -0.000023  -0.000050   0.000026
    18     H       0.000864  -0.000415   0.000171
    19     H       0.000211   0.000033  -0.000135
    20     H      -0.012469   0.004438  -0.000918
    21     H       0.000013  -0.000354   0.000199
    22     H       0.000050  -0.000053  -0.000006
    23     H      -0.001136   0.002679  -0.000724
    24     B      -0.000018  -0.000034  -0.000066
    25     F       0.000000   0.000006   0.000010
    26     F       0.000005   0.000012   0.000013
    27     F       0.000002   0.000003   0.000016
 
 Mode:    74      Frequency (cm-1):     3072.7836     Intensity (km/mol):       21.6400
 Index  Atom      ---- Displacements (x/y/z) ----
     1     H      -0.141493   0.187248  -0.059663
     2     C      -0.001465   0.004161  -0.001842
     3     C       0.015574  -0.013747   0.009271
     4     C       0.000948  -0.000140   0.000222
     5     O      -0.000311   0.000028  -0.000061
     6     H       0.023260  -0.041750   0.017026
     7     H      -0.048677  -0.027174  -0.049964
     8     H       0.281784  -0.406755   0.154276
     9     C       0.031284   0.066247  -0.050681
    10     H      -0.485692  -0.519507   0.210562
    11     H      -0.172192   0.134237   0.240725
    12     C       0.000069   0.000004  -0.000020
    13     C      -0.000052   0.000112  -0.000039
    14     C       0.000015  -0.000859   0.000392
    15     C      -0.000170  -0.000021  -0.000115
    16     C       0.001132  -0.000439   0.000257
    17     C      -0.000112   0.000209  -0.000039
    18     H       0.001536  -0.000494   0.000047
    19     H      -0.002203   0.009714  -0.003680
    20     H      -0.012416   0.003750  -0.001261
    21     H       0.000819  -0.002949   0.001118
    22     H      -0.000379  -0.000459   0.000155
    23     H      -0.001897   0.002575  -0.001323
    24     B      -0.000029   0.000059   0.000004
    25     F       0.000018  -0.000019   0.000008
    26     F       0.000005  -0.000011  -0.000003
    27     F       0.000005  -0.000006  -0.000003
 
 Mode:    75      Frequency (cm-1):     3076.5071     Intensity (km/mol):        8.4681
 Index  Atom      ---- Displacements (x/y/z) ----
     1     H      -0.515818   0.680102  -0.212964
     2     C       0.002704  -0.004833   0.002799
     3     C       0.057425  -0.049705   0.032613
     4     C       0.003089  -0.001761   0.000477
     5     O      -0.000753   0.000334   0.000088
     6     H      -0.034423   0.059257  -0.017041
     7     H      -0.179309  -0.097199  -0.183989
     8     H       0.016269  -0.037693   0.017806
     9     C      -0.025962  -0.000112   0.022186
    10     H       0.131639   0.149386  -0.057010
    11     H       0.159798  -0.108544  -0.229871
    12     C      -0.000031  -0.000033  -0.000000
    13     C       0.000121  -0.000081   0.000050
    14     C      -0.000088   0.000892  -0.000417
    15     C      -0.000013  -0.000263  -0.000170
    16     C      -0.003437   0.001135  -0.000242
    17     C       0.000221  -0.000385   0.000171
    18     H      -0.002231   0.000719  -0.000139
    19     H       0.002172  -0.009959   0.003824
    20     H       0.039320  -0.012103   0.003480
    21     H      -0.001732   0.006421  -0.002310
    22     H       0.000249   0.000416  -0.000194
    23     H      -0.010365   0.021007  -0.007315
    24     B      -0.000058  -0.000096   0.000046
    25     F       0.000089   0.000002  -0.000017
    26     F       0.000007   0.000018   0.000003
    27     F       0.000003   0.000008  -0.000008
 
 Mode:    76      Frequency (cm-1):     3081.8876     Intensity (km/mol):       20.3498
 Index  Atom      ---- Displacements (x/y/z) ----
     1     H      -0.148230   0.195534  -0.058791
     2     C       0.005033  -0.008027   0.002344
     3     C       0.016203  -0.014034   0.009448
     4     C       0.000964  -0.000858   0.000339
     5     O      -0.000220   0.000123  -0.000023
     6     H      -0.051964   0.087646  -0.030238
     7     H      -0.050487  -0.026802  -0.052115
     8     H      -0.319911   0.504015  -0.212975
     9     C       0.060096  -0.058096  -0.028886
    10     H      -0.019342  -0.051442   0.009457
    11     H      -0.378855   0.243309   0.547090
    12     C      -0.000025  -0.000013   0.000011
    13     C       0.000142  -0.000109   0.000034
    14     C      -0.000307   0.001393  -0.000479
    15     C      -0.000086  -0.000107   0.000158
    16     C      -0.004701   0.001359  -0.000390
    17     C       0.000335  -0.000623   0.000207
    18     H      -0.002962   0.000883  -0.000233
    19     H       0.003540  -0.015570   0.005667
    20     H       0.053585  -0.016463   0.004296
    21     H      -0.002598   0.009590  -0.003663
    22     H      -0.000045   0.000245  -0.000072
    23     H      -0.004226   0.009312  -0.003100
    24     B      -0.000093  -0.000046   0.000117
    25     F       0.000051   0.000007  -0.000029
    26     F       0.000014   0.000007  -0.000007
    27     F       0.000009   0.000001  -0.000030
 
 Mode:    77      Frequency (cm-1):     3116.0218     Intensity (km/mol):        7.5984
 Index  Atom      ---- Displacements (x/y/z) ----
     1     H      -0.001095   0.000992   0.000092
     2     C       0.000873  -0.001920   0.000678
     3     C       0.000118   0.000007  -0.000051
     4     C       0.000063  -0.000119   0.000005
     5     O      -0.000008   0.000015   0.000004
     6     H      -0.010786   0.025069  -0.008804
     7     H      -0.000090  -0.000301  -0.000171
     8     H      -0.002890   0.003514  -0.001751
     9     C       0.000004  -0.000502   0.000181
    10     H       0.003568   0.003675  -0.001090
    11     H      -0.000246  -0.000007   0.000674
    12     C       0.015322   0.013259  -0.005670
    13     C      -0.037851   0.012814  -0.003455
    14     C       0.017314  -0.061554   0.022954
    15     C      -0.002322  -0.000952   0.000447
    16     C      -0.008319   0.003600  -0.001087
    17     C       0.004274  -0.016129   0.006042
    18     H       0.462296  -0.141845   0.036585
    19     H      -0.190719   0.723740  -0.270287
    20     H       0.103674  -0.033774   0.009258
    21     H      -0.050760   0.193618  -0.072512
    22     H      -0.187050  -0.162840   0.069564
    23     H      -0.000473   0.001062  -0.000277
    24     B       0.000004  -0.000013   0.000004
    25     F       0.000000   0.000004  -0.000002
    26     F      -0.000001   0.000002  -0.000000
    27     F      -0.000001   0.000001  -0.000001
 
 Mode:    78      Frequency (cm-1):     3124.6419     Intensity (km/mol):        0.3901
 Index  Atom      ---- Displacements (x/y/z) ----
     1     H       0.018087  -0.023459   0.007093
     2     C      -0.000649   0.001220  -0.000447
     3     C      -0.001863   0.001656  -0.000914
     4     C      -0.000073   0.000180  -0.000070
     5     O      -0.000004  -0.000024   0.000011
     6     H       0.006865  -0.014087   0.004854
     7     H       0.004360   0.002533   0.004576
     8     H       0.016750  -0.025088   0.010372
     9     C      -0.001419   0.002684  -0.000261
    10     H      -0.005579  -0.005348   0.002359
    11     H       0.005998  -0.003494  -0.008984
    12     C       0.024525   0.022390  -0.009524
    13     C      -0.004669   0.000035   0.000169
    14     C      -0.008272   0.031989  -0.011963
    15     C       0.000802  -0.000532   0.000177
    16     C      -0.034218   0.011639  -0.003233
    17     C       0.013643  -0.052450   0.019652
    18     H       0.049800  -0.013832   0.003375
    19     H       0.096205  -0.368036   0.137499
    20     H       0.413621  -0.129322   0.034857
    21     H      -0.161346   0.619840  -0.232168
    22     H      -0.300174  -0.261521   0.111720
    23     H       0.000698  -0.001817   0.000642
    24     B       0.000024   0.000006  -0.000017
    25     F      -0.000009  -0.000001   0.000004
    26     F      -0.000004  -0.000001   0.000000
    27     F      -0.000003   0.000001   0.000005
 
 Mode:    79      Frequency (cm-1):     3134.5075     Intensity (km/mol):       12.3756
 Index  Atom      ---- Displacements (x/y/z) ----
     1     H      -0.013456   0.017716  -0.005649
     2     C      -0.000154   0.000655  -0.000229
     3     C       0.001329  -0.001406   0.000766
     4     C       0.000022   0.000052   0.000029
     5     O      -0.000029  -0.000008  -0.000001
     6     H       0.002687  -0.008892   0.003226
     7     H      -0.003131  -0.001692  -0.003429
     8     H      -0.011172   0.017351  -0.006909
     9     C       0.001064  -0.001737   0.000218
    10     H       0.001104   0.001103  -0.001197
    11     H      -0.003711   0.002302   0.005452
    12     C       0.031363   0.024621  -0.010632
    13     C      -0.048902   0.012605  -0.002950
    14     C      -0.007401   0.030653  -0.011480
    15     C       0.001812   0.001011  -0.000451
    16     C       0.037016  -0.012903   0.003615
    17     C      -0.007203   0.020553  -0.007630
    18     H       0.556627  -0.165903   0.042154
    19     H       0.088779  -0.340442   0.127191
    20     H      -0.437018   0.137944  -0.037308
    21     H       0.064197  -0.239759   0.089722
    22     H      -0.351059  -0.302075   0.129209
    23     H       0.000052   0.000157  -0.000203
    24     B      -0.000010  -0.000005   0.000008
    25     F       0.000005   0.000001  -0.000002
    26     F       0.000001   0.000001  -0.000000
    27     F       0.000001   0.000000  -0.000002
 
 Mode:    80      Frequency (cm-1):     3142.8511     Intensity (km/mol):       28.8010
 Index  Atom      ---- Displacements (x/y/z) ----
     1     H      -0.018409   0.023987  -0.007464
     2     C       0.000515  -0.000573   0.000216
     3     C       0.001870  -0.001762   0.000949
     4     C       0.000063  -0.000109   0.000072
     5     O      -0.000017   0.000014  -0.000009
     6     H      -0.003447   0.004019  -0.001265
     7     H      -0.004220  -0.002417  -0.004523
     8     H      -0.016313   0.024818  -0.010041
     9     C       0.001468  -0.002467   0.000307
    10     H       0.003322   0.003188  -0.001803
    11     H      -0.005150   0.003050   0.007693
    12     C       0.017902   0.019316  -0.008092
    13     C       0.041963  -0.012787   0.003290
    14     C       0.002058  -0.015920   0.006035
    15     C      -0.000841   0.002191  -0.000812
    16     C       0.056771  -0.016788   0.004384
    17     C       0.005659  -0.032501   0.012280
    18     H      -0.471109   0.142593  -0.036537
    19     H      -0.041770   0.170013  -0.063637
    20     H      -0.645141   0.199849  -0.053601
    21     H      -0.090364   0.359603  -0.134837
    22     H      -0.223961  -0.199274   0.084962
    23     H      -0.000491   0.001448  -0.000607
    24     B      -0.000030  -0.000027   0.000027
    25     F       0.000012   0.000008  -0.000008
    26     F       0.000005   0.000005  -0.000000
    27     F       0.000003   0.000002  -0.000007
 
 Mode:    81      Frequency (cm-1):     3151.4102     Intensity (km/mol):       12.0651
 Index  Atom      ---- Displacements (x/y/z) ----
     1     H      -0.007346   0.009661  -0.003092
     2     C       0.000091   0.000190  -0.000076
     3     C       0.000683  -0.000780   0.000394
     4     C       0.000067   0.000056  -0.000001
     5     O      -0.000057  -0.000008   0.000010
     6     H       0.000457  -0.003575   0.001356
     7     H      -0.001367  -0.000841  -0.001666
     8     H      -0.006159   0.009661  -0.003830
     9     C       0.000605  -0.000855   0.000142
    10     H      -0.000223  -0.000272  -0.000379
    11     H      -0.001620   0.001062   0.002521
    12     C      -0.043211  -0.037076   0.015867
    13     C      -0.035587   0.012550  -0.003449
    14     C      -0.001697   0.011342  -0.004287
    15     C       0.000572   0.001149  -0.000459
    16     C       0.029801  -0.007656   0.001856
    17     C       0.012163  -0.041852   0.015631
    18     H       0.395176  -0.121785   0.031486
    19     H       0.029202  -0.117961   0.044134
    20     H      -0.326907   0.099703  -0.026544
    21     H      -0.121701   0.460941  -0.172586
    22     H       0.476079   0.412828  -0.176441
    23     H       0.000036   0.000060  -0.000134
    24     B       0.000020  -0.000010  -0.000008
    25     F      -0.000003   0.000002   0.000001
    26     F      -0.000003   0.000001   0.000000
    27     F      -0.000003   0.000002   0.000004

PES point character: Geometry corresponds to a local minimum on the PES.
                     (Hint: Very small negative frequencies do not count towards being a
                     transition state, as they usually indicate noise on a very flat PES. See
                     the PESPointCharacter%NegativeFrequenciesTolerance keyword documentation.)




 ============================
 Statistical Thermal Analysis  ***  ideal gas assumed  ***
 ============================
  
 Pressure:                  1.000000 atm.
 Temperature:             298.150000 K



 Moments of Inertia [amu*bohr^2] and principal axis
 ==================================================

        1516.2279       9156.3266       9728.1749
 ------------------------------------------------
           0.9323         -0.1972          0.3033
           0.0964          0.9435          0.3171
          -0.3487         -0.2664          0.8986


 The rotational contribution to the molecular entropy includes
 a term, dependent on the symmetry number sigma. The results 
 reported below were computed using sigma = 1, determined from
 the point group symmetry of the input geometry (NOSYM). 
 If this is not the correct symmetry, try symmetrizing the molecule before
 running the calculation (note: linear molecules should be aligned along one
 of the Cartesian axes).
 Contributions from frequencies below 20 1/cm are not included in vibrational sums.
 Their contributions, if any, are reported separately.


     Temp                                                        Transl      Rotat     Vibrat     Total
     ----                                                        ------      -----     ------     -----

     298.15   Entropy (cal/mol-K):                               42.015     33.268     48.130    123.413
              Nuclear Internal Energy (kcal/mol):                 0.889      0.889    133.974    135.752
              Constant Volume Heat Capacity (cal/mol-K):          2.981      2.981     44.784     50.745
          (c) Constant Volume Heat Capacity (cal/mol-K):          2.981      2.981     41.353     47.315

 Contributions from frequencies below 20 1/cm
 Frequency (1/cm):                                   12.689    14.503
 Entropy (cal/mol-K):                                 7.538     7.272
 Nuclear Internal Energy (kcal/mol):                  0.593     0.593
 Constant Volume Heat Capacity (cal/mol-K):           1.987     1.986

       Summary of energy terms
                                                   hartree              eV         kcal/mol           kJ/mol
                                      --------------------     -----------       ----------      -----------
      Energy from Engine:               -5.813535808376906       -158.1944         -3648.05        -15263.44
      Nuclear Internal Energy:           0.216333853798426          5.8867           135.75           567.98
  (c) Nuclear Internal Energy:           0.214573688171865          5.8388           134.65           563.36
      Internal Energy U:                -5.597201954578479       -152.3076         -3512.30        -14695.45
      pV/n = RT:                         0.000944186013486          0.0257             0.59             2.48
      Enthalpy H:                       -5.596257768564993       -152.2819         -3511.71        -14692.97
      -T*S:                             -0.058637402370246         -1.5956           -36.80          -153.95
  (c) -T*S:                             -0.060255498742307         -1.6396           -37.81          -158.20
      Gibbs free energy:                -5.654895170935239       -153.8775         -3548.50        -14846.93
 
 
 
  (c) The properties marked with this symbol have been corrected using 'low vibrational frequency free rotor
      interpolation corrections'. For those terms all positive frequencies are used (also ones below 20 1/cm),
      but the contribution to the partition function of small vibrational frequencies is modified as described
      in the following paper:
      S. Grimme, 'Supramolecular Binding Thermodynamics by Dispersion-Corrected Density Functional Theory'
      (Chem. Eur. J. 2012, 18, 9955-9964)
      Configuration: Dampener Frequency          :   100.000 1/cm
                     Dampener Alpha              :     4.000
                     Averaging Moment of Inertia : 1.000E-44 kg m2

--------------
Atomic charges
--------------
  Index   Atom    Charge
      1      H   -0.1488
      2      C    0.1446
      3      C    0.4268
      4      C    0.6623
      5      O   -0.5128
      6      H   -0.1965
      7      H   -0.1896
      8      H   -0.2111
      9      C    0.6915
     10      H   -0.2327
     11      H   -0.2376
     12      C    0.2367
     13      C    0.2414
     14      C    0.2745
     15      C    0.0417
     16      C    0.3027
     17      C    0.2477
     18      H   -0.2492
     19      H   -0.2653
     20      H   -0.2599
     21      H   -0.2500
     22      H   -0.2461
     23      H   -0.2642
     24      B    1.5088
     25      F   -0.5092
     26      F   -0.5019
     27      F   -0.5037


Dipole moment vector    (Debye):    -3.04673907   -0.03108780    1.04977313
              magnitude (Debye):     3.22267110


Final PES point is a local minimum. Geometry optimization successful!


AMS application finished. Exiting.
NORMAL TERMINATION
     Total cpu time:   72164.87
  Total system time:     429.87
 Total elapsed time:  139575.83
