

 Parallel Execution: Process Information
 ==============================================================================
 Rank   Node Name                              NodeID   MyNodeRank  NodeMaster
    0   node115                                   0          0          0
    1   node115                                   0          1         -1
    2   node115                                   0          2         -1
    3   node115                                   0          3         -1
 ==============================================================================


May use up to 122928MB of RAM as shared memory on node 0

 *******************************************************************************
 *                                                                             *
 *  --------------------------------                                           *
 *   Amsterdam Modeling Suite (AMS)              2021.102                      *
 *  --------------------------------                                           *
 *                                               r95042 2021-06-07             *
 *                                                                             *
 *                                                                             *
 *                              =================                              *
 *                              |               |                              *
 *                              |     A M S     |                              *
 *                              |               |                              *
 *                              =================                              *
 *                                                                             *
 *                                                                             *
 *   Online information and documentation:  https://www.scm.com/support/       *
 *   E-mail:  support@scm.com   info@scm.com                                   *
 *                                                                             *
 *   Scientific publications using AMS results must be properly referenced     *
 *   See the User Manuals (or the web site) for recommended citations          *
 *   The terms and conditions of the End User License Agreement apply to       *
 *   the use of AMS, https://www.scm.com/license-terms/                        *
 *                                                                             *
 **********************  x86_64_linux_intel / intelmpi  ************************
 
 Licensed to: VU/FEW (+ SARA) / ALGEMEEN / Amsterdam / THE NETHERLANDS
 SCM User ID: u7668
  
 AMS 2021.102  RunTime: Jan23-2022 22:49:53  ShM Nodes: 1  Procs: 4

 AMS jobname: 24.achiral_catalyst.H_H_AlF3.P2
 AMS jobid  : 302462233

 Start   directory: /scistor/tc/yhk800/MasterProject/calculations/achiral_catalyst_H_H_AlF3/24.achiral_catalyst.H_H_AlF3.P2/
 Results directory: /scistor/tc/yhk800/MasterProject/calculations/achiral_catalyst_H_H_AlF3/24.achiral_catalyst.H_H_AlF3.P2/
 Scratch directory: /scratch/3978/amstmp_24.achiral_catalyst.H_H_AlF3.P2_kid0.302462233/


 Communication costs MPI_COMM_WORLD:      1.504 usec per message,   0.0026 usec per 8-byte item
 Communication costs for intra-node:      0.842 usec per message,   0.0033 usec per 8-byte item

 RNG seed: -1094513407 1215200915 -1572015708 -694539202 -147898103 -510246192 -821730773 1439241306



                      ************************************************************************
                      *  ADF 2021.102  RunTime: Jan23-2022 22:49:54  ShM Nodes: 1  Procs: 4  *
                      ************************************************************************
  
       ***************************
       *  GEOMETRY OPTIMIZATION  *
       ***************************

Optimization Method                    Quasi Newton
Optimization Coordinates               Delocalized Coordinates
Optimize lattice                       F
 
 ------------------------------------------------------
 Convergence criteria (Hartree,Angstrom)
 ------------------------------------------------------
 Maximum gradient               0.001000000000
 Maximum rms gradient           0.000666666667
 Maximum step allowed           0.010000000000
 Maximum rms step allowed       0.006666666667
 Maximum energy change allowe   0.000170000000
 Maximum stress energy allowe   0.000500000000
 
Initial model Hessian                  Automatic Hessian
 
------------------------------------
Quasi-Newton Optimizer Parameters
------------------------------------
Hessian Update Method                  BFGS
Maximum number of steps                  250
First GDIIS cycle                          0
Maximum GDIIS vectors                      0
Trust radius (bohr)                        0.200000
Trust radius varies                        T
Constraints converged at all steps         T
Use projector                              T
 
 Rigid motions settings for: old optimizer
 Atomic rotations (x,y,z):     T T T
 Atomic translations (x,y,z):  T T T
 Tolerance:                   1.000000000000000E-006
 
--------
Geometry
--------
Formula: C4H8AlF3O
Atoms
  Index Symbol   x (angstrom)   y (angstrom)   z (angstrom)
      1      H     0.83345051    -1.35209109     1.20167740
      2      C    -0.83092072     0.03538951     0.93442801
      3      C     0.35139657    -0.78131674     0.40158875
      4      C     1.39689343     0.07225735    -0.26739819
      5      O     1.30011208     1.25282167    -0.44784372
      6      H    -1.19392452     0.69150371     0.13740680
      7      H     0.00939092    -1.50634328    -0.34451216
      8      H    -0.05768346     0.24518214     2.94899716
      9      C    -0.44138171     0.87842746     2.14736270
     10      H     0.32560687     1.60312788     1.87585802
     11      H    -1.31355949     1.41759590     2.51749654
     12      H    -1.62209815    -0.63358328     1.20166141
     13      H     2.25449427    -0.48063876    -0.58946446
     14     Al     1.12240586     4.51122066    -0.93902243
     15      F     1.99394809     4.76068526     0.40056479
     16      F    -0.49101319     4.43635830    -0.85191936
     17      F     1.86428269     4.33661842    -2.36571272
 
Total System Charge             0.00000
 
 
----------------
ADF Engine Input
----------------
 
 NumericalQuality VeryGood
 SCF
 Converge 1.0e-6
 Iterations 99
 End
 SYMMETRY NOSYM
 XC
 GGA OLYP
 End
 basis
 core None
 type TZ2P
 End
 

 Title: *** (NO TITLE) ***

 Using automatic Hessian for delocalized coordinates.
 *** GOStep1 ***

 Energy gradients wrt nuclear displacements
 ==========================================

     Atom      Cartesian (a.u./angstrom)
                 X         Y         Z
 ----------------------------------------
     1 H    -0.004372  0.006700 -0.000672
     2 C    -0.028107 -0.011937  0.002312
     3 C     0.018577 -0.020887 -0.001258
     4 C     0.036434  0.029731 -0.022681
     5 O    -0.004140 -0.053493  0.015405
     6 H     0.003322  0.001568  0.000590
     7 H    -0.003533  0.008205  0.004455
     8 H    -0.000974  0.001026 -0.006502
     9 C     0.005627 -0.000342  0.005153
    10 H    -0.000366 -0.003336 -0.005192
    11 H     0.001761 -0.004473 -0.005538
    12 H     0.025440  0.019580 -0.005889
    13 H    -0.049246  0.022401  0.020027
    14 Al   -0.002377  0.020383 -0.001733
    15 F    -0.021478 -0.011156 -0.033597
    16 F     0.041527 -0.003004 -0.001633
    17 F    -0.018096 -0.000965  0.036755
 ----------------------------------------
 Mulliken charges used for AMS results%charges...
 
----------------------------------------------------------------------
Geometry Convergence after Step   1       (Hartree/Angstrom,Angstrom)
----------------------------------------------------------------------
current energy                               -3.31799985 Hartree
energy change                      -3.31799985     0.00017000    F
constrained gradient max            0.05349441     0.00100000    F
constrained gradient rms            0.01872534     0.00066667    F
gradient max                        0.05349441
gradient rms                        0.01872534
cart. step max                      0.19094055     0.01000000    F
cart. step rms                      0.08277974     0.00666667    F
 
 
--------
Geometry
--------
Formula: C4H8AlF3O
Atoms
  Index Symbol   x (angstrom)   y (angstrom)   z (angstrom)
      1      H     0.88613494    -1.31564160     1.15239248
      2      C    -0.84657858    -0.00172788     0.99146704
      3      C     0.36645341    -0.72647842     0.38559800
      4      C     1.41022787     0.11953992    -0.31302092
      5      O     1.33420630     1.31899707    -0.51382306
      6      H    -1.26590272     0.66520638     0.23149431
      7      H     0.03690366    -1.44918879    -0.37397408
      8      H    -0.12273695     0.15361392     3.04030376
      9      C    -0.54174836     0.80002500     2.26311877
     10      H     0.16809360     1.60383635     2.06679857
     11      H    -1.45675401     1.24913335     2.65783121
     12      H    -1.60261886    -0.74683602     1.22487576
     13      H     2.28128423    -0.45337186    -0.66247792
     14     Al     1.21426628     4.55789258    -1.04590112
     15      F     2.12430791     4.82331758     0.28695071
     16      F    -0.41697703     4.52961487    -0.92910459
     17      F     1.93283835     4.35928267    -2.50136037
 
Total System Charge             0.00000
 
 *** GOStep2 ***

 Energy gradients wrt nuclear displacements
 ==========================================

     Atom      Cartesian (a.u./angstrom)
                 X         Y         Z
 ----------------------------------------
     1 H    -0.003812  0.005157  0.001350
     2 C    -0.014022 -0.008833  0.002755
     3 C     0.006330 -0.012784 -0.004075
     4 C     0.021944 -0.017589 -0.009681
     5 O    -0.003112  0.007609  0.000882
     6 H     0.003249  0.000094  0.000154
     7 H    -0.001320  0.005353  0.001077
     8 H    -0.000651  0.000370 -0.002878
     9 C     0.000019  0.003725  0.005417
    10 H    -0.002159 -0.002678 -0.001112
    11 H     0.001221 -0.000885 -0.001215
    12 H     0.008264  0.007984  0.000848
    13 H    -0.015685  0.006528  0.007126
    14 Al   -0.001537  0.019320 -0.002357
    15 F    -0.009600 -0.007075 -0.014340
    16 F     0.018407 -0.003894 -0.000777
    17 F    -0.007536 -0.002404  0.016826
 ----------------------------------------
 Mulliken charges used for AMS results%charges...

 dE(predicted):    -0.55240E-02, dE(actual):    -0.57291E-02, Trust radius:    0.400000, all in a.u.
 
----------------------------------------------------------------------
Geometry Convergence after Step   2       (Hartree/Angstrom,Angstrom)
----------------------------------------------------------------------
current energy                               -3.32372895 Hartree
energy change                      -0.00572910     0.00017000    F
constrained gradient max            0.02194380     0.00100000    F
constrained gradient rms            0.00829690     0.00066667    F
gradient max                        0.02194380
gradient rms                        0.00829690
cart. step max                      0.05225349     0.01000000    F
cart. step rms                      0.01645231     0.00666667    F
 
 
--------
Geometry
--------
Formula: C4H8AlF3O
Atoms
  Index Symbol   x (angstrom)   y (angstrom)   z (angstrom)
      1      H     0.89253348    -1.32022106     1.13600148
      2      C    -0.84881377     0.00370719     0.99660115
      3      C     0.36271615    -0.71363765     0.38578027
      4      C     1.40793791     0.13206145    -0.30636226
      5      O     1.33754759     1.32840305    -0.51615300
      6      H    -1.27310593     0.68233837     0.24847838
      7      H     0.04190905    -1.43681779    -0.38158422
      8      H    -0.13941505     0.11920395     3.05960086
      9      C    -0.54891298     0.77950600     2.28610240
     10      H     0.16604996     1.58847356     2.11905206
     11      H    -1.46584145     1.22473822     2.68512054
     12      H    -1.61209260    -0.75465128     1.20649203
     13      H     2.29254377    -0.44383906    -0.66614297
     14     Al     1.22374297     4.55031535    -1.06926634
     15      F     2.13296295     4.84480226     0.27278278
     16      F    -0.42039487     4.54340082    -0.96119015
     17      F     1.95203286     4.35943172    -2.53414446
 
Total System Charge             0.00000
 
 *** GOStep3 ***

 Energy gradients wrt nuclear displacements
 ==========================================

     Atom      Cartesian (a.u./angstrom)
                 X         Y         Z
 ----------------------------------------
     1 H    -0.000500  0.001756  0.000819
     2 C    -0.005293 -0.000608 -0.000440
     3 C     0.000955 -0.006175 -0.001514
     4 C     0.006255 -0.007336  0.000182
     5 O    -0.000710  0.001844 -0.000607
     6 H     0.000903  0.000260 -0.000181
     7 H    -0.000527  0.001758 -0.000228
     8 H     0.000078 -0.000046 -0.000219
     9 C     0.000785  0.002491  0.001981
    10 H    -0.000671 -0.000426  0.000265
    11 H     0.000083 -0.000214 -0.000061
    12 H     0.000816 -0.000294  0.000847
    13 H    -0.001931  0.000475 -0.000021
    14 Al   -0.001086  0.015747 -0.002223
    15 F    -0.001926 -0.003556 -0.002996
    16 F     0.004350 -0.002881  0.000127
    17 F    -0.001580 -0.002795  0.004268
 ----------------------------------------
 Mulliken charges used for AMS results%charges...

 dE(predicted):    -0.89143E-03, dE(actual):    -0.11796E-02, Trust radius:    0.400000, all in a.u.
 
----------------------------------------------------------------------
Geometry Convergence after Step   3       (Hartree/Angstrom,Angstrom)
----------------------------------------------------------------------
current energy                               -3.32490857 Hartree
energy change                      -0.00117963     0.00017000    F
constrained gradient max            0.01574723     0.00100000    F
constrained gradient rms            0.00321660     0.00066667    F
gradient max                        0.01574723
gradient rms                        0.00321660
cart. step max                      0.04853380     0.01000000    F
cart. step rms                      0.01608563     0.00666667    F
 
 
--------
Geometry
--------
Formula: C4H8AlF3O
Atoms
  Index Symbol   x (angstrom)   y (angstrom)   z (angstrom)
      1      H     0.88994367    -1.32490669     1.12297652
      2      C    -0.84633408     0.01396600     0.99934150
      3      C     0.35680292    -0.70569285     0.38364117
      4      C     1.39995256     0.13719041    -0.30842819
      5      O     1.33398160     1.33157947    -0.52054436
      6      H    -1.26405494     0.70888901     0.26217349
      7      H     0.03607591    -1.42943443    -0.38541046
      8      H    -0.15271449     0.08122973     3.07060714
      9      C    -0.54322139     0.76080779     2.30308569
     10      H     0.18886516     1.55999553     2.15696060
     11      H    -1.45476601     1.21728432     2.70341393
     12      H    -1.62324634    -0.74000587     1.18923123
     13      H     2.30225712    -0.43590507    -0.64690507
     14     Al     1.22228024     4.53541777    -1.08554532
     15      F     2.10759977     4.86195255     0.27193659
     16      F    -0.42932340     4.54882739    -1.00972395
     17      F     1.97730174     4.36602004    -2.54564198
 
Total System Charge             0.00000
 
 *** GOStep4 ***

 Energy gradients wrt nuclear displacements
 ==========================================

     Atom      Cartesian (a.u./angstrom)
                 X         Y         Z
 ----------------------------------------
     1 H     0.000357 -0.000551  0.000407
     2 C     0.000701  0.002685 -0.000963
     3 C    -0.000458 -0.000969  0.001517
     4 C    -0.004937 -0.001725 -0.002050
     5 O     0.001596 -0.003727  0.001366
     6 H    -0.000302 -0.000008 -0.000205
     7 H     0.000454  0.000003 -0.000552
     8 H     0.000236 -0.000212  0.000676
     9 C     0.000523  0.000678 -0.000056
    10 H     0.000044  0.000330  0.000322
    11 H    -0.000431  0.000023  0.000372
    12 H    -0.001638 -0.002384  0.000356
    13 H     0.004103 -0.001294 -0.000260
    14 Al   -0.000627  0.010963 -0.001686
    15 F     0.001280 -0.000757  0.001864
    16 F    -0.001878 -0.001229  0.000272
    17 F     0.000978 -0.001827 -0.001380
 ----------------------------------------
 Mulliken charges used for AMS results%charges...

 dE(predicted):    -0.28041E-03, dE(actual):    -0.35274E-03, Trust radius:    0.400000, all in a.u.
 
----------------------------------------------------------------------
Geometry Convergence after Step   4       (Hartree/Angstrom,Angstrom)
----------------------------------------------------------------------
current energy                               -3.32526131 Hartree
energy change                      -0.00035274     0.00017000    F
constrained gradient max            0.01095885     0.00100000    F
constrained gradient rms            0.00213508     0.00066667    F
gradient max                        0.01095885
gradient rms                        0.00213508
cart. step max                      0.06458286     0.01000000    F
cart. step rms                      0.02433440     0.00666667    F
 
 
--------
Geometry
--------
Formula: C4H8AlF3O
Atoms
  Index Symbol   x (angstrom)   y (angstrom)   z (angstrom)
      1      H     0.87727250    -1.33433417     1.11360822
      2      C    -0.84083407     0.03063394     0.99992189
      3      C     0.35591458    -0.69297940     0.38437323
      4      C     1.41105898     0.14963873    -0.28312359
      5      O     1.34131428     1.33993188    -0.51027040
      6      H    -1.23294966     0.75600033     0.27815602
      7      H     0.03554895    -1.40405827    -0.39772138
      8      H    -0.18950297     0.01664687     3.08442239
      9      C    -0.54290701     0.72913401     2.32891665
     10      H     0.21728290     1.50858441     2.22000126
     11      H    -1.44730943     1.20373981     2.72446735
     12      H    -1.63958184    -0.70895923     1.15212153
     13      H     2.30411685    -0.42945786    -0.63950572
     14     Al     1.21731143     4.51764300    -1.11277640
     15      F     2.08951797     4.89228990     0.24364672
     16      F    -0.43718622     4.54978309    -1.05320466
     17      F     1.98233281     4.36297806    -2.57186456
 
Total System Charge             0.00000
 
 *** GOStep5 ***

 Energy gradients wrt nuclear displacements
 ==========================================

     Atom      Cartesian (a.u./angstrom)
                 X         Y         Z
 ----------------------------------------
     1 H     0.001206 -0.001108 -0.000618
     2 C     0.004112  0.003004 -0.000690
     3 C    -0.002549  0.002327 -0.001408
     4 C    -0.002838  0.004022  0.010003
     5 O     0.000175 -0.009092 -0.001550
     6 H    -0.000924 -0.000217 -0.000083
     7 H    -0.000052 -0.001804  0.000131
     8 H     0.000151 -0.000218  0.000720
     9 C     0.000174 -0.000795 -0.001444
    10 H     0.000324  0.000436  0.000174
    11 H    -0.000532  0.000018  0.000353
    12 H    -0.002077 -0.001861 -0.000235
    13 H     0.003186 -0.002524 -0.004186
    14 Al   -0.000274  0.005649 -0.001096
    15 F     0.002308  0.001632  0.003535
    16 F    -0.004304  0.000706  0.000092
    17 F     0.001913 -0.000174 -0.003698
 ----------------------------------------
 Mulliken charges used for AMS results%charges...

 dE(predicted):    -0.17638E-03, dE(actual):    -0.12270E-03, Trust radius:    0.400000, all in a.u.
 
----------------------------------------------------------------------
Geometry Convergence after Step   5       (Hartree/Angstrom,Angstrom)
----------------------------------------------------------------------
current energy                               -3.32538402 Hartree
energy change                      -0.00012270     0.00017000    T
constrained gradient max            0.01000741     0.00100000    F
constrained gradient rms            0.00277577     0.00066667    F
gradient max                        0.01000741
gradient rms                        0.00277577
cart. step max                      0.02288965     0.01000000    F
cart. step rms                      0.00713607     0.00666667    F
 
 
--------
Geometry
--------
Formula: C4H8AlF3O
Atoms
  Index Symbol   x (angstrom)   y (angstrom)   z (angstrom)
      1      H     0.87454301    -1.33363616     1.11161186
      2      C    -0.84018460     0.03266095     1.00041657
      3      C     0.35305376    -0.69371729     0.38184619
      4      C     1.40564201     0.14623777    -0.29245479
      5      O     1.33733808     1.33828956    -0.51382901
      6      H    -1.22816374     0.76157519     0.28017183
      7      H     0.02819186    -1.40487159    -0.39785131
      8      H    -0.18875859     0.01310141     3.08351390
      9      C    -0.53570484     0.72884561     2.32867067
     10      H     0.23222946     1.50025433     2.21820853
     11      H    -1.43468606     1.21306039     2.72403578
     12      H    -1.64228682    -0.70083779     1.15340824
     13      H     2.30724149    -0.42814701    -0.62612489
     14     Al     1.21299391     4.50818153    -1.11064390
     15      F     2.06662832     4.89122300     0.25367951
     16      F    -0.44078083     4.54569383    -1.07220329
     17      F     1.99410363     4.36930138    -2.56128737
 
Total System Charge             0.00000
 
 *** GOStep6 ***

 Energy gradients wrt nuclear displacements
 ==========================================

     Atom      Cartesian (a.u./angstrom)
                 X         Y         Z
 ----------------------------------------
     1 H     0.000385 -0.000934 -0.000304
     2 C     0.003193  0.001021  0.000099
     3 C    -0.001012  0.002812  0.000438
     4 C    -0.003813  0.000318  0.002001
     5 O     0.000651 -0.007541  0.000828
     6 H    -0.000511 -0.000224 -0.000015
     7 H     0.000304 -0.000972  0.000074
     8 H     0.000048 -0.000069  0.000232
     9 C    -0.000203 -0.000909 -0.001209
    10 H     0.000238  0.000242 -0.000022
    11 H    -0.000218 -0.000003  0.000162
    12 H    -0.001098 -0.000516 -0.000249
    13 H     0.002446 -0.001285 -0.000860
    14 Al   -0.000143  0.004074 -0.000822
    15 F     0.001414  0.001978  0.002182
    16 F    -0.002837  0.001353 -0.000108
    17 F     0.001156  0.000654 -0.002428
 ----------------------------------------
 Mulliken charges used for AMS results%charges...

 dE(predicted):    -0.10062E-03, dE(actual):    -0.12855E-03, Trust radius:    0.400000, all in a.u.
 
----------------------------------------------------------------------
Geometry Convergence after Step   6       (Hartree/Angstrom,Angstrom)
----------------------------------------------------------------------
current energy                               -3.32551257 Hartree
energy change                      -0.00012855     0.00017000    T
constrained gradient max            0.00754786     0.00100000    F
constrained gradient rms            0.00175706     0.00066667    F
gradient max                        0.00754786
gradient rms                        0.00175706
cart. step max                      0.01524746     0.01000000    F
cart. step rms                      0.00455780     0.00666667    T
 
 
--------
Geometry
--------
Formula: C4H8AlF3O
Atoms
  Index Symbol   x (angstrom)   y (angstrom)   z (angstrom)
      1      H     0.87183823    -1.33304857     1.10995641
      2      C    -0.83999993     0.03455826     1.00092913
      3      C     0.35228242    -0.69307965     0.37968918
      4      C     1.40584745     0.14629455    -0.29526182
      5      O     1.33741411     1.33939350    -0.51350328
      6      H    -1.22381430     0.76720957     0.28235141
      7      H     0.02380079    -1.40039874    -0.40134461
      8      H    -0.19072904     0.00937682     3.08420353
      9      C    -0.53216982     0.72820438     2.33025574
     10      H     0.24121940     1.49385585     2.22040430
     11      H    -1.42764735     1.21887189     2.72473599
     12      H    -1.64316833    -0.69562201     1.15340105
     13      H     2.30684697    -0.42606101    -0.62313889
     14     Al     1.20997574     4.49965649    -1.11008571
     15      F     2.05138085     4.88938990     0.25771624
     16      F    -0.44225205     4.53829991    -1.08472235
     17      F     2.00057492     4.37031398    -2.55441780
 
Total System Charge             0.00000
 
 *** GOStep7 ***

 Energy gradients wrt nuclear displacements
 ==========================================

     Atom      Cartesian (a.u./angstrom)
                 X         Y         Z
 ----------------------------------------
     1 H    -0.000132 -0.000246 -0.000062
     2 C     0.000994 -0.000848  0.000537
     3 C     0.000032  0.001741  0.000452
     4 C    -0.000954 -0.002242 -0.001131
     5 O     0.000369 -0.006634  0.001509
     6 H    -0.000020 -0.000062  0.000013
     7 H     0.000208 -0.000175  0.000067
     8 H    -0.000023  0.000063 -0.000162
     9 C    -0.000355 -0.000474 -0.000489
    10 H     0.000034 -0.000004 -0.000066
    11 H     0.000109 -0.000021 -0.000011
    12 H     0.000057  0.000578 -0.000182
    13 H     0.000130  0.000092  0.000742
    14 Al   -0.000096  0.003438 -0.000688
    15 F     0.000289  0.001875  0.000360
    16 F    -0.000793  0.001692 -0.000232
    17 F     0.000150  0.001226 -0.000657
 ----------------------------------------
 Mulliken charges used for AMS results%charges...

 dE(predicted):    -0.47442E-04, dE(actual):    -0.70916E-04, Trust radius:    0.400000, all in a.u.
 
----------------------------------------------------------------------
Geometry Convergence after Step   7       (Hartree/Angstrom,Angstrom)
----------------------------------------------------------------------
current energy                               -3.32558349 Hartree
energy change                      -0.00007092     0.00017000    T
constrained gradient max            0.00664183     0.00100000    F
constrained gradient rms            0.00126918     0.00066667    F
gradient max                        0.00664183
gradient rms                        0.00126918
cart. step max                      0.02529190     0.01000000    F
cart. step rms                      0.00825261     0.00666667    F
 
 
--------
Geometry
--------
Formula: C4H8AlF3O
Atoms
  Index Symbol   x (angstrom)   y (angstrom)   z (angstrom)
      1      H     0.86775259    -1.33265735     1.10461483
      2      C    -0.83975514     0.03915296     1.00224189
      3      C     0.35110265    -0.68987972     0.37578493
      4      C     1.40712742     0.15021174    -0.29715154
      5      O     1.33871650     1.34476635    -0.51079616
      6      H    -1.21822686     0.77841526     0.28771356
      7      H     0.01727239    -1.38898927    -0.40964706
      8      H    -0.19479620     0.00124765     3.08685305
      9      C    -0.52704177     0.72613863     2.33502894
     10      H     0.25481752     1.48321703     2.22841665
     11      H    -1.41743503     1.22594635     2.72865947
     12      H    -1.64409093    -0.68788990     1.15248760
     13      H     2.30541664    -0.41997975    -0.62326924
     14     Al     1.20573697     4.48246901    -1.11065922
     15      F     2.02608895     4.88501810     0.26385734
     16      F    -0.44481413     4.52177355    -1.10836086
     17      F     2.01352848     4.36825446    -2.54460565
 
Total System Charge             0.00000
 
 *** GOStep8 ***

 Energy gradients wrt nuclear displacements
 ==========================================

     Atom      Cartesian (a.u./angstrom)
                 X         Y         Z
 ----------------------------------------
     1 H    -0.000587  0.000661  0.000212
     2 C    -0.002069 -0.002643  0.000695
     3 C     0.001117 -0.000377  0.000216
     4 C     0.003213 -0.004899 -0.003600
     5 O    -0.000014 -0.005710  0.001861
     6 H     0.000545  0.000237  0.000042
     7 H    -0.000045  0.000761  0.000021
     8 H    -0.000076  0.000180 -0.000487
     9 C    -0.000390  0.000212  0.000562
    10 H    -0.000169 -0.000249 -0.000056
    11 H     0.000447 -0.000006 -0.000197
    12 H     0.001369  0.001519 -0.000064
    13 H    -0.002824  0.001736  0.002148
    14 Al   -0.000046  0.002442 -0.000503
    15 F    -0.000921  0.001893 -0.001716
    16 F     0.001457  0.002233 -0.000367
    17 F    -0.001005  0.002010  0.001232
 ----------------------------------------
 Mulliken charges used for AMS results%charges...

 dE(predicted):    -0.69475E-04, dE(actual):    -0.10910E-03, Trust radius:    0.400000, all in a.u.
 
----------------------------------------------------------------------
Geometry Convergence after Step   8       (Hartree/Angstrom,Angstrom)
----------------------------------------------------------------------
current energy                               -3.32569259 Hartree
energy change                      -0.00010910     0.00017000    T
constrained gradient max            0.00571642     0.00100000    F
constrained gradient rms            0.00169556     0.00066667    F
gradient max                        0.00571642
gradient rms                        0.00169556
cart. step max                      0.05333182     0.01000000    F
cart. step rms                      0.01789848     0.00666667    F
 
 
--------
Geometry
--------
Formula: C4H8AlF3O
Atoms
  Index Symbol   x (angstrom)   y (angstrom)   z (angstrom)
      1      H     0.86126200    -1.33091155     1.08993764
      2      C    -0.83939930     0.04955484     1.00565493
      3      C     0.34835576    -0.68051647     0.36682554
      4      C     1.40829026     0.16284977    -0.30096562
      5      O     1.34053002     1.36020526    -0.50352831
      6      H    -1.21259160     0.79938912     0.29966843
      7      H     0.00464859    -1.36276897    -0.42809071
      8      H    -0.19826720    -0.01132333     3.09189435
      9      C    -0.51641157     0.72403196     2.34461731
     10      H     0.27874330     1.46730661     2.24300124
     11      H    -1.39803848     1.23794934     2.73879073
     12      H    -1.64390960    -0.67501194     1.15365824
     13      H     2.30144375    -0.40374883    -0.63016083
     14     Al     1.19836379     4.44335690    -1.11050702
     15      F     1.97275713     4.86881226     0.28086051
     16      F    -0.44931455     4.47970935    -1.15897774
     17      F     2.04493774     4.35833079    -2.52151017
 
Total System Charge             0.00000
 
 *** GOStep9 ***

 Energy gradients wrt nuclear displacements
 ==========================================

     Atom      Cartesian (a.u./angstrom)
                 X         Y         Z
 ----------------------------------------
     1 H    -0.001131  0.002064  0.000620
     2 C    -0.006960 -0.004471  0.000490
     3 C     0.002598 -0.004437 -0.000190
     4 C     0.009408 -0.007972 -0.006751
     5 O    -0.000466 -0.004974  0.002353
     6 H     0.001356  0.000685  0.000122
     7 H    -0.000488  0.002197 -0.000091
     8 H    -0.000139  0.000292 -0.000805
     9 C    -0.000239  0.001349  0.002359
    10 H    -0.000422 -0.000552 -0.000035
    11 H     0.000834  0.000056 -0.000455
    12 H     0.003111  0.002387  0.000214
    13 H    -0.006858  0.003986  0.003872
    14 Al   -0.000027  0.001184 -0.000272
    15 F    -0.002337  0.001974 -0.004497
    16 F     0.004371  0.003097 -0.000447
    17 F    -0.002609  0.003136  0.003511
 ----------------------------------------
 Mulliken charges used for AMS results%charges...

 dE(predicted):    -0.14598E-03, dE(actual):    -0.24093E-03, Trust radius:    0.400000, all in a.u.
 
----------------------------------------------------------------------
Geometry Convergence after Step   9       (Hartree/Angstrom,Angstrom)
----------------------------------------------------------------------
current energy                               -3.32593352 Hartree
energy change                      -0.00024093     0.00017000    F
constrained gradient max            0.00940473     0.00100000    F
constrained gradient rms            0.00321892     0.00066667    F
gradient max                        0.00940473
gradient rms                        0.00321892
cart. step max                      0.07704548     0.01000000    F
cart. step rms                      0.02657299     0.00666667    F
 
 
--------
Geometry
--------
Formula: C4H8AlF3O
Atoms
  Index Symbol   x (angstrom)   y (angstrom)   z (angstrom)
      1      H     0.85580540    -1.32325766     1.06582949
      2      C    -0.83899310     0.06624514     1.00928934
      3      C     0.34575537    -0.66214171     0.35236998
      4      C     1.40915712     0.18871574    -0.30732663
      5      O     1.34142556     1.38997384    -0.49183507
      6      H    -1.21155098     0.82610924     0.31424546
      7      H    -0.00968993    -1.32125458    -0.45563230
      8      H    -0.19735588    -0.01914165     3.09630241
      9      C    -0.50264124     0.72713312     2.35491316
     10      H     0.30497255     1.45674803     2.25720698
     11      H    -1.37489413     1.25429472     2.75159752
     12      H    -1.63982797    -0.66000679     1.15762096
     13      H     2.29609429    -0.37217252    -0.64654080
     14     Al     1.18907881     4.37470876    -1.10371395
     15      F     1.90334653     4.82617695     0.30895809
     16      F    -0.45352253     4.40266387    -1.21758571
     17      F     2.08424017     4.33242062    -2.48453038
 
Total System Charge             0.00000
 
 *** GOStep10 ***

 Energy gradients wrt nuclear displacements
 ==========================================

     Atom      Cartesian (a.u./angstrom)
                 X         Y         Z
 ----------------------------------------
     1 H    -0.001661  0.003706  0.001095
     2 C    -0.012834 -0.005477 -0.000186
     3 C     0.004146 -0.010281 -0.000843
     4 C     0.016183 -0.010488 -0.009857
     5 O    -0.000841 -0.004737  0.002991
     6 H     0.002236  0.001129  0.000237
     7 H    -0.001041  0.003896 -0.000200
     8 H    -0.000219  0.000348 -0.001031
     9 C     0.000242  0.002759  0.004732
    10 H    -0.000680 -0.000868 -0.000021
    11 H     0.001123  0.000146 -0.000733
    12 H     0.004834  0.002792  0.000617
    13 H    -0.010801  0.006095  0.005447
    14 Al   -0.000224  0.001028  0.000032
    15 F    -0.003507  0.001866 -0.007454
    16 F     0.007358  0.003950 -0.000319
    17 F    -0.004313  0.004135  0.005492
 ----------------------------------------
 Mulliken charges used for AMS results%charges...

 dE(predicted):    -0.37421E-03, dE(actual):    -0.54525E-03, Trust radius:    0.800000, all in a.u.
 
----------------------------------------------------------------------
Geometry Convergence after Step  10       (Hartree/Angstrom,Angstrom)
----------------------------------------------------------------------
current energy                               -3.32647877 Hartree
energy change                      -0.00054525     0.00017000    F
constrained gradient max            0.01618321     0.00100000    F
constrained gradient rms            0.00508239     0.00066667    F
gradient max                        0.01618321
gradient rms                        0.00508239
cart. step max                      0.15862065     0.01000000    F
cart. step rms                      0.04682004     0.00666667    F
 
 
--------
Geometry
--------
Formula: C4H8AlF3O
Atoms
  Index Symbol   x (angstrom)   y (angstrom)   z (angstrom)
      1      H     0.85529546    -1.29779147     1.02511051
      2      C    -0.83948162     0.09625228     1.00991962
      3      C     0.34697022    -0.62397194     0.32573688
      4      C     1.41371143     0.24497515    -0.31941672
      5      O     1.34264938     1.45249317    -0.47169050
      6      H    -1.22009390     0.86369546     0.32869421
      7      H    -0.02339726    -1.24564982    -0.50293513
      8      H    -0.19126317    -0.01010859     3.09838386
      9      C    -0.48671286     0.74605157     2.36341668
     10      H     0.33026319     1.46414187     2.26707270
     11      H    -1.35065126     1.28390804     2.76307151
     12      H    -1.62484389    -0.64302746     1.16440877
     13      H     2.29016466    -0.30328978    -0.68307570
     14     Al     1.17619870     4.23307625    -1.07633879
     15      F     1.81963203     4.71544463     0.35587475
     16      F    -0.45623642     4.24404322    -1.26408398
     17      F     2.11919536     4.26697253    -2.42298013
 
Total System Charge             0.00000
 
 *** GOStep11 ***

 Energy gradients wrt nuclear displacements
 ==========================================

     Atom      Cartesian (a.u./angstrom)
                 X         Y         Z
 ----------------------------------------
     1 H    -0.002387  0.006602  0.001950
     2 C    -0.023199 -0.005602 -0.002051
     3 C     0.006389 -0.022545 -0.002567
     4 C     0.027633 -0.013393 -0.013899
     5 O    -0.001160 -0.004494  0.003900
     6 H     0.003645  0.001885  0.000405
     7 H    -0.002136  0.006852 -0.000221
     8 H    -0.000286  0.000303 -0.001134
     9 C     0.001619  0.005473  0.009288
    10 H    -0.001122 -0.001348  0.000049
    11 H     0.001362  0.000309 -0.001113
    12 H     0.007261  0.002521  0.001379
    13 H    -0.016592  0.008911  0.007444
    14 Al   -0.001713  0.004640  0.000271
    15 F    -0.005313  0.000460 -0.012710
    16 F     0.013060  0.004542  0.000405
    17 F    -0.007061  0.004884  0.008605
 ----------------------------------------
 Mulliken charges used for AMS results%charges...

 dE(predicted):    -0.12810E-02, dE(actual):    -0.15024E-02, Trust radius:    1.000000, all in a.u.
 
----------------------------------------------------------------------
Geometry Convergence after Step  11       (Hartree/Angstrom,Angstrom)
----------------------------------------------------------------------
current energy                               -3.32798114 Hartree
energy change                      -0.00150237     0.00017000    F
constrained gradient max            0.02763227     0.00100000    F
constrained gradient rms            0.00837278     0.00066667    F
gradient max                        0.02763227
gradient rms                        0.00837278
cart. step max                      0.18879480     0.01000000    F
cart. step rms                      0.05592206     0.00666667    F
 
 
--------
Geometry
--------
Formula: C4H8AlF3O
Atoms
  Index Symbol   x (angstrom)   y (angstrom)   z (angstrom)
      1      H     0.86052971    -1.25656963     0.97631701
      2      C    -0.83845429     0.13639193     1.00870549
      3      C     0.35092708    -0.56680825     0.29630041
      4      C     1.41670053     0.32210686    -0.33123908
      5      O     1.33656982     1.53391650    -0.45645387
      6      H    -1.22553457     0.91739605     0.34802568
      7      H    -0.02868471    -1.15239015    -0.55313033
      8      H    -0.19543986    -0.01531704     3.09886554
      9      C    -0.47476547     0.75885607     2.37685899
     10      H     0.35436093     1.46398094     2.29357342
     11      H    -1.33036093     1.30590986     2.78126750
     12      H    -1.61150290    -0.61556318     1.15609482
     13      H     2.29123938    -0.20836326    -0.71147844
     14     Al     1.16699691     4.04428146    -1.04683604
     15      F     1.74642389     4.57873025     0.39241536
     16      F    -0.45542184     4.05816695    -1.29950321
     17      F     2.13781637     4.18248976    -2.36861471
 
Total System Charge             0.00000
 
 *** GOStep12 ***

 Energy gradients wrt nuclear displacements
 ==========================================

     Atom      Cartesian (a.u./angstrom)
                 X         Y         Z
 ----------------------------------------
     1 H    -0.003031  0.008637  0.002688
     2 C    -0.030556 -0.005504 -0.003320
     3 C     0.007851 -0.031769 -0.004364
     4 C     0.034955 -0.012674 -0.016926
     5 O    -0.000389 -0.009928  0.006349
     6 H     0.004662  0.002254  0.000716
     7 H    -0.002913  0.008944  0.000125
     8 H    -0.000410  0.000253 -0.001244
     9 C     0.002558  0.006949  0.012673
    10 H    -0.001289 -0.001652  0.000004
    11 H     0.001477  0.000485 -0.001368
    12 H     0.008851  0.002323  0.001997
    13 H    -0.020083  0.010178  0.008899
    14 Al   -0.003979  0.010880 -0.000066
    15 F    -0.006652 -0.001009 -0.017646
    16 F     0.018013  0.005449  0.001452
    17 F    -0.009063  0.006185  0.010030
 ----------------------------------------
 Mulliken charges used for AMS results%charges...
 Rebuilding optimization coordinates
Bad geometry: added dihedral    13    4   14   15
Bad geometry: added dihedral    16   14    4   13
Bad geometry: added dihedral    17   14    4   13

 dE(predicted):    -0.21960E-02, dE(actual):    -0.32940E-02, Trust radius:    1.000000, all in a.u.
 
----------------------------------------------------------------------
Geometry Convergence after Step  12       (Hartree/Angstrom,Angstrom)
----------------------------------------------------------------------
current energy                               -3.33127513 Hartree
energy change                      -0.00329398     0.00017000    F
constrained gradient max            0.03495170     0.00100000    F
constrained gradient rms            0.01088948     0.00066667    F
gradient max                        0.03495170
gradient rms                        0.01088948
cart. step max                      0.21168556     0.01000000    F
cart. step rms                      0.06287304     0.00666667    F
 
 
--------
Geometry
--------
Formula: C4H8AlF3O
Atoms
  Index Symbol   x (angstrom)   y (angstrom)   z (angstrom)
      1      H     0.87994509    -1.19500470     0.93033886
      2      C    -0.83763811     0.17743392     1.00271931
      3      C     0.35979058    -0.50079981     0.26538017
      4      C     1.41401840     0.41063927    -0.35321284
      5      O     1.31703636     1.62472093    -0.45177696
      6      H    -1.23909023     0.96388596     0.35832896
      7      H    -0.02377276    -1.06337237    -0.59675189
      8      H    -0.17728983     0.00108497     3.08793663
      9      C    -0.46908298     0.78400503     2.38101221
     10      H     0.35066062     1.49976526     2.30320558
     11      H    -1.32837594     1.31541706     2.79714931
     12      H    -1.59175755    -0.59221070     1.14571066
     13      H     2.29092583    -0.09477230    -0.74673821
     14     Al     1.16459053     3.83259590    -1.00126222
     15      F     1.70431883     4.40042355     0.43873846
     16      F    -0.45100414     3.85465998    -1.29057583
     17      F     2.13812535     4.06874316    -2.30903367
 
Total System Charge             0.00000
 
 *** GOStep13 ***

 Energy gradients wrt nuclear displacements
 ==========================================

     Atom      Cartesian (a.u./angstrom)
                 X         Y         Z
 ----------------------------------------
     1 H    -0.003944  0.010587  0.003441
     2 C    -0.036961 -0.006812 -0.003880
     3 C     0.009350 -0.040178 -0.006414
     4 C     0.040995 -0.008058 -0.021991
     5 O     0.000913 -0.017549  0.010242
     6 H     0.005549  0.002657  0.000879
     7 H    -0.003616  0.010771  0.000777
     8 H    -0.000451  0.000349 -0.001565
     9 C     0.003120  0.008555  0.015916
    10 H    -0.001621 -0.002038  0.000015
    11 H     0.001703  0.000560 -0.001525
    12 H     0.010412  0.002931  0.002290
    13 H    -0.023779  0.011448  0.011329
    14 Al   -0.006028  0.023412 -0.002139
    15 F    -0.008683 -0.006098 -0.024191
    16 F     0.024793  0.003688  0.003704
    17 F    -0.011752  0.005774  0.013112
 ----------------------------------------
 Mulliken charges used for AMS results%charges...

 dE(predicted):    -0.58619E-02, dE(actual):    -0.62331E-02, Trust radius:    1.000000, all in a.u.
 
----------------------------------------------------------------------
Geometry Convergence after Step  13       (Hartree/Angstrom,Angstrom)
----------------------------------------------------------------------
current energy                               -3.33750821 Hartree
energy change                      -0.00623309     0.00017000    F
constrained gradient max            0.04099455     0.00100000    F
constrained gradient rms            0.01378526     0.00066667    F
gradient max                        0.04099455
gradient rms                        0.01378526
cart. step max                      0.21167683     0.01000000    F
cart. step rms                      0.06104465     0.00666667    F
 
 
--------
Geometry
--------
Formula: C4H8AlF3O
Atoms
  Index Symbol   x (angstrom)   y (angstrom)   z (angstrom)
      1      H     0.89906245    -1.13410142     0.88434626
      2      C    -0.83567117     0.21825965     0.99869067
      3      C     0.36688943    -0.43432818     0.23673426
      4      C     1.40709820     0.49776094    -0.37402697
      5      O     1.28957604     1.71363852    -0.45152489
      6      H    -1.24895253     1.01308274     0.37323695
      7      H    -0.02020176    -0.97627738    -0.63661882
      8      H    -0.16064250     0.00793980     3.07780919
      9      C    -0.46017538     0.80245786     2.38773462
     10      H     0.35449760     1.52444569     2.31824000
     11      H    -1.31998704     1.32206239     2.81654776
     12      H    -1.57512543    -0.56539232     1.13292480
     13      H     2.28866233     0.01794894    -0.77744641
     14     Al     1.16408527     3.62091907    -0.95997320
     15      F     1.64744483     4.23800239     0.48068120
     16      F    -0.44220251     3.66555870    -1.30300537
     17      F     2.14704221     3.95523773    -2.24318151
 
Total System Charge             0.00000
 
 *** GOStep14 ***

 Energy gradients wrt nuclear displacements
 ==========================================

     Atom      Cartesian (a.u./angstrom)
                 X         Y         Z
 ----------------------------------------
     1 H    -0.004781  0.012062  0.004205
     2 C    -0.041245 -0.008270 -0.004218
     3 C     0.009764 -0.047343 -0.008479
     4 C     0.045651 -0.001368 -0.026438
     5 O    -0.000607  0.001371  0.009088
     6 H     0.006181  0.002958  0.001148
     7 H    -0.004251  0.011969  0.001716
     8 H    -0.000467  0.000472 -0.001802
     9 C     0.003276  0.009423  0.018122
    10 H    -0.001729 -0.002361  0.000037
    11 H     0.001892  0.000686 -0.001572
    12 H     0.011415  0.003588  0.002529
    13 H    -0.026327  0.011264  0.013462
    14 Al   -0.005845  0.011885 -0.000102
    15 F    -0.010285 -0.012714 -0.031045
    16 F     0.032247  0.000970  0.007242
    17 F    -0.014887  0.005408  0.016108
 ----------------------------------------
 Mulliken charges used for AMS results%charges...
 Rebuilding optimization coordinates

 dE(predicted):    -0.89117E-02, dE(actual):    -0.53234E-02, Trust radius:    1.000000, all in a.u.
 
----------------------------------------------------------------------
Geometry Convergence after Step  14       (Hartree/Angstrom,Angstrom)
----------------------------------------------------------------------
current energy                               -3.34283156 Hartree
energy change                      -0.00532335     0.00017000    F
constrained gradient max            0.04734304     0.00100000    F
constrained gradient rms            0.01538520     0.00066667    F
gradient max                        0.04734304
gradient rms                        0.01538520
cart. step max                      0.18503236     0.01000000    F
cart. step rms                      0.04542921     0.00666667    F
 
 
--------
Geometry
--------
Formula: C4H8AlF3O
Atoms
  Index Symbol   x (angstrom)   y (angstrom)   z (angstrom)
      1      H     0.89731728    -1.13030786     0.85525005
      2      C    -0.83008701     0.23095467     1.01949378
      3      C     0.35410607    -0.41198076     0.23485425
      4      C     1.38080604     0.51837588    -0.37717276
      5      O     1.24020127     1.73363286    -0.46578384
      6      H    -1.24374786     1.04340763     0.41683020
      7      H    -0.03885734    -0.94675336    -0.64289713
      8      H    -0.15336060    -0.03812841     3.08875969
      9      C    -0.43193449     0.77636972     2.41308321
     10      H     0.40450869     1.47556373     2.35298110
     11      H    -1.27254265     1.31521364     2.85622390
     12      H    -1.58255407    -0.54428828     1.14014256
     13      H     2.27279221     0.04854236    -0.78099578
     14     Al     1.16320290     3.56906927    -0.97919486
     15      F     1.49553391     4.24893025     0.48867017
     16      F    -0.40845119     3.65531744    -1.48803773
     17      F     2.25446691     3.94329633    -2.17103826
 
Total System Charge             0.00000
 
 *** GOStep15 ***

 Energy gradients wrt nuclear displacements
 ==========================================

     Atom      Cartesian (a.u./angstrom)
                 X         Y         Z
 ----------------------------------------
     1 H    -0.003200  0.009978  0.003839
     2 C    -0.034883 -0.006895 -0.002661
     3 C     0.006856 -0.037731 -0.008067
     4 C     0.038985 -0.003178 -0.021055
     5 O    -0.002635  0.014913  0.004654
     6 H     0.005411  0.002623  0.001166
     7 H    -0.003333  0.010065  0.001361
     8 H    -0.000530  0.000426 -0.001451
     9 C     0.002520  0.006804  0.014542
    10 H    -0.000931 -0.001831 -0.000020
    11 H     0.001793  0.000791 -0.001561
    12 H     0.009685  0.002861  0.002079
    13 H    -0.021427  0.007549  0.010988
    14 Al   -0.001440 -0.012880  0.003181
    15 F    -0.005835 -0.006772 -0.023672
    16 F     0.022526  0.004314  0.006621
    17 F    -0.013562  0.008962  0.010056
 ----------------------------------------
 Mulliken charges used for AMS results%charges...

 dE(predicted):    -0.10711E-02, dE(actual):    -0.12398E-02, Trust radius:    1.000000, all in a.u.
 
----------------------------------------------------------------------
Geometry Convergence after Step  15       (Hartree/Angstrom,Angstrom)
----------------------------------------------------------------------
current energy                               -3.34407135 Hartree
energy change                      -0.00123979     0.00017000    F
constrained gradient max            0.03898582     0.00100000    F
constrained gradient rms            0.01258821     0.00066667    F
gradient max                        0.03898582
gradient rms                        0.01258821
cart. step max                      0.12650467     0.01000000    F
cart. step rms                      0.03544125     0.00666667    F
 
 
--------
Geometry
--------
Formula: C4H8AlF3O
Atoms
  Index Symbol   x (angstrom)   y (angstrom)   z (angstrom)
      1      H     0.89524310    -1.15928240     0.86959106
      2      C    -0.83486734     0.19510544     1.03229862
      3      C     0.34582151    -0.44597671     0.24724347
      4      C     1.36500915     0.48169512    -0.37696324
      5      O     1.22992740     1.69650545    -0.46298930
      6      H    -1.27273817     0.98561868     0.41695210
      7      H    -0.04827539    -0.99399776    -0.62212528
      8      H    -0.11994885    -0.01868378     3.09390285
      9      C    -0.43263800     0.77550095     2.40866226
     10      H     0.38110841     1.49803063     2.32430605
     11      H    -1.28286455     1.29534642     2.85671224
     12      H    -1.57398427    -0.58980168     1.17866566
     13      H     2.24978547     0.00592632    -0.79586705
     14     Al     1.17558909     3.69557394    -1.00150366
     15      F     1.50561998     4.32571047     0.48944630
     16      F    -0.39203516     3.76273748    -1.52345784
     17      F     2.31064768     3.97720654    -2.17370570
 
Total System Charge             0.00000
 
 *** GOStep16 ***

 Energy gradients wrt nuclear displacements
 ==========================================

     Atom      Cartesian (a.u./angstrom)
                 X         Y         Z
 ----------------------------------------
     1 H    -0.002713  0.008846  0.003449
     2 C    -0.031786 -0.006107 -0.002014
     3 C     0.007457 -0.031870 -0.007182
     4 C     0.034086 -0.009620 -0.017724
     5 O    -0.000158 -0.010613  0.008761
     6 H     0.004596  0.002349  0.000719
     7 H    -0.002995  0.009416  0.000600
     8 H    -0.000586  0.000322 -0.001256
     9 C     0.002889  0.006655  0.013210
    10 H    -0.001146 -0.001861  0.000014
    11 H     0.001589  0.000677 -0.001596
    12 H     0.009200  0.002471  0.001762
    13 H    -0.019877  0.008082  0.010159
    14 Al   -0.002169  0.015087 -0.004599
    15 F    -0.004063 -0.004206 -0.017501
    16 F     0.016821  0.003500  0.004889
    17 F    -0.011145  0.006873  0.008307
 ----------------------------------------
 Mulliken charges used for AMS results%charges...

 dE(predicted):    -0.14064E-02, dE(actual):     0.10698E-03, Trust radius:    0.088714, all in a.u.
 
----------------------------------------------------------------------
Geometry Convergence after Step  16       (Hartree/Angstrom,Angstrom)
----------------------------------------------------------------------
current energy                               -3.34396437 Hartree
energy change                       0.00010698     0.00017000    T
constrained gradient max            0.03408483     0.00100000    F
constrained gradient rms            0.01103081     0.00066667    F
gradient max                        0.03408483
gradient rms                        0.01103081
cart. step max                      0.04484606     0.01000000    F
cart. step rms                      0.01562337     0.00666667    F
 
 
--------
Geometry
--------
Formula: C4H8AlF3O
Atoms
  Index Symbol   x (angstrom)   y (angstrom)   z (angstrom)
      1      H     0.89979461    -1.14898206     0.85339187
      2      C    -0.83445872     0.19716016     1.03841002
      3      C     0.34320928    -0.43010852     0.24275393
      4      C     1.35229240     0.50526016    -0.37707616
      5      O     1.21288920     1.72079706    -0.45133437
      6      H    -1.28158397     0.98946444     0.43186749
      7      H    -0.05093412    -0.97410565    -0.63002566
      8      H    -0.10779592    -0.03111735     3.09325682
      9      C    -0.42881137     0.76711655     2.41646596
     10      H     0.37974684     1.49590166     2.33490490
     11      H    -1.28012935     1.27725923     2.87378152
     12      H    -1.56942934    -0.59324292     1.18127797
     13      H     2.23929376     0.03857038    -0.80569430
     14     Al     1.18003108     3.67311045    -1.00562523
     15      F     1.48160541     4.32538626     0.48588239
     16      F    -0.37767649     3.74238478    -1.56371160
     17      F     2.34335676     3.93236047    -2.15735703
 
Total System Charge             0.00000
 
 *** GOStep17 ***

 Energy gradients wrt nuclear displacements
 ==========================================

     Atom      Cartesian (a.u./angstrom)
                 X         Y         Z
 ----------------------------------------
     1 H    -0.002448  0.008090  0.003551
     2 C    -0.028971 -0.005494 -0.001741
     3 C     0.007329 -0.029143 -0.007305
     4 C     0.028942 -0.008874 -0.015625
     5 O     0.000969 -0.006467  0.007558
     6 H     0.004282  0.002241  0.000649
     7 H    -0.002994  0.008765  0.000459
     8 H    -0.000631  0.000269 -0.001151
     9 C     0.002780  0.006011  0.012011
    10 H    -0.001067 -0.001807  0.000011
    11 H     0.001434  0.000716 -0.001531
    12 H     0.008618  0.001995  0.001650
    13 H    -0.017823  0.007200  0.009545
    14 Al   -0.001851  0.011630 -0.005905
    15 F    -0.003147 -0.004300 -0.014732
    16 F     0.015195  0.002755  0.004932
    17 F    -0.010619  0.006413  0.007624
 ----------------------------------------
 Mulliken charges used for AMS results%charges...

 dE(predicted):    -0.92941E-03, dE(actual):    -0.13566E-02, Trust radius:    0.177429, all in a.u.
 
----------------------------------------------------------------------
Geometry Convergence after Step  17       (Hartree/Angstrom,Angstrom)
----------------------------------------------------------------------
current energy                               -3.34532098 Hartree
energy change                      -0.00135660     0.00017000    F
constrained gradient max            0.02914368     0.00100000    F
constrained gradient rms            0.00981974     0.00066667    F
gradient max                        0.02914368
gradient rms                        0.00981974
cart. step max                      0.14067167     0.01000000    F
cart. step rms                      0.04163256     0.00666667    F
 
 
--------
Geometry
--------
Formula: C4H8AlF3O
Atoms
  Index Symbol   x (angstrom)   y (angstrom)   z (angstrom)
      1      H     0.91184615    -1.12463614     0.81226604
      2      C    -0.83346216     0.19653314     1.05446419
      3      C     0.33508451    -0.38993241     0.23538687
      4      C     1.31537071     0.56726560    -0.36637385
      5      O     1.16391843     1.78218752    -0.40856749
      6      H    -1.30461921     0.99420927     0.47269636
      7      H    -0.05360249    -0.92627761    -0.64777344
      8      H    -0.07988357    -0.07604942     3.08979872
      9      C    -0.42203119     0.73385468     2.43682977
     10      H     0.37341954     1.47918783     2.36702468
     11      H    -1.27634229     1.21635949     2.91935894
     12      H    -1.56144203    -0.60701665     1.18373694
     13      H     2.21265069     0.12617995    -0.82139916
     14     Al     1.19310864     3.64328827    -1.02570577
     15      F     1.44252903     4.36665524     0.45453006
     16      F    -0.34265617     3.71371754    -1.66425044
     17      F     2.42751145     3.79168880    -2.13085387
 
Total System Charge             0.00000
 
 *** GOStep18 ***

 Energy gradients wrt nuclear displacements
 ==========================================

     Atom      Cartesian (a.u./angstrom)
                 X         Y         Z
 ----------------------------------------
     1 H    -0.001095  0.005184  0.003415
     2 C    -0.017110 -0.002661 -0.001226
     3 C     0.006008 -0.017102 -0.006594
     4 C     0.009007 -0.003811 -0.005813
     5 O     0.005718 -0.000493  0.003126
     6 H     0.003102  0.001806  0.000391
     7 H    -0.002849  0.006106 -0.000328
     8 H    -0.000700  0.000012 -0.000676
     9 C     0.002061  0.003197  0.006484
    10 H    -0.000479 -0.001309 -0.000133
    11 H     0.000752  0.000840 -0.001199
    12 H     0.005847 -0.000090  0.001372
    13 H    -0.008935  0.003868  0.005841
    14 Al   -0.001464  0.002339 -0.007410
    15 F    -0.001008 -0.003252 -0.005149
    16 F     0.007923  0.000754  0.003425
    17 F    -0.006780  0.004612  0.004474
 ----------------------------------------
 Mulliken charges used for AMS results%charges...

 dE(predicted):    -0.24883E-02, dE(actual):    -0.26324E-02, Trust radius:    0.354858, all in a.u.
 
----------------------------------------------------------------------
Geometry Convergence after Step  18       (Hartree/Angstrom,Angstrom)
----------------------------------------------------------------------
current energy                               -3.34795336 Hartree
energy change                      -0.00263238     0.00017000    F
constrained gradient max            0.01711273     0.00100000    F
constrained gradient rms            0.00530240     0.00066667    F
gradient max                        0.01711273
gradient rms                        0.00530240
cart. step max                      0.21002852     0.01000000    F
cart. step rms                      0.07487881     0.00666667    F
 
 
--------
Geometry
--------
Formula: C4H8AlF3O
Atoms
  Index Symbol   x (angstrom)   y (angstrom)   z (angstrom)
      1      H     0.93952099    -1.08050487     0.75010102
      2      C    -0.83583159     0.17757029     1.09273400
      3      C     0.31735623    -0.33489607     0.23056817
      4      C     1.23910400     0.65927535    -0.36641602
      5      O     1.05313854     1.87133207    -0.36262392
      6      H    -1.36231969     0.97036740     0.55172744
      7      H    -0.06246095    -0.87722925    -0.65696749
      8      H    -0.00827244    -0.13993707     3.08698938
      9      C    -0.41159010     0.67580404     2.47636076
     10      H     0.34280489     1.46526681     2.41802648
     11      H    -1.27356285     1.09110966     3.00724313
     12      H    -1.54406937    -0.65100209     1.20869311
     13      H     2.14600793     0.26079150    -0.86700442
     14     Al     1.23167748     3.63083610    -1.07145878
     15      F     1.37586781     4.46255531     0.38061495
     16      F    -0.23620271     3.72421563    -1.87303220
     17      F     2.59023189     3.58166028    -2.04438708
 
Total System Charge             0.00000
 
 *** GOStep19 ***

 Energy gradients wrt nuclear displacements
 ==========================================

     Atom      Cartesian (a.u./angstrom)
                 X         Y         Z
 ----------------------------------------
     1 H     0.000388  0.000683  0.001177
     2 C     0.000422  0.001159 -0.000591
     3 C     0.002202  0.001397 -0.002327
     4 C    -0.013847 -0.003613  0.005308
     5 O     0.012067  0.010694 -0.004405
     6 H     0.000367  0.000212  0.000184
     7 H    -0.001299  0.001605 -0.000940
     8 H    -0.000693 -0.000240  0.000143
     9 C     0.000323 -0.000578 -0.001377
    10 H     0.000343 -0.000403 -0.000039
    11 H    -0.000003  0.000785 -0.000419
    12 H     0.001412 -0.001621  0.000523
    13 H     0.002706 -0.000662  0.001019
    14 Al   -0.001375 -0.010041 -0.006607
    15 F    -0.000007  0.000220  0.006619
    16 F    -0.001047 -0.001022  0.000522
    17 F    -0.001959  0.001426  0.001210
 ----------------------------------------
 Mulliken charges used for AMS results%charges...

 dE(predicted):    -0.19316E-02, dE(actual):    -0.19991E-02, Trust radius:    0.709715, all in a.u.
 
----------------------------------------------------------------------
Geometry Convergence after Step  19       (Hartree/Angstrom,Angstrom)
----------------------------------------------------------------------
current energy                               -3.34995243 Hartree
energy change                      -0.00199906     0.00017000    F
constrained gradient max            0.01384537     0.00100000    F
constrained gradient rms            0.00383850     0.00066667    F
gradient max                        0.01384537
gradient rms                        0.00383850
cart. step max                      0.20861423     0.01000000    F
cart. step rms                      0.08655002     0.00666667    F
 
 
--------
Geometry
--------
Formula: C4H8AlF3O
Atoms
  Index Symbol   x (angstrom)   y (angstrom)   z (angstrom)
      1      H     0.99470487    -1.01626437     0.70991497
      2      C    -0.83867256     0.12891673     1.13602103
      3      C     0.30012694    -0.30374252     0.23119918
      4      C     1.12443694     0.73556434    -0.40592535
      5      O     0.86538597     1.93526367    -0.38433017
      6      H    -1.44959928     0.87682205     0.61887923
      7      H    -0.06466060    -0.89214483    -0.63623647
      8      H     0.11170584    -0.12579852     3.07976200
      9      C    -0.39771816     0.65167683     2.49818668
     10      H     0.27461161     1.51122787     2.41583326
     11      H    -1.26737432     0.97584642     3.07898325
     12      H    -1.49574055    -0.74136112     1.27638965
     13      H     2.03490051     0.39141769    -0.95684930
     14     Al     1.28905172     3.64122527    -1.09583766
     15      F     1.33137685     4.51252079     0.34978077
     16      F    -0.06162413     3.83299878    -2.07941831
     17      F     2.75048841     3.37304605    -1.87518422
 
Total System Charge             0.00000
 
 *** GOStep20 ***

 Energy gradients wrt nuclear displacements
 ==========================================

     Atom      Cartesian (a.u./angstrom)
                 X         Y         Z
 ----------------------------------------
     1 H     0.001202 -0.003234 -0.001371
     2 C     0.014169  0.005227 -0.000934
     3 C    -0.001959  0.016213  0.004213
     4 C    -0.027501 -0.004848  0.013566
     5 O     0.014372  0.011516 -0.009212
     6 H    -0.001928 -0.001577  0.000044
     7 H     0.000938 -0.001915 -0.001687
     8 H    -0.000516 -0.000391  0.000753
     9 C    -0.001215 -0.003408 -0.007363
    10 H     0.000809  0.000470  0.000021
    11 H    -0.000523  0.000487  0.000280
    12 H    -0.002304 -0.002484 -0.000155
    13 H     0.010724 -0.003774 -0.004119
    14 Al    0.001995 -0.011575 -0.005328
    15 F    -0.001692  0.003765  0.014406
    16 F    -0.007509 -0.002457 -0.002738
    17 F     0.000938 -0.002015 -0.000377
 ----------------------------------------
 Mulliken charges used for AMS results%charges...

 dE(predicted):    -0.16711E-02, dE(actual):    -0.17011E-02, Trust radius:    0.709715, all in a.u.
 Residual max backtransformation error   0.2517E-03
 
----------------------------------------------------------------------
Geometry Convergence after Step  20       (Hartree/Angstrom,Angstrom)
----------------------------------------------------------------------
current energy                               -3.35165355 Hartree
energy change                      -0.00170112     0.00017000    F
constrained gradient max            0.02749663     0.00100000    F
constrained gradient rms            0.00717027     0.00066667    F
gradient max                        0.02749663
gradient rms                        0.00717027
cart. step max                      0.20150945     0.01000000    F
cart. step rms                      0.07475296     0.00666667    F
 
 
--------
Geometry
--------
Formula: C4H8AlF3O
Atoms
  Index Symbol   x (angstrom)   y (angstrom)   z (angstrom)
      1      H     1.04410032    -0.94428578     0.67588870
      2      C    -0.83967684     0.08818492     1.16838746
      3      C     0.28817501    -0.27091831     0.22980972
      4      C     1.02482296     0.80938377    -0.43532934
      5      O     0.70209513     1.99575152    -0.39075648
      6      H    -1.51662340     0.79562154     0.67581330
      7      H    -0.05305854    -0.90012188    -0.62058547
      8      H     0.21029715    -0.10922273     3.06414194
      9      C    -0.39246892     0.62647975     2.51782022
     10      H     0.19551176     1.54569163     2.42620855
     11      H    -1.26175119     0.85869788     3.14234698
     12      H    -1.44966730    -0.81659498     1.32057306
     13      H     1.93435845     0.51579918    -1.02708138
     14     Al     1.34145824     3.64148915    -1.11824302
     15      F     1.33319259     4.57091348     0.29812379
     16      F     0.10617860     3.90880936    -2.23188428
     17      F     2.83445602     3.17153660    -1.73406521
 
Total System Charge             0.00000
 
 *** GOStep21 ***

 Energy gradients wrt nuclear displacements
 ==========================================

     Atom      Cartesian (a.u./angstrom)
                 X         Y         Z
 ----------------------------------------
     1 H     0.001696 -0.006052 -0.003619
     2 C     0.023298  0.009088 -0.001749
     3 C    -0.006263  0.024912  0.010358
     4 C    -0.032534 -0.006054  0.017339
     5 O     0.010404  0.009063 -0.008324
     6 H    -0.003468 -0.003096  0.000090
     7 H     0.003234 -0.004616 -0.002022
     8 H    -0.000211 -0.000432  0.001078
     9 C    -0.002430 -0.005374 -0.011282
    10 H     0.000964  0.001240  0.000101
    11 H    -0.000692  0.000092  0.000871
    12 H    -0.005199 -0.002994 -0.000558
    13 H     0.016051 -0.005530 -0.008604
    14 Al    0.006434 -0.011031 -0.007154
    15 F    -0.003448  0.007446  0.019073
    16 F    -0.010601 -0.002604 -0.004819
    17 F     0.002763 -0.004058 -0.000779
 ----------------------------------------
 Mulliken charges used for AMS results%charges...
 Rebuilding optimization coordinates

 dE(predicted):    -0.17784E-02, dE(actual):    -0.10361E-02, Trust radius:    0.709715, all in a.u.
 
----------------------------------------------------------------------
Geometry Convergence after Step  21       (Hartree/Angstrom,Angstrom)
----------------------------------------------------------------------
current energy                               -3.35268961 Hartree
energy change                      -0.00103606     0.00017000    F
constrained gradient max            0.03253274     0.00100000    F
constrained gradient rms            0.00943426     0.00066667    F
gradient max                        0.03253274
gradient rms                        0.00943426
cart. step max                      0.11203669     0.01000000    F
cart. step rms                      0.04406516     0.00666667    F
 
 
--------
Geometry
--------
Formula: C4H8AlF3O
Atoms
  Index Symbol   x (angstrom)   y (angstrom)   z (angstrom)
      1      H     1.06648220    -0.90073497     0.66851368
      2      C    -0.84833227     0.06217431     1.18679099
      3      C     0.28420807    -0.25078960     0.23310544
      4      C     0.98702090     0.85989315    -0.43093629
      5      O     0.63953997     2.04021204    -0.35910398
      6      H    -1.54723046     0.76028764     0.71150289
      7      H    -0.03839292    -0.89330918    -0.61400189
      8      H     0.24986092    -0.12397335     3.05760743
      9      C    -0.40849038     0.58809672     2.54519958
     10      H     0.12057298     1.54393035     2.47041810
     11      H    -1.27741332     0.74666119     3.19272986
     12      H    -1.43740866    -0.85837823     1.32486308
     13      H     1.88781735     0.59468706    -1.04541329
     14     Al     1.37986508     3.65349380    -1.15889116
     15      F     1.39998434     4.64490934     0.20974057
     16      F     0.18502654     3.93881134    -2.30666424
     17      F     2.85828971     3.08124350    -1.72429222
 
Total System Charge             0.00000
 
 *** GOStep22 ***

 Energy gradients wrt nuclear displacements
 ==========================================

     Atom      Cartesian (a.u./angstrom)
                 X         Y         Z
 ----------------------------------------
     1 H     0.001434 -0.006263 -0.004550
     2 C     0.021372  0.008649 -0.001019
     3 C    -0.008228  0.021181  0.011196
     4 C    -0.024471 -0.004087  0.013644
     5 O     0.003064  0.003061 -0.002466
     6 H    -0.003699 -0.003499  0.000146
     7 H     0.004034 -0.005854 -0.001414
     8 H     0.000067 -0.000300  0.000955
     9 C    -0.002393 -0.004601 -0.009865
    10 H     0.000692  0.001357  0.000310
    11 H    -0.000500 -0.000273  0.001094
    12 H    -0.006095 -0.002302 -0.000683
    13 H     0.014779 -0.004655 -0.008930
    14 Al    0.007809 -0.005542 -0.009847
    15 F    -0.002951  0.007887  0.016328
    16 F    -0.008952 -0.001484 -0.003829
    17 F     0.004037 -0.003275 -0.001069
 ----------------------------------------
 Mulliken charges used for AMS results%charges...

 dE(predicted):    -0.77044E-03, dE(actual):    -0.11097E-02, Trust radius:    0.709715, all in a.u.
 
----------------------------------------------------------------------
Geometry Convergence after Step  22       (Hartree/Angstrom,Angstrom)
----------------------------------------------------------------------
current energy                               -3.35379933 Hartree
energy change                      -0.00110972     0.00017000    F
constrained gradient max            0.02447083     0.00100000    F
constrained gradient rms            0.00802513     0.00066667    F
gradient max                        0.02447083
gradient rms                        0.00802513
cart. step max                      0.05731916     0.01000000    F
cart. step rms                      0.02329743     0.00666667    F
 
 
--------
Geometry
--------
Formula: C4H8AlF3O
Atoms
  Index Symbol   x (angstrom)   y (angstrom)   z (angstrom)
      1      H     1.07512399    -0.90080762     0.69645699
      2      C    -0.84978720     0.05824517     1.18208269
      3      C     0.29290538    -0.27023183     0.23628711
      4      C     0.99699335     0.83628205    -0.44433838
      5      O     0.64122565     2.01443569    -0.39432658
      6      H    -1.54160256     0.75198700     0.69082881
      7      H    -0.02986206    -0.92341722    -0.60033163
      8      H     0.24682469    -0.08910399     3.06010852
      9      C    -0.41536240     0.61034763     2.53595580
     10      H     0.10733480     1.56769693     2.44497523
     11      H    -1.28735035     0.77406649     3.17744688
     12      H    -1.43283026    -0.86194414     1.33342365
     13      H     1.89389074     0.56610558    -1.05191361
     14     Al     1.37257204     3.65249253    -1.14152300
     15      F     1.42797179     4.58759018     0.25655648
     16      F     0.16333201     3.99401903    -2.25365608
     17      F     2.84002045     3.11945164    -1.76686433
 
Total System Charge             0.00000
 
 *** GOStep23 ***

 Energy gradients wrt nuclear displacements
 ==========================================

     Atom      Cartesian (a.u./angstrom)
                 X         Y         Z
 ----------------------------------------
     1 H     0.001081 -0.004450 -0.002983
     2 C     0.014015  0.005896 -0.000483
     3 C    -0.005846  0.014104  0.007732
     4 C    -0.016314 -0.001595  0.010016
     5 O     0.002834  0.002310 -0.004341
     6 H    -0.002552 -0.002354  0.000011
     7 H     0.002846 -0.004007 -0.000976
     8 H     0.000134 -0.000129  0.000623
     9 C    -0.001633 -0.003126 -0.006096
    10 H     0.000436  0.000931  0.000198
    11 H    -0.000310 -0.000199  0.000767
    12 H    -0.004295 -0.001621 -0.000506
    13 H     0.009332 -0.003433 -0.006357
    14 Al    0.005506 -0.003967 -0.004124
    15 F    -0.002260  0.004380  0.010433
    16 F    -0.006143 -0.001365 -0.002167
    17 F     0.003168 -0.001375 -0.001747
 ----------------------------------------
 Mulliken charges used for AMS results%charges...

 dE(predicted):    -0.34768E-03, dE(actual):    -0.50218E-03, Trust radius:    0.709715, all in a.u.
 
----------------------------------------------------------------------
Geometry Convergence after Step  23       (Hartree/Angstrom,Angstrom)
----------------------------------------------------------------------
current energy                               -3.35430151 Hartree
energy change                      -0.00050218     0.00017000    F
constrained gradient max            0.01631374     0.00100000    F
constrained gradient rms            0.00535138     0.00066667    F
gradient max                        0.01631374
gradient rms                        0.00535138
cart. step max                      0.15722657     0.01000000    F
cart. step rms                      0.05687569     0.00666667    F
 
 
--------
Geometry
--------
Formula: C4H8AlF3O
Atoms
  Index Symbol   x (angstrom)   y (angstrom)   z (angstrom)
      1      H     1.09522163    -0.84961661     0.71675561
      2      C    -0.86446479     0.04218296     1.18281367
      3      C     0.30639822    -0.24373396     0.23975184
      4      C     1.00400198     0.90522668    -0.39738527
      5      O     0.63861122     2.07910287    -0.28989727
      6      H    -1.54209133     0.75825521     0.70454094
      7      H     0.00085103    -0.87614964    -0.61404163
      8      H     0.24456913    -0.13558539     3.05638989
      9      C    -0.45419697     0.55329742     2.56785493
     10      H     0.01928978     1.53777471     2.51794492
     11      H    -1.33332913     0.64196502     3.21318745
     12      H    -1.43318302    -0.88884742     1.29125847
     13      H     1.88821570     0.67207876    -1.01662669
     14     Al     1.39166173     3.63979432    -1.19288817
     15      F     1.58519836     4.65885960     0.11280434
     16      F     0.15629749     3.97639846    -2.26335842
     17      F     2.79834902     3.01621213    -1.86793608
 
Total System Charge             0.00000
 
 *** GOStep24 ***

 Energy gradients wrt nuclear displacements
 ==========================================

     Atom      Cartesian (a.u./angstrom)
                 X         Y         Z
 ----------------------------------------
     1 H     0.000467 -0.000151 -0.000515
     2 C     0.000639  0.000449  0.000591
     3 C    -0.002681 -0.001599 -0.000064
     4 C     0.001816  0.003614 -0.001932
     5 O    -0.001126  0.002840  0.002995
     6 H    -0.000181  0.000065 -0.000319
     7 H     0.000601 -0.001302  0.000386
     8 H     0.000456  0.000193 -0.000137
     9 C    -0.000136  0.000242  0.000717
    10 H    -0.000203  0.000137  0.000055
    11 H     0.000006 -0.000511  0.000129
    12 H    -0.001077 -0.000013 -0.000385
    13 H    -0.000167 -0.000438  0.000410
    14 Al    0.000342 -0.001506 -0.002168
    15 F    -0.001727 -0.003146 -0.001551
    16 F     0.001329 -0.000947  0.002832
    17 F     0.001641  0.002076 -0.001046
 ----------------------------------------
 Mulliken charges used for AMS results%charges...

 dE(predicted):    -0.85889E-03, dE(actual):    -0.72092E-03, Trust radius:    0.709715, all in a.u.
 
----------------------------------------------------------------------
Geometry Convergence after Step  24       (Hartree/Angstrom,Angstrom)
----------------------------------------------------------------------
current energy                               -3.35502243 Hartree
energy change                      -0.00072092     0.00017000    F
constrained gradient max            0.00361480     0.00100000    F
constrained gradient rms            0.00137193     0.00066667    F
gradient max                        0.00361480
gradient rms                        0.00137193
cart. step max                      0.08380587     0.01000000    F
cart. step rms                      0.03000210     0.00666667    F
 
 
--------
Geometry
--------
Formula: C4H8AlF3O
Atoms
  Index Symbol   x (angstrom)   y (angstrom)   z (angstrom)
      1      H     1.11787107    -0.82869562     0.72580891
      2      C    -0.85893597     0.02424496     1.18635890
      3      C     0.31083230    -0.25339440     0.24112891
      4      C     0.97306268     0.89707212    -0.42594434
      5      O     0.57700718     2.06312402    -0.34484907
      6      H    -1.55847541     0.71106580     0.69700913
      7      H     0.01388005    -0.91076290    -0.59672792
      8      H     0.26312805    -0.08220598     3.05703980
      9      C    -0.45077323     0.58015369     2.55390731
     10      H     0.00395669     1.57152486     2.47440279
     11      H    -1.32775900     0.67047023     3.20201096
     12      H    -1.40166647    -0.91853987     1.32335630
     13      H     1.85935919     0.67440742    -1.04721187
     14     Al     1.39532782     3.63946132    -1.16981145
     15      F     1.60131026     4.60211596     0.17738424
     16      F     0.19213377     4.06020433    -2.24997457
     17      F     2.79114107     2.98696917    -1.84271948
 
Total System Charge             0.00000
 
 *** GOStep25 ***

 Energy gradients wrt nuclear displacements
 ==========================================

     Atom      Cartesian (a.u./angstrom)
                 X         Y         Z
 ----------------------------------------
     1 H     0.000450 -0.000367 -0.000036
     2 C     0.001302  0.000501  0.000232
     3 C    -0.001464 -0.000213  0.000772
     4 C     0.000252  0.002890  0.000401
     5 O    -0.003207  0.000539  0.000456
     6 H     0.000031  0.000185 -0.000257
     7 H     0.000499 -0.000691  0.000136
     8 H     0.000365  0.000139 -0.000091
[...]
     8     H      -0.013273  -0.000394   0.051157
     9     C       0.015115  -0.018523  -0.004117
    10     H      -0.058151   0.015639  -0.027193
    11     H      -0.008677   0.006169  -0.040249
    12     H      -0.070228   0.034316   0.090778
    13     H      -0.043730  -0.198685   0.068249
    14    Al      -0.000913   0.000670   0.000447
    15     F      -0.000018  -0.000388  -0.000262
    16     F       0.000304  -0.000279   0.000220
    17     F       0.000148  -0.000450  -0.000003
 
 Mode:    37      Frequency (cm-1):     1368.0623     Intensity (km/mol):       24.4845
 Index  Atom      ---- Displacements (x/y/z) ----
     1     H       0.164953  -0.266683  -0.567135
     2     C       0.019114   0.007798  -0.052854
     3     C      -0.082937  -0.006712   0.084124
     4     C       0.048415   0.003052  -0.021873
     5     O      -0.018142   0.026494   0.005464
     6     H      -0.133751   0.081940   0.266932
     7     H       0.401832  -0.287739   0.102809
     8     H       0.059252  -0.136578  -0.246854
     9     C      -0.001051   0.027361   0.057775
    10     H       0.037741  -0.020883  -0.212561
    11     H      -0.158355  -0.045624  -0.171494
    12     H       0.076593  -0.021801  -0.040060
    13     H       0.033837  -0.089328  -0.018856
    14    Al       0.000613   0.000289  -0.000341
    15     F      -0.000280  -0.000579  -0.000187
    16     F       0.000052  -0.000457   0.000393
    17     F      -0.000547   0.000157   0.000315
 
 Mode:    38      Frequency (cm-1):     1387.8970     Intensity (km/mol):        4.7492
 Index  Atom      ---- Displacements (x/y/z) ----
     1     H      -0.083853   0.096801   0.247522
     2     C      -0.007264  -0.017468  -0.007557
     3     C       0.048607   0.015940  -0.040758
     4     C      -0.031075  -0.008490   0.021638
     5     O       0.014241  -0.016927  -0.006413
     6     H       0.040705   0.013041  -0.034540
     7     H      -0.229019   0.096459   0.006375
     8     H       0.017915  -0.332376  -0.380446
     9     C       0.027453   0.040460   0.113861
    10     H      -0.021844  -0.004101  -0.526293
    11     H      -0.314561  -0.159843  -0.362612
    12     H      -0.061853   0.032255   0.130548
    13     H      -0.024682   0.153809  -0.016097
    14    Al      -0.000088  -0.000073   0.000288
    15     F       0.000175   0.000363   0.000016
    16     F      -0.000137   0.000238  -0.000299
    17     F       0.000196   0.000040  -0.000167
 
 Mode:    39      Frequency (cm-1):     1401.0186     Intensity (km/mol):        4.3471
 Index  Atom      ---- Displacements (x/y/z) ----
     1     H      -0.035953  -0.108219  -0.149740
     2     C       0.006767  -0.012560  -0.021201
     3     C      -0.020885   0.049371   0.013305
     4     C      -0.062529  -0.025613   0.048237
     5     O       0.050524  -0.058723  -0.024449
     6     H       0.039457   0.037520   0.006602
     7     H       0.130142  -0.098513   0.072786
     8     H       0.034173   0.072833   0.044434
     9     C      -0.011376  -0.010298  -0.010968
    10     H       0.023343  -0.017823   0.077034
    11     H       0.040768   0.042047   0.054433
    12     H      -0.013853   0.025776   0.134185
    13     H      -0.003710   0.918058  -0.169473
    14    Al       0.002185   0.000533  -0.001657
    15     F      -0.000023   0.000458   0.000549
    16     F      -0.000541   0.000285  -0.000278
    17     F      -0.000850   0.001129   0.000385
 
 Mode:    40      Frequency (cm-1):     1453.2849     Intensity (km/mol):        3.7290
 Index  Atom      ---- Displacements (x/y/z) ----
     1     H       0.008466   0.016011  -0.006525
     2     C      -0.060251  -0.013205  -0.024183
     3     C      -0.013059  -0.006031   0.001590
     4     C       0.008273  -0.007111  -0.003023
     5     O      -0.004339   0.009991   0.000963
     6     H       0.443550   0.475589  -0.018990
     7     H       0.001378  -0.002734  -0.011220
     8     H      -0.199403  -0.140942   0.064992
     9     C       0.012363   0.002066  -0.005919
    10     H      -0.178493   0.087036  -0.095818
    11     H       0.095681   0.000443   0.134934
    12     H       0.521912  -0.272647   0.289505
    13     H       0.006567  -0.027574   0.000729
    14    Al      -0.000279  -0.000048   0.000105
    15     F       0.000046  -0.000093  -0.000040
    16     F       0.000118  -0.000060   0.000032
    17     F       0.000041  -0.000026  -0.000005
 
 Mode:    41      Frequency (cm-1):     1467.7105     Intensity (km/mol):        8.0657
 Index  Atom      ---- Displacements (x/y/z) ----
     1     H      -0.009431   0.016287   0.039229
     2     C      -0.034918  -0.016157   0.015334
     3     C       0.006176  -0.002160  -0.007465
     4     C       0.000023   0.001301  -0.000869
     5     O      -0.000686   0.000689   0.000646
     6     H       0.153918   0.140457  -0.023020
     7     H      -0.030222   0.014382  -0.007029
     8     H       0.483942   0.175263  -0.356839
     9     C      -0.023017  -0.035727   0.015580
    10     H       0.066556  -0.025070   0.409378
    11     H      -0.180937   0.442917  -0.345315
    12     H       0.146121  -0.117739  -0.000474
    13     H      -0.001846  -0.028637   0.005350
    14    Al      -0.000088   0.000068  -0.000033
    15     F      -0.000018  -0.000052   0.000008
    16     F       0.000062  -0.000015   0.000021
    17     F       0.000018  -0.000070  -0.000003
 
 Mode:    42      Frequency (cm-1):     1473.5211     Intensity (km/mol):        8.2916
 Index  Atom      ---- Displacements (x/y/z) ----
     1     H      -0.012381  -0.010175   0.004611
     2     C       0.037601  -0.012281  -0.006019
     3     C      -0.002290   0.002739   0.003485
     4     C      -0.003106   0.004324  -0.001118
     5     O       0.002238  -0.004916  -0.000337
     6     H      -0.105607  -0.091101   0.085064
     7     H       0.010015   0.003642  -0.000005
     8     H      -0.187882  -0.360196  -0.189472
     9     C       0.039165  -0.026615   0.002450
    10     H      -0.593993   0.316805   0.097517
    11     H       0.148941   0.498271   0.067617
    12     H      -0.146571   0.080680  -0.044905
    13     H       0.000660   0.017444   0.000672
    14    Al      -0.000081   0.000080  -0.000038
    15     F       0.000105  -0.000010   0.000018
    16     F       0.000021   0.000003  -0.000031
    17     F       0.000071  -0.000017  -0.000010
 
 Mode:    43      Frequency (cm-1):     1685.2888     Intensity (km/mol):      256.2101
 Index  Atom      ---- Displacements (x/y/z) ----
     1     H       0.112419   0.244654   0.072257
     2     C       0.012258  -0.017871  -0.005277
     3     C       0.005007   0.053630  -0.016569
     4     C       0.143975  -0.627325   0.018746
     5     O      -0.121441   0.387440   0.011153
     6     H      -0.035071  -0.057852   0.024884
     7     H      -0.084409   0.182908  -0.111289
     8     H       0.020430   0.009652  -0.014410
     9     C      -0.005589  -0.002194  -0.001927
    10     H      -0.004753  -0.002744   0.048710
    11     H       0.017870   0.044935   0.017853
    12     H      -0.130792   0.071068   0.053776
    13     H       0.213342   0.390714  -0.227252
    14    Al       0.003387   0.006315  -0.003536
    15     F      -0.002268  -0.004825  -0.001291
    16     F       0.001118  -0.003762   0.003835
    17     F      -0.005516   0.001607   0.003449
 
 Mode:    44      Frequency (cm-1):     2944.3591     Intensity (km/mol):       14.1028
 Index  Atom      ---- Displacements (x/y/z) ----
     1     H      -0.239585   0.156491  -0.164431
     2     C       0.002178   0.004094  -0.000452
     3     C      -0.000452  -0.056405  -0.043769
     4     C      -0.016506   0.000552   0.009629
     5     O      -0.000520   0.001653  -0.000041
     6     H      -0.002933   0.006982  -0.003543
     7     H       0.263039   0.530205   0.690456
     8     H       0.006638  -0.008101   0.005194
     9     C      -0.000625  -0.000354  -0.000206
    10     H       0.007255   0.014511  -0.001850
    11     H      -0.005747   0.000091   0.002186
    12     H      -0.026851  -0.054425   0.008378
    13     H       0.191820  -0.047950  -0.123241
    14    Al      -0.000114  -0.000181   0.000098
    15     F       0.000026   0.000063   0.000024
    16     F      -0.000016   0.000055  -0.000047
    17     F       0.000048  -0.000048  -0.000020
 
 Mode:    45      Frequency (cm-1):     2975.3404     Intensity (km/mol):        6.3830
 Index  Atom      ---- Displacements (x/y/z) ----
     1     H      -0.390224   0.297278  -0.246568
     2     C      -0.006082   0.001750  -0.002975
     3     C       0.040823  -0.004721   0.042188
     4     C      -0.050978   0.011335   0.035180
     5     O       0.000548  -0.000092  -0.000011
     6     H       0.060152  -0.060892   0.044686
     7     H      -0.100590  -0.236006  -0.277210
     8     H       0.001479  -0.002166  -0.000325
     9     C       0.000017  -0.000361  -0.000547
    10     H       0.004053   0.006703  -0.001193
    11     H      -0.007164   0.000805   0.003980
    12     H       0.018618   0.039458  -0.007403
    13     H       0.600560  -0.133901  -0.397980
    14    Al      -0.000160  -0.000102   0.000151
    15     F       0.000045   0.000060   0.000018
    16     F      -0.000017   0.000035  -0.000066
    17     F       0.000070  -0.000220  -0.000011
 
 Mode:    46      Frequency (cm-1):     2985.2014     Intensity (km/mol):       14.8907
 Index  Atom      ---- Displacements (x/y/z) ----
     1     H       0.531762  -0.407623   0.346204
     2     C       0.006698  -0.004376   0.002904
     3     C      -0.044553   0.029222  -0.034224
     4     C      -0.046164   0.010150   0.028978
     5     O       0.000435  -0.000977  -0.000501
     6     H      -0.068156   0.069902  -0.051373
     7     H       0.016585   0.069670   0.069231
     8     H      -0.018735   0.020292  -0.012697
     9     C       0.000757   0.000364   0.002378
    10     H      -0.012302  -0.022846   0.002590
    11     H       0.023921  -0.003492  -0.014086
    12     H      -0.007598  -0.016387   0.005400
    13     H       0.521103  -0.111059  -0.339609
    14    Al      -0.000147  -0.000059   0.000099
    15     F       0.000039   0.000037   0.000016
    16     F      -0.000004   0.000029  -0.000054
    17     F       0.000063  -0.000192  -0.000005
 
 Mode:    47      Frequency (cm-1):     2998.6508     Intensity (km/mol):       15.4530
 Index  Atom      ---- Displacements (x/y/z) ----
     1     H       0.024608  -0.017996   0.013681
     2     C       0.006186  -0.001952   0.003881
     3     C      -0.001841   0.002213   0.000044
     4     C      -0.001280   0.000012   0.000850
     5     O      -0.000039   0.000077   0.000087
     6     H      -0.058607   0.058221  -0.042413
     7     H      -0.002894  -0.008768  -0.012867
     8     H       0.429762  -0.456469   0.338334
     9     C      -0.019294  -0.003185  -0.047617
    10     H       0.215538   0.424166  -0.050131
    11     H      -0.416372   0.065642   0.268041
    12     H      -0.013415  -0.028608   0.003911
    13     H       0.015318  -0.002543  -0.010071
    14    Al      -0.000022  -0.000028   0.000017
    15     F       0.000011   0.000014   0.000003
    16     F       0.000002   0.000011  -0.000008
    17     F       0.000014   0.000004  -0.000006
 
 Mode:    48      Frequency (cm-1):     3013.4566     Intensity (km/mol):       18.0630
 Index  Atom      ---- Displacements (x/y/z) ----
     1     H       0.070001  -0.053396   0.043939
     2     C      -0.062205  -0.024142  -0.013919
     3     C      -0.007497  -0.000386  -0.009022
     4     C       0.000223   0.000745  -0.000478
     5     O       0.000147  -0.000217  -0.000054
     6     H       0.370373  -0.389265   0.270885
     7     H       0.021111   0.055540   0.067776
     8     H       0.023134  -0.019128   0.014326
     9     C       0.007849   0.001472  -0.006962
    10     H      -0.004710  -0.014765   0.000615
    11     H      -0.108658   0.016629   0.068950
    12     H       0.362227   0.674471  -0.104432
    13     H      -0.001980  -0.000926   0.000688
    14    Al      -0.000007   0.000015  -0.000026
    15     F      -0.000001  -0.000011   0.000007
    16     F       0.000011  -0.000004   0.000012
    17     F      -0.000001  -0.000009   0.000010
 
 Mode:    49      Frequency (cm-1):     3048.7903     Intensity (km/mol):        2.1038
 Index  Atom      ---- Displacements (x/y/z) ----
     1     H      -0.065934   0.047274  -0.040820
     2     C       0.013657  -0.074891   0.031414
     3     C       0.005423  -0.004748   0.003179
     4     C       0.000683  -0.000480  -0.000340
     5     O      -0.000234   0.000320  -0.000015
     6     H      -0.440975   0.426498  -0.308888
     7     H       0.002922   0.001809   0.004221
     8     H       0.164403  -0.169606   0.130084
     9     C      -0.014418   0.037569  -0.003746
    10     H      -0.149554  -0.268014   0.027513
    11     H       0.157099  -0.013467  -0.109957
    12     H       0.275005   0.476129  -0.067152
    13     H      -0.002979   0.000661   0.002053
    14    Al       0.000018   0.000022  -0.000005
    15     F      -0.000004  -0.000007  -0.000006
    16     F      -0.000005  -0.000009   0.000004
    17     F      -0.000012  -0.000002   0.000006
 
 Mode:    50      Frequency (cm-1):     3072.1913     Intensity (km/mol):       24.9314
 Index  Atom      ---- Displacements (x/y/z) ----
     1     H      -0.028602   0.020334  -0.014656
     2     C       0.011489  -0.030891   0.014728
     3     C       0.001945  -0.001506   0.001641
     4     C       0.000349  -0.000613  -0.000118
     5     O      -0.000153   0.000308   0.000073
     6     H      -0.217884   0.211671  -0.155598
     7     H       0.000251  -0.000777  -0.001671
     8     H      -0.356189   0.381479  -0.298091
     9     C       0.068278  -0.049372  -0.005944
    10     H       0.090979   0.129712  -0.014265
    11     H      -0.551440   0.076437   0.379590
    12     H       0.090176   0.156436  -0.020626
    13     H      -0.001964   0.000732   0.001303
    14    Al       0.000027  -0.000015   0.000001
    15     F      -0.000012   0.000007   0.000002
    16     F      -0.000014   0.000003   0.000002
    17     F      -0.000012   0.000010   0.000001
 
 Mode:    51      Frequency (cm-1):     3086.0986     Intensity (km/mol):       20.1606
 Index  Atom      ---- Displacements (x/y/z) ----
     1     H      -0.007563   0.004731  -0.004065
     2     C      -0.002096  -0.022033   0.007473
     3     C       0.000747  -0.000558  -0.000017
     4     C       0.000499  -0.000479  -0.000370
     5     O      -0.000122   0.000197   0.000252
     6     H      -0.082889   0.079139  -0.059404
     7     H       0.000701   0.001394   0.001475
     8     H      -0.135317   0.115711  -0.089966
     9     C      -0.053160  -0.062970   0.035107
    10     H       0.367753   0.714860  -0.063961
    11     H       0.401883  -0.078933  -0.268506
    12     H       0.103349   0.182835  -0.023549
    13     H      -0.003053   0.001088   0.001687
    14    Al       0.000020   0.000047  -0.000033
    15     F      -0.000008  -0.000021   0.000008
    16     F       0.000006  -0.000014   0.000017
    17     F      -0.000017  -0.000004   0.000016

PES point character: Geometry corresponds to a local minimum on the PES.




 ============================
 Statistical Thermal Analysis  ***  ideal gas assumed  ***
 ============================
  
 Pressure:                  1.000000 atm.
 Temperature:             298.150000 K



 Moments of Inertia [amu*bohr^2] and principal axis
 ==================================================

         831.7578       2872.0989       3056.5014
 ------------------------------------------------
          -0.3597         -0.2787          0.8905
          -0.7525          0.6509         -0.1002
           0.5517          0.7062          0.4438


 The rotational contribution to the molecular entropy includes
 a term, dependent on the symmetry number sigma. The results 
 reported below were computed using sigma = 1, determined from
 the point group symmetry of the input geometry (NOSYM). 
 If this is not the correct symmetry, try symmetrizing the molecule before
 running the calculation (note: linear molecules should be aligned along one
 of the Cartesian axes).
 Contributions from frequencies below 20 1/cm are not included in vibrational sums.
 Their contributions, if any, are reported separately.


     Temp                                                        Transl      Rotat     Vibrat     Total
     ----                                                        ------      -----     ------     -----

     298.15   Entropy (cal/mol-K):                               41.044     30.369     39.259    110.672
              Nuclear Internal Energy (kcal/mol):                 0.889      0.889     81.219     82.996
              Constant Volume Heat Capacity (cal/mol-K):          2.981      2.981     33.354     39.316
          (c) Constant Volume Heat Capacity (cal/mol-K):          2.981      2.981     29.687     35.649

       Summary of energy terms
                                                   hartree              eV         kcal/mol           kJ/mol
                                      --------------------     -----------       ----------      -----------
      Energy from Engine:               -3.355349909904757        -91.3037         -2105.51         -8809.47
      Nuclear Internal Energy:           0.132262632813765          3.5990            83.00           347.26
  (c) Nuclear Internal Energy:           0.130404706211553          3.5485            81.83           342.38
      Internal Energy U:                -3.223087277090992        -87.7047         -2022.52         -8462.21
      pV/n = RT:                         0.000944186013486          0.0257             0.59             2.48
      Enthalpy H:                       -3.222143091077506        -87.6790         -2021.93         -8459.74
      -T*S:                             -0.052583726983239         -1.4309           -33.00          -138.06
  (c) -T*S:                             -0.050533481665678         -1.3751           -31.71          -132.68
      Gibbs free energy:                -3.274726818060744        -89.1099         -2054.92         -8597.79
 
 
 
  (c) The properties marked with this symbol have been corrected using 'low vibrational frequency free rotor
      interpolation corrections'. For those terms all positive frequencies are used (also ones below 20 1/cm),
      but the contribution to the partition function of small vibrational frequencies is modified as described
      in the following paper:
      S. Grimme, 'Supramolecular Binding Thermodynamics by Dispersion-Corrected Density Functional Theory'
      (Chem. Eur. J. 2012, 18, 9955-9964)
      Configuration: Dampener Frequency          :   100.000 1/cm
                     Dampener Alpha              :     4.000
                     Averaging Moment of Inertia : 1.000E-44 kg m2

--------------
Atomic charges
--------------
  Index   Atom    Charge
      1      H   -0.1522
      2      C    0.4316
      3      C    0.3577
      4      C    0.7953
      5      O   -0.5664
      6      H   -0.1800
      7      H   -0.1504
      8      H   -0.2173
      9      C    0.6353
     10      H   -0.1773
     11      H   -0.2206
     12      H   -0.1993
     13      H   -0.1909
     14     Al    1.7217
     15      F   -0.6249
     16      F   -0.6243
     17      F   -0.6379


Dipole moment vector    (Debye):    -1.58257449   -7.61054078    2.64288690
              magnitude (Debye):     8.21034251


Final PES point is a local minimum. Geometry optimization successful!


AMS application finished. Exiting.
NORMAL TERMINATION
     Total cpu time:   15668.62
  Total system time:      64.34
 Total elapsed time:   19442.20
