

 Parallel Execution: Process Information
 ==============================================================================
 Rank   Node Name                              NodeID   MyNodeRank  NodeMaster
    0   node120                                   0          0          0
    1   node120                                   0          1         -1
    2   node120                                   0          2         -1
    3   node120                                   0          3         -1
 ==============================================================================


May use up to 122928MB of RAM as shared memory on node 0

 *******************************************************************************
 *                                                                             *
 *  --------------------------------                                           *
 *   Amsterdam Modeling Suite (AMS)              2021.102                      *
 *  --------------------------------                                           *
 *                                               r95042 2021-06-07             *
 *                                                                             *
 *                                                                             *
 *                              =================                              *
 *                              |               |                              *
 *                              |     A M S     |                              *
 *                              |               |                              *
 *                              =================                              *
 *                                                                             *
 *                                                                             *
 *   Online information and documentation:  https://www.scm.com/support/       *
 *   E-mail:  support@scm.com   info@scm.com                                   *
 *                                                                             *
 *   Scientific publications using AMS results must be properly referenced     *
 *   See the User Manuals (or the web site) for recommended citations          *
 *   The terms and conditions of the End User License Agreement apply to       *
 *   the use of AMS, https://www.scm.com/license-terms/                        *
 *                                                                             *
 **********************  x86_64_linux_intel / intelmpi  ************************
 
 Licensed to: VU/FEW (+ SARA) / ALGEMEEN / Amsterdam / THE NETHERLANDS
 SCM User ID: u7668
  
 AMS 2021.102  RunTime: Jan31-2022 02:12:18  ShM Nodes: 1  Procs: 4

 AMS jobname: 31.achiral_catalyst.H_Ph_AlF3.P2
 AMS jobid  : 2139468089

 Start   directory: /scistor/tc/yhk800/MasterProject/calculations/achiral_catalyst_H_Ph_AlF3/31.achiral_catalyst.H_Ph_AlF3.P2/
 Results directory: /scistor/tc/yhk800/MasterProject/calculations/achiral_catalyst_H_Ph_AlF3/31.achiral_catalyst.H_Ph_AlF3.P2/
 Scratch directory: /scratch/5299/amstmp_31.achiral_catalyst.H_Ph_AlF3.P2_kid0.2139468089/


 Communication costs MPI_COMM_WORLD:      1.831 usec per message,   0.0029 usec per 8-byte item
 Communication costs for intra-node:      0.912 usec per message,   0.0175 usec per 8-byte item

 RNG seed: -2131100627 -1031697601 1127438271 -1433513737 1525674628 1112325872 -384336632 -88531850



                      ************************************************************************
                      *  ADF 2021.102  RunTime: Jan31-2022 02:12:21  ShM Nodes: 1  Procs: 4  *
                      ************************************************************************
  
       ***************************
       *  GEOMETRY OPTIMIZATION  *
       ***************************

Optimization Method                    Quasi Newton
Optimization Coordinates               Delocalized Coordinates
Optimize lattice                       F
 
 ------------------------------------------------------
 Convergence criteria (Hartree,Angstrom)
 ------------------------------------------------------
 Maximum gradient               0.001000000000
 Maximum rms gradient           0.000666666667
 Maximum step allowed           0.010000000000
 Maximum rms step allowed       0.006666666667
 Maximum energy change allowe   0.000270000000
 Maximum stress energy allowe   0.000500000000
 
Initial model Hessian                  Automatic Hessian
 
------------------------------------
Quasi-Newton Optimizer Parameters
------------------------------------
Hessian Update Method                  BFGS
Maximum number of steps                  250
First GDIIS cycle                          0
Maximum GDIIS vectors                      0
Trust radius (bohr)                        0.200000
Trust radius varies                        T
Constraints converged at all steps         T
Use projector                              T
 
 Rigid motions settings for: old optimizer
 Atomic rotations (x,y,z):     T T T
 Atomic translations (x,y,z):  T T T
 Tolerance:                   1.000000000000000E-006
 
--------
Geometry
--------
Formula: C10H12AlF3O
Atoms
  Index Symbol   x (angstrom)   y (angstrom)   z (angstrom)
      1      H     0.83345051    -1.35209109     1.20167740
      2      C    -0.83092072     0.03538951     0.93442801
      3      C     0.35139657    -0.78131674     0.40158875
      4      C     1.39689343     0.07225735    -0.26739819
      5      O     2.40703452    -0.34587328    -0.75774611
      6      H    -1.19392452     0.69150371     0.13740680
      7      H     0.00939092    -1.50634328    -0.34451216
      8      H    -0.05768346     0.24518214     2.94899716
      9      C    -0.44138171     0.87842746     2.14736270
     10      H     0.32560687     1.60312788     1.87585802
     11      H    -1.31355949     1.41759590     2.51749654
     12      C    -4.04067044    -2.67858482     2.01857462
     13      C    -4.31865374    -1.53007797     1.26695277
     14      C    -3.28313086    -0.65450113     0.91718762
     15      C    -1.96962468    -0.92743114     1.31904430
     16      C    -1.69164136    -2.07593799     2.07066615
     17      C    -2.72716424    -2.95151482     2.42043130
     18      H    -5.32378380    -1.32122463     0.95944130
     19      H    -3.49585113     0.22436701     0.34202649
     20      H    -0.68651131    -2.28479133     2.37817763
     21      H    -2.51444398    -3.83038297     2.99559244
     22      H    -4.83308023    -3.34859962     2.28622427
     23      H     1.16279025     1.11629180    -0.25802988
     24     Al     3.62898812    -1.04016615    -1.71419100
     25      F     2.54630235    -1.34403940    -2.87684526
     26      F     3.90716904    -2.13950317    -0.56076746
     27      F     4.43349296     0.36304414    -1.70496026
 
Total System Charge             0.00000
 
 
----------------
ADF Engine Input
----------------
 
 NumericalQuality VeryGood
 SCF
 Converge 1.0e-6
 Iterations 99
 End
 SYMMETRY NOSYM
 XC
 GGA OLYP
 End
 basis
 core None
 type TZ2P
 End
 

 Title: *** (NO TITLE) ***

 Using automatic Hessian for delocalized coordinates.
 *** GOStep1 ***

 Energy gradients wrt nuclear displacements
 ==========================================

     Atom      Cartesian (a.u./angstrom)
                 X         Y         Z
 ----------------------------------------
     1 H    -0.004828  0.002844  0.003791
     2 C     0.016782  0.030715 -0.015599
     3 C    -0.008225 -0.013968  0.011950
     4 C     0.051559  0.031488 -0.044056
     5 O     0.095456 -0.055631 -0.063890
     6 H     0.001906 -0.001363  0.001949
     7 H    -0.002861  0.005998  0.002181
     8 H    -0.001274 -0.000849 -0.003778
     9 C     0.000490 -0.004750  0.004421
    10 H    -0.005485 -0.007764 -0.004925
    11 H     0.000049 -0.004266 -0.003939
    12 C    -0.018615 -0.016799  0.006799
    13 C    -0.025782  0.005794 -0.009275
    14 C    -0.000836  0.029499 -0.018707
    15 C    -0.011025 -0.015278  0.013348
    16 C     0.035792  0.000177  0.004154
    17 C     0.004645 -0.024223  0.014369
    18 H     0.019368 -0.004000  0.006182
    19 H     0.004324 -0.016644  0.011621
    20 H    -0.014253  0.007503 -0.007756
    21 H    -0.004320  0.016933 -0.010951
    22 H     0.014982  0.012918 -0.004847
    23 H    -0.003996 -0.050696  0.011135
    24 Al   -0.034080  0.012365  0.015164
    25 F     0.023212  0.032327  0.082354
    26 F    -0.052576  0.076387 -0.031039
    27 F    -0.080407 -0.048717  0.029347
 ----------------------------------------
 Mulliken charges used for AMS results%charges...
 
----------------------------------------------------------------------
Geometry Convergence after Step   1       (Hartree/Angstrom,Angstrom)
----------------------------------------------------------------------
current energy                               -5.70886672 Hartree
energy change                      -5.70886672     0.00027000    F
constrained gradient max            0.09545663     0.00100000    F
constrained gradient rms            0.02795356     0.00066667    F
gradient max                        0.09545663
gradient rms                        0.02795356
cart. step max                      0.16073802     0.01000000    F
cart. step rms                      0.03958436     0.00666667    F
 
 
--------
Geometry
--------
Formula: C10H12AlF3O
Atoms
  Index Symbol   x (angstrom)   y (angstrom)   z (angstrom)
      1      H     0.83552545    -1.33065759     1.20821662
      2      C    -0.85322598     0.03606608     0.95267445
      3      C     0.34215612    -0.76341479     0.41223518
      4      C     1.37929701     0.09938406    -0.25878799
      5      O     2.40237759    -0.31828544    -0.75623909
      6      H    -1.22498303     0.68949915     0.15649143
      7      H     0.00899825    -1.49205587    -0.33603596
      8      H    -0.07534669     0.25454700     2.97015023
      9      C    -0.46734161     0.88426900     2.16881842
     10      H     0.29343499     1.61992977     1.90145595
     11      H    -1.34270673     1.41625526     2.54436848
     12      C    -4.06802592    -2.68180431     2.02689228
     13      C    -4.33820631    -1.53356461     1.27702403
     14      C    -3.29986285    -0.66145468     0.93311948
     15      C    -1.98679676    -0.93272996     1.33680092
     16      C    -1.72031922    -2.08492116     2.08862092
     17      C    -2.75860212    -2.95674160     2.43248487
     18      H    -5.34613329    -1.32016972     0.96374934
     19      H    -3.51149851     0.22226168     0.35530934
     20      H    -0.71502691    -2.30246504     2.40435348
     21      H    -2.54899150    -3.84088940     3.01031695
     22      H    -4.86690890    -3.35340996     2.29172642
     23      H     1.14542747     1.15592012    -0.25687175
     24     Al     3.66786592    -1.02186584    -1.72967592
     25      F     2.67852255    -1.39652316    -2.97824021
     26      F     4.06790706    -2.18490995    -0.64933570
     27      F     4.58295379     0.33253832    -1.81493821
 
Total System Charge             0.00000
 
 *** GOStep2 ***

 Energy gradients wrt nuclear displacements
 ==========================================

     Atom      Cartesian (a.u./angstrom)
                 X         Y         Z
 ----------------------------------------
     1 H    -0.004499  0.003354  0.003288
     2 C     0.012655  0.026971 -0.016561
     3 C    -0.007863 -0.015739  0.012359
     4 C     0.029758  0.029021 -0.029743
     5 O     0.070767 -0.041163 -0.044345
     6 H     0.001312 -0.001122  0.000986
     7 H    -0.003084  0.005482  0.001559
     8 H    -0.000833 -0.000757 -0.002902
     9 C     0.000153 -0.004513  0.005431
    10 H    -0.003883 -0.005842 -0.004213
    11 H    -0.000297 -0.003140 -0.002870
    12 C    -0.011645 -0.010536  0.004143
    13 C    -0.016808  0.002866 -0.006008
    14 C    -0.000120  0.020435 -0.012869
    15 C    -0.009338 -0.012014  0.012709
    16 C     0.025072 -0.001424  0.003665
    17 C     0.002143 -0.016140  0.009067
    18 H     0.012725 -0.002920  0.004344
    19 H     0.003086 -0.011111  0.008023
    20 H    -0.009922  0.005904 -0.005853
    21 H    -0.003134  0.011181 -0.007219
    22 H     0.009931  0.008620 -0.003105
    23 H    -0.006842 -0.032681  0.010775
    24 Al   -0.026838  0.008988  0.010377
    25 F     0.013799  0.019448  0.048529
    26 F    -0.030861  0.043228 -0.016824
    27 F    -0.045430 -0.026394  0.017257
 ----------------------------------------
 Mulliken charges used for AMS results%charges...

 dE(predicted):    -0.31571E-01, dE(actual):    -0.29632E-01, Trust radius:    0.400000, all in a.u.
 
----------------------------------------------------------------------
Geometry Convergence after Step   2       (Hartree/Angstrom,Angstrom)
----------------------------------------------------------------------
current energy                               -5.73849863 Hartree
energy change                      -0.02963191     0.00027000    F
constrained gradient max            0.07077119     0.00100000    F
constrained gradient rms            0.01854128     0.00066667    F
gradient max                        0.07077119
gradient rms                        0.01854128
cart. step max                      0.21254622     0.01000000    F
cart. step rms                      0.05278020     0.00666667    F
 
 
--------
Geometry
--------
Formula: C10H12AlF3O
Atoms
  Index Symbol   x (angstrom)   y (angstrom)   z (angstrom)
      1      H     0.90944302    -1.29969697     1.20949086
      2      C    -0.84922992     0.00456292     1.00578677
      3      C     0.37270632    -0.74112678     0.43431976
      4      C     1.37279188     0.14397413    -0.25324683
      5      O     2.39482899    -0.26696193    -0.77277171
      6      H    -1.23145795     0.65987271     0.21486307
      7      H     0.06423355    -1.48490164    -0.31289508
      8      H    -0.07921253     0.25688631     3.03142404
      9      C    -0.47861013     0.87252126     2.22136079
     10      H     0.27223631     1.62685689     1.96580799
     11      H    -1.36141927     1.39474903     2.59655952
     12      C    -4.12631030    -2.66942483     2.02329591
     13      C    -4.35224929    -1.53032708     1.25073175
     14      C    -3.28881826    -0.68805647     0.91849434
     15      C    -1.98733949    -0.96815871     1.35322249
     16      C    -1.77263747    -2.11411516     2.13215202
     17      C    -2.83423472    -2.95747089     2.46502325
     18      H    -5.35238698    -1.30110289     0.90164494
     19      H    -3.47452794     0.19299261     0.31478786
     20      H    -0.78037072    -2.35261688     2.49297548
     21      H    -2.65195846    -3.84062721     3.06615168
     22      H    -4.94836978    -3.32831244     2.27690263
     23      H     1.12439992     1.21031147    -0.31997030
     24     Al     3.69649966    -0.99133643    -1.77953656
     25      F     2.74296793    -1.50387081    -3.03625125
     26      F     4.25620844    -2.13611424    -0.71815506
     27      F     4.64330708     0.34630141    -2.02748443
 
Total System Charge             0.00000
 
 *** GOStep3 ***

 Energy gradients wrt nuclear displacements
 ==========================================

     Atom      Cartesian (a.u./angstrom)
                 X         Y         Z
 ----------------------------------------
     1 H    -0.002458  0.003648  0.000956
     2 C     0.006737  0.013777 -0.006507
     3 C    -0.003721 -0.010872  0.001579
     4 C     0.023317  0.014448 -0.009094
     5 O     0.037523 -0.023539 -0.026677
     6 H     0.000517 -0.001846  0.000667
     7 H    -0.001888  0.002634  0.000957
     8 H    -0.000547 -0.000275 -0.001971
     9 C     0.000358 -0.000299  0.003161
    10 H    -0.001513 -0.001529 -0.000990
    11 H     0.000085 -0.001136 -0.001097
    12 C    -0.003412 -0.002936  0.001009
    13 C    -0.005737  0.000936 -0.000854
    14 C     0.000584  0.007479 -0.003985
    15 C    -0.007183 -0.008368  0.004056
    16 C     0.008507 -0.002405  0.001393
    17 C    -0.000116 -0.004571  0.003689
    18 H     0.004138 -0.001477  0.001640
    19 H     0.001250 -0.004049  0.002895
    20 H    -0.004501  0.002606 -0.002128
    21 H    -0.001296  0.003707 -0.002622
    22 H     0.003476  0.002690 -0.001309
    23 H    -0.005152 -0.013108  0.003052
    24 Al   -0.022393  0.008372  0.010155
    25 F     0.005979  0.009137  0.019301
    26 F    -0.014057  0.016709 -0.006223
    27 F    -0.018497 -0.009732  0.008948
 ----------------------------------------
 Mulliken charges used for AMS results%charges...

 dE(predicted):    -0.15491E-01, dE(actual):    -0.15439E-01, Trust radius:    0.400000, all in a.u.
 
----------------------------------------------------------------------
Geometry Convergence after Step   3       (Hartree/Angstrom,Angstrom)
----------------------------------------------------------------------
current energy                               -5.75393777 Hartree
energy change                      -0.01543914     0.00027000    F
constrained gradient max            0.03752221     0.00100000    F
constrained gradient rms            0.00922269     0.00066667    F
gradient max                        0.03752221
gradient rms                        0.00922269
cart. step max                      0.20023216     0.01000000    F
cart. step rms                      0.04962754     0.00666667    F
 
 
--------
Geometry
--------
Formula: C10H12AlF3O
Atoms
  Index Symbol   x (angstrom)   y (angstrom)   z (angstrom)
      1      H     0.90367673    -1.29277835     1.11534602
      2      C    -0.88079573     0.01047025     1.02948278
      3      C     0.31545962    -0.72049073     0.38508318
      4      C     1.26960646     0.16056215    -0.35391127
      5      O     2.33262301    -0.24297993    -0.81151722
      6      H    -1.28740809     0.68843193     0.26787095
      7      H    -0.01682387    -1.46643020    -0.35305934
      8      H    -0.02629984     0.23584236     3.03398507
      9      C    -0.44675878     0.86183908     2.24051413
     10      H     0.30923310     1.60849441     1.96856966
     11      H    -1.30267548     1.39887899     2.65784766
     12      C    -4.14490084    -2.67893875     2.03026720
     13      C    -4.37555753    -1.53046190     1.27497934
     14      C    -3.31807886    -0.67817898     0.95788028
     15      C    -2.01237241    -0.95280386     1.38489016
     16      C    -1.79490334    -2.11414538     2.13941491
     17      C    -2.84853413    -2.97128985     2.45351222
     18      H    -5.38205629    -1.29234659     0.93416718
     19      H    -3.51371473     0.21405777     0.36356771
     20      H    -0.79424558    -2.37473939     2.47941420
     21      H    -2.65457988    -3.87028056     3.03661126
     22      H    -4.96814462    -3.34454020     2.28420779
     23      H     1.08119315     1.25323590    -0.38273948
     24     Al     3.76456440    -0.98339201    -1.73599706
     25      F     2.94320009    -1.63538334    -3.04665807
     26      F     4.38529790    -2.08369258    -0.63274145
     27      F     4.74348540     0.33586711    -2.06630383
 
Total System Charge             0.00000
 
 *** GOStep4 ***

 Energy gradients wrt nuclear displacements
 ==========================================

     Atom      Cartesian (a.u./angstrom)
                 X         Y         Z
 ----------------------------------------
     1 H    -0.001520 -0.000410  0.002309
     2 C     0.002213  0.002943 -0.001139
     3 C     0.004018 -0.003121  0.009065
     4 C    -0.017241 -0.003864 -0.031562
     5 O     0.024366 -0.009582 -0.000488
     6 H    -0.000586 -0.001085 -0.000664
     7 H     0.002552  0.001772 -0.000972
     8 H     0.000101 -0.000065 -0.000039
     9 C    -0.000179  0.000437  0.000797
    10 H     0.000339  0.000937  0.000164
    11 H     0.000132  0.000206  0.000219
    12 C     0.001817  0.002045 -0.000020
    13 C     0.002723 -0.001286 -0.000917
    14 C    -0.000310 -0.001807  0.001491
    15 C    -0.002396 -0.001479  0.002364
    16 C    -0.002380  0.001177  0.000970
    17 C     0.000187  0.001503 -0.003128
    18 H    -0.001786  0.000505 -0.000211
    19 H    -0.000344  0.001283 -0.001014
    20 H     0.001688 -0.001098 -0.000577
    21 H     0.000290 -0.001458  0.000973
    22 H    -0.001477 -0.000832  0.000882
    23 H     0.005794  0.004112  0.010812
    24 Al   -0.020927  0.010886  0.012987
    25 F     0.000398 -0.001095 -0.001565
    26 F     0.001315 -0.001888  0.000069
    27 F     0.001214  0.001265 -0.000808
 ----------------------------------------
 Mulliken charges used for AMS results%charges...

 dE(predicted):    -0.47846E-02, dE(actual):    -0.40697E-02, Trust radius:    0.800000, all in a.u.
 
----------------------------------------------------------------------
Geometry Convergence after Step   4       (Hartree/Angstrom,Angstrom)
----------------------------------------------------------------------
current energy                               -5.75800743 Hartree
energy change                      -0.00406966     0.00027000    F
constrained gradient max            0.03156440     0.00100000    F
constrained gradient rms            0.00620513     0.00066667    F
gradient max                        0.03156440
gradient rms                        0.00620513
cart. step max                      0.21474908     0.01000000    F
cart. step rms                      0.04563307     0.00666667    F
 
 
--------
Geometry
--------
Formula: C10H12AlF3O
Atoms
  Index Symbol   x (angstrom)   y (angstrom)   z (angstrom)
      1      H     0.92768937    -1.27562717     1.16086213
      2      C    -0.87027622     0.01725554     1.07079139
      3      C     0.33772540    -0.70031359     0.43351048
      4      C     1.29338781     0.18592950    -0.29089616
      5      O     2.33301409    -0.22441658    -0.79884238
      6      H    -1.26417448     0.70753631     0.31272444
      7      H     0.01773165    -1.44812163    -0.30979530
      8      H    -0.04751754     0.22070008     3.09341413
      9      C    -0.45216445     0.85468333     2.29738717
     10      H     0.31252205     1.59992535     2.04530557
     11      H    -1.31189218     1.39286180     2.70606280
     12      C    -4.14755995    -2.68448227     1.98146706
     13      C    -4.36168651    -1.53789824     1.21832389
     14      C    -3.29973774    -0.68150825     0.92966697
     15      C    -2.00476238    -0.94792543     1.39350748
     16      C    -1.80519983    -2.10541715     2.15894285
     17      C    -2.86350935    -2.96528233     2.44805230
     18      H    -5.35864851    -1.30605910     0.84422077
     19      H    -3.48394435     0.20956212     0.32810895
     20      H    -0.81509061    -2.35662473     2.53848672
     21      H    -2.68130552    -3.86013723     3.04273000
     22      H    -4.97445863    -3.35565484     2.21101174
     23      H     1.04460945     1.25844573    -0.44491418
     24     Al     3.74166855    -0.99710482    -1.78148708
     25      F     2.85850460    -1.76585686    -2.99163161
     26      F     4.48325340    -2.00944289    -0.66127324
     27      F     4.67231173     0.30978071    -2.28105291
 
Total System Charge             0.00000
 
 *** GOStep5 ***

 Energy gradients wrt nuclear displacements
 ==========================================

     Atom      Cartesian (a.u./angstrom)
                 X         Y         Z
 ----------------------------------------
     1 H     0.001355  0.000383  0.000183
     2 C    -0.001339 -0.000539 -0.000752
     3 C    -0.001728 -0.002199 -0.004096
     4 C    -0.002847  0.000371  0.013043
     5 O     0.012821 -0.008498 -0.009923
     6 H    -0.000707 -0.000497 -0.000810
     7 H     0.000668 -0.001219  0.000557
     8 H     0.000364 -0.000104  0.000662
     9 C    -0.000050  0.000187 -0.000269
    10 H     0.000558  0.001165  0.000673
    11 H     0.000040  0.000363  0.000395
    12 C     0.002501  0.002008 -0.000749
    13 C     0.003693 -0.000659  0.000297
    14 C    -0.000474 -0.003345  0.002497
    15 C    -0.000075  0.000809  0.001090
    16 C    -0.003824  0.001104 -0.001237
    17 C     0.000070  0.002995 -0.002602
    18 H    -0.002574  0.000748 -0.000891
    19 H    -0.000646  0.002281 -0.001626
    20 H     0.002621 -0.001401  0.000830
    21 H     0.000610 -0.002243  0.001579
    22 H    -0.002176 -0.001551  0.000917
    23 H     0.000079  0.004971 -0.004602
    24 Al   -0.019387  0.011134  0.012200
    25 F    -0.000799 -0.004546 -0.006369
    26 F     0.005360 -0.005623  0.002487
    27 F     0.005887  0.003907 -0.003485
 ----------------------------------------
 Mulliken charges used for AMS results%charges...

 dE(predicted):    -0.24141E-02, dE(actual):    -0.12627E-02, Trust radius:    0.800000, all in a.u.
 
----------------------------------------------------------------------
Geometry Convergence after Step   5       (Hartree/Angstrom,Angstrom)
----------------------------------------------------------------------
current energy                               -5.75927009 Hartree
energy change                      -0.00126265     0.00027000    F
constrained gradient max            0.01938373     0.00100000    F
constrained gradient rms            0.00437970     0.00066667    F
gradient max                        0.01938373
gradient rms                        0.00437970
cart. step max                      0.08085321     0.01000000    F
cart. step rms                      0.02460285     0.00666667    F
 
 
--------
Geometry
--------
Formula: C10H12AlF3O
Atoms
  Index Symbol   x (angstrom)   y (angstrom)   z (angstrom)
      1      H     0.92500029    -1.29969120     1.11150730
      2      C    -0.86775267    -0.00062403     1.05913923
      3      C     0.33017370    -0.71244969     0.39853293
      4      C     1.27827408     0.18017008    -0.32837094
      5      O     2.33091269    -0.21367319    -0.81684790
      6      H    -1.26323413     0.70447678     0.31608006
      7      H    -0.00352727    -1.44813566    -0.35073693
      8      H    -0.02732975     0.16857582     3.07590795
      9      C    -0.43366576     0.81642121     2.29249256
     10      H     0.33457556     1.55755352     2.04143004
     11      H    -1.28603734     1.35551621     2.71475501
     12      C    -4.16645334    -2.66494984     2.00497584
     13      C    -4.37252142    -1.52194071     1.23388306
     14      C    -3.30132434    -0.68291907     0.92595464
     15      C    -2.00599651    -0.96212115     1.38105063
     16      C    -1.81564225    -2.11233028     2.16052758
     17      C    -2.88372406    -2.95352547     2.47109383
     18      H    -5.36737579    -1.28435469     0.86180396
     19      H    -3.47886394     0.20497583     0.32027618
     20      H    -0.83040775    -2.36024270     2.55035157
     21      H    -2.70976578    -3.84093383     3.07677443
     22      H    -4.99760288    -3.32641230     2.24073884
     23      H     1.01885937     1.24916569    -0.47027723
     24     Al     3.77699785    -0.96938204    -1.76927193
     25      F     2.91306818    -1.77870761    -2.96275654
     26      F     4.51743738    -1.92858968    -0.60674018
     27      F     4.66641576     0.35893539    -2.27759002
 
Total System Charge             0.00000
 
 *** GOStep6 ***

 Energy gradients wrt nuclear displacements
 ==========================================

     Atom      Cartesian (a.u./angstrom)
                 X         Y         Z
 ----------------------------------------
     1 H     0.000728  0.000573  0.000524
     2 C    -0.000792 -0.000171  0.000570
     3 C    -0.000964 -0.000138 -0.002789
     4 C    -0.002427 -0.000159  0.003890
     5 O     0.010130 -0.006703 -0.006108
     6 H     0.000030 -0.000367 -0.000479
     7 H     0.000887 -0.000732  0.000640
     8 H     0.000088 -0.000239  0.000261
     9 C    -0.000050  0.000331 -0.000316
    10 H     0.000159  0.000562  0.000347
    11 H     0.000002  0.000187  0.000182
    12 C     0.001081  0.000411 -0.000579
    13 C     0.001152  0.000651  0.001538
    14 C    -0.000109 -0.001172  0.001244
    15 C     0.000497 -0.000629 -0.001058
    16 C    -0.001252 -0.000635 -0.002358
    17 C    -0.000533  0.001776  0.000410
    18 H    -0.000947  0.000132 -0.000622
    19 H    -0.000231  0.000973 -0.000634
    20 H     0.000614 -0.000154  0.001215
    21 H     0.000201 -0.000912  0.000616
    22 H    -0.000750 -0.000874 -0.000060
    23 H     0.001073  0.002359 -0.001280
    24 Al   -0.014315  0.008263  0.008484
    25 F    -0.001139 -0.002883 -0.003740
    26 F     0.003291 -0.003516  0.002138
    27 F     0.003575  0.003065 -0.002035
 ----------------------------------------
 Mulliken charges used for AMS results%charges...

 dE(predicted):    -0.34045E-03, dE(actual):    -0.48362E-03, Trust radius:    0.800000, all in a.u.
 
----------------------------------------------------------------------
Geometry Convergence after Step   6       (Hartree/Angstrom,Angstrom)
----------------------------------------------------------------------
current energy                               -5.75975370 Hartree
energy change                      -0.00048362     0.00027000    F
constrained gradient max            0.01431714     0.00100000    F
constrained gradient rms            0.00289678     0.00066667    F
gradient max                        0.01431714
gradient rms                        0.00289678
cart. step max                      0.20484620     0.01000000    F
cart. step rms                      0.05175062     0.00666667    F
 
 
--------
Geometry
--------
Formula: C10H12AlF3O
Atoms
  Index Symbol   x (angstrom)   y (angstrom)   z (angstrom)
      1      H     0.90181767    -1.34096656     1.02132323
      2      C    -0.86500241    -0.00816984     1.06544863
      3      C     0.29600184    -0.72233930     0.34652970
      4      C     1.22749808     0.17154984    -0.40013512
      5      O     2.30193632    -0.19851601    -0.85052082
      6      H    -1.26548225     0.72955053     0.35793073
      7      H    -0.08359398    -1.42954308    -0.40893007
      8      H     0.03612967     0.08533611     3.05941541
      9      C    -0.37584829     0.76304605     2.30563230
     10      H     0.40421737     1.48779596     2.04668278
     11      H    -1.20155084     1.31262979     2.76517367
     12      C    -4.18377222    -2.64756594     2.00974435
     13      C    -4.38081378    -1.50550829     1.23441215
     14      C    -3.30434175    -0.66944227     0.93291480
     15      C    -2.01281168    -0.95460828     1.39492681
     16      C    -1.83046359    -2.10572376     2.17581078
     17      C    -2.90248603    -2.94749199     2.47410010
     18      H    -5.37239780    -1.26091615     0.86400920
     19      H    -3.47359583     0.21641504     0.32562954
     20      H    -0.84597441    -2.36389970     2.55478482
     21      H    -2.73519142    -3.83702219     3.07489242
     22      H    -5.01850125    -3.30133717     2.24507810
     23      H     0.93309583     1.22481912    -0.56209532
     24     Al     3.82593868    -0.94254230    -1.73287531
     25      F     3.00580914    -1.89887355    -2.83833363
     26      F     4.58873049    -1.72374348    -0.46403368
     27      F     4.61114231     0.40187479    -2.34283160
 
Total System Charge             0.00000
 
 *** GOStep7 ***

 Energy gradients wrt nuclear displacements
 ==========================================

     Atom      Cartesian (a.u./angstrom)
                 X         Y         Z
 ----------------------------------------
     1 H     0.000187  0.000409  0.000944
     2 C     0.000674 -0.001470  0.000024
     3 C    -0.000808  0.003188 -0.001682
     4 C    -0.000581  0.000665 -0.005746
     5 O     0.002923 -0.003980 -0.000134
     6 H     0.000845 -0.000012 -0.000004
     7 H     0.001225 -0.000650  0.000979
     8 H    -0.000300 -0.000181 -0.000275
     9 C    -0.000482  0.000305 -0.000055
    10 H    -0.000439 -0.000449 -0.000232
    11 H     0.000007 -0.000068 -0.000095
    12 C    -0.001453 -0.000551  0.001469
    13 C    -0.001545 -0.000324 -0.001391
    14 C     0.000020  0.002195 -0.000195
    15 C     0.000785  0.000104 -0.000275
    16 C     0.001397  0.000768  0.001922
    17 C    -0.000107 -0.002695  0.000022
    18 H     0.001255 -0.000245  0.000601
    19 H     0.000337 -0.001124  0.000679
    20 H    -0.001353  0.000117 -0.000826
    21 H    -0.000261  0.001086 -0.000826
    22 H     0.001083  0.000868 -0.000305
    23 H     0.001791 -0.001898  0.002628
    24 Al   -0.003539  0.003070  0.001470
    25 F    -0.001665 -0.000055  0.000298
    26 F    -0.000007 -0.000109  0.000858
    27 F     0.000010  0.001037  0.000147
 ----------------------------------------
 Mulliken charges used for AMS results%charges...

 dE(predicted):    -0.45517E-03, dE(actual):    -0.55463E-03, Trust radius:    0.800000, all in a.u.
 
----------------------------------------------------------------------
Geometry Convergence after Step   7       (Hartree/Angstrom,Angstrom)
----------------------------------------------------------------------
current energy                               -5.76030834 Hartree
energy change                      -0.00055463     0.00027000    F
constrained gradient max            0.00574395     0.00100000    F
constrained gradient rms            0.00141005     0.00066667    F
gradient max                        0.00574395
gradient rms                        0.00141005
cart. step max                      0.21358289     0.01000000    F
cart. step rms                      0.05619000     0.00666667    F
 
 
--------
Geometry
--------
Formula: C10H12AlF3O
Atoms
  Index Symbol   x (angstrom)   y (angstrom)   z (angstrom)
      1      H     0.86025712    -1.39299856     0.91163758
      2      C    -0.86683647    -0.01412779     1.06845588
      3      C     0.25086140    -0.72969864     0.28547376
      4      C     1.17335945     0.16795163    -0.46770121
      5      O     2.27096000    -0.17961187    -0.87690178
      6      H    -1.27275897     0.75992881     0.40392366
      7      H    -0.17910665    -1.39290013    -0.48418340
      8      H     0.10728188    -0.01270340     3.03143078
      9      C    -0.31296624     0.69964285     2.31538981
     10      H     0.47801162     1.41009662     2.05027495
     11      H    -1.10603320     1.25575298     2.82210086
     12      C    -4.19909165    -2.63242865     2.01657387
     13      C    -4.39342160    -1.48668627     1.24612148
     14      C    -3.31284367    -0.65756675     0.93924344
     15      C    -2.02195725    -0.94917849     1.39897548
     16      C    -1.84248709    -2.10343352     2.17600172
     17      C    -2.91980411    -2.93368400     2.48615861
     18      H    -5.38395927    -1.23861867     0.87614569
     19      H    -3.47952725     0.23056475     0.33519573
     20      H    -0.85980684    -2.35979428     2.56019110
     21      H    -2.75645737    -3.82105684     3.09063747
     22      H    -5.03606630    -3.28251274     2.25274979
     23      H     0.84117388     1.20153084    -0.67586440
     24     Al     3.87787751    -0.90911094    -1.68097639
     25      F     3.13256106    -2.00821635    -2.69962549
     26      F     4.65133049    -1.51016059    -0.32704645
     27      F     4.57993940     0.42382739    -2.39969859
 
Total System Charge             0.00000
 
 *** GOStep8 ***

 Energy gradients wrt nuclear displacements
 ==========================================

     Atom      Cartesian (a.u./angstrom)
                 X         Y         Z
 ----------------------------------------
     1 H     0.000411 -0.000134  0.000746
     2 C     0.000662 -0.002053  0.000315
     3 C    -0.002084  0.004388 -0.000591
     4 C    -0.000516  0.002404 -0.006003
     5 O    -0.002351 -0.002765  0.002683
     6 H     0.000754  0.000392  0.000220
     7 H     0.001392 -0.001420  0.001115
     8 H    -0.000374 -0.000154 -0.000247
     9 C    -0.000152  0.000313 -0.000044
    10 H    -0.000346 -0.000617 -0.000323
    11 H     0.000028 -0.000128 -0.000218
    12 C    -0.001319 -0.002061 -0.000616
    13 C    -0.002518  0.001145  0.000672
    14 C    -0.000047  0.001762 -0.001696
    15 C     0.001126  0.001040 -0.000406
    16 C     0.002745 -0.001413 -0.001284
    17 C    -0.000552 -0.001088  0.003072
    18 H     0.001652 -0.000441  0.000545
    19 H     0.000376 -0.001535  0.000882
    20 H    -0.001569  0.000773 -0.000326
    21 H    -0.000273  0.001507 -0.000986
    22 H     0.001419  0.000978 -0.000614
    23 H     0.001453 -0.002495  0.003125
    24 Al    0.004046  0.000092 -0.002039
    25 F    -0.001732  0.001018  0.001263
    26 F    -0.001187  0.000923 -0.000291
    27 F    -0.001043 -0.000434  0.001045
 ----------------------------------------
 Mulliken charges used for AMS results%charges...

 dE(predicted):    -0.26945E-03, dE(actual):    -0.36590E-03, Trust radius:    0.800000, all in a.u.
 
----------------------------------------------------------------------
Geometry Convergence after Step   8       (Hartree/Angstrom,Angstrom)
----------------------------------------------------------------------
current energy                               -5.76067423 Hartree
energy change                      -0.00036590     0.00027000    F
constrained gradient max            0.00600401     0.00100000    F
constrained gradient rms            0.00160737     0.00066667    F
gradient max                        0.00600401
gradient rms                        0.00160737
cart. step max                      0.20863374     0.01000000    F
cart. step rms                      0.05364301     0.00666667    F
 
 
--------
Geometry
--------
Formula: C10H12AlF3O
Atoms
  Index Symbol   x (angstrom)   y (angstrom)   z (angstrom)
      1      H     0.81453860    -1.44803568     0.80525708
      2      C    -0.86724039    -0.02552731     1.06626927
      3      C     0.20776173    -0.74297347     0.22548126
      4      C     1.12522575     0.15850247    -0.52988144
      5      O     2.24483146    -0.16349263    -0.89792869
      6      H    -1.27795366     0.77702053     0.43935728
      7      H    -0.27005396    -1.35826441    -0.55689471
      8      H     0.17839708    -0.09956624     2.99269279
      9      C    -0.25268453     0.63990329     2.31159586
     10      H     0.54414525     1.33991412     2.03597058
     11      H    -1.01410538     1.19886656     2.86197711
     12      C    -4.21764343    -2.61278624     2.03312326
     13      C    -4.40628130    -1.46579997     1.26339815
     14      C    -3.32111649    -0.64352673     0.95440518
     15      C    -2.03032226    -0.94657528     1.40644134
     16      C    -1.85663531    -2.10203733     2.18316856
     17      C    -2.93770405    -2.92715908     2.49237512
     18      H    -5.39686350    -1.20937765     0.89833875
     19      H    -3.48437572     0.24873866     0.35495331
     20      H    -0.87382328    -2.36560175     2.56298289
     21      H    -2.77828677    -3.81743225     3.09422335
     22      H    -5.05875921    -3.25695544     2.27229316
     23      H     0.75865651     1.16966513    -0.78913629
     24     Al     3.92559768    -0.86675798    -1.62270922
     25      F     3.26984134    -2.08700953    -2.55909608
     26      F     4.69546829    -1.30152686    -0.20669195
     27      F     4.55987540     0.44260243    -2.43728198
 
Total System Charge             0.00000
 
 *** GOStep9 ***

 Energy gradients wrt nuclear displacements
 ==========================================

     Atom      Cartesian (a.u./angstrom)
                 X         Y         Z
 ----------------------------------------
     1 H     0.000481 -0.000512  0.000250
     2 C     0.000734 -0.002790 -0.000554
     3 C    -0.002924  0.004675  0.000768
     4 C     0.000298  0.003213 -0.004333
     5 O    -0.005859 -0.001663  0.003665
     6 H     0.000524  0.000652  0.000361
     7 H     0.001429 -0.001957  0.000870
     8 H    -0.000346 -0.000101 -0.000115
     9 C    -0.000174  0.000113  0.000048
    10 H    -0.000157 -0.000546 -0.000347
    11 H     0.000044 -0.000053 -0.000176
    12 C    -0.001264 -0.000780  0.000605
    13 C    -0.001829  0.000480  0.000016
    14 C    -0.000114  0.001539 -0.000932
    15 C     0.001063  0.000872 -0.001593
    16 C     0.001834 -0.000739  0.000015
    17 C    -0.000060 -0.001495  0.001191
    18 H     0.001324 -0.000456  0.000250
    19 H     0.000253 -0.001078  0.000938
    20 H    -0.001186  0.000787 -0.000052
    21 H    -0.000187  0.001165 -0.000802
    22 H     0.001096  0.000750 -0.000493
    23 H     0.000981 -0.001998  0.002395
    24 Al    0.008413 -0.001389 -0.003547
    25 F    -0.001404  0.001498  0.001345
    26 F    -0.001648  0.001228 -0.001271
    27 F    -0.001323 -0.001416  0.001496
 ----------------------------------------
 Mulliken charges used for AMS results%charges...

 dE(predicted):    -0.30643E-03, dE(actual):    -0.27610E-03, Trust radius:    0.800000, all in a.u.
 
----------------------------------------------------------------------
Geometry Convergence after Step   9       (Hartree/Angstrom,Angstrom)
----------------------------------------------------------------------
current energy                               -5.76095033 Hartree
energy change                      -0.00027610     0.00027000    F
constrained gradient max            0.00841110     0.00100000    F
constrained gradient rms            0.00183734     0.00066667    F
gradient max                        0.00841110
gradient rms                        0.00183734
cart. step max                      0.20957452     0.01000000    F
cart. step rms                      0.05971826     0.00666667    F
 
 
--------
Geometry
--------
Formula: C10H12AlF3O
Atoms
  Index Symbol   x (angstrom)   y (angstrom)   z (angstrom)
      1      H     0.74809593    -1.51318629     0.67927423
      2      C    -0.86818323    -0.03792644     1.05664967
      3      C     0.15301991    -0.76052738     0.15182323
      4      C     1.07164521     0.14232891    -0.60096117
      5      O     2.21549574    -0.15000368    -0.91529346
      6      H    -1.28484868     0.79131709     0.46968149
      7      H    -0.38140569    -1.31230211    -0.64233816
      8      H     0.26444238    -0.18802703     2.93124491
      9      C    -0.18342703     0.57767611     2.29134166
     10      H     0.61430475     1.27015397     1.99910571
     11      H    -0.90733993     1.13508450     2.89181767
     12      C    -4.23342672    -2.59334675     2.05578308
     13      C    -4.41997805    -1.44024892     1.29507054
     14      C    -3.33076087    -0.62649829     0.97862596
     15      C    -2.03846085    -0.94283944     1.41646795
     16      C    -1.86668988    -2.10471213     2.18393877
     17      C    -2.95186393    -2.92060240     2.50132581
     18      H    -5.41316136    -1.17082178     0.94477201
     19      H    -3.49214742     0.26978237     0.38342504
     20      H    -0.88029001    -2.38351034     2.54481562
     21      H    -2.79414689    -3.81634466     3.09669422
     22      H    -5.07865545    -3.23017750     2.30301150
     23      H     0.67488016     1.12651069    -0.91953813
     24     Al     3.97078701    -0.81578803    -1.53944134
     25      F     3.42820122    -2.14131280    -2.39964687
     26      F     4.70803793    -1.09195234    -0.06859344
     27      F     4.55636561     0.46208204    -2.43437257
 
Total System Charge             0.00000
 
 *** GOStep10 ***

 Energy gradients wrt nuclear displacements
 ==========================================

     Atom      Cartesian (a.u./angstrom)
                 X         Y         Z
 ----------------------------------------
     1 H     0.000322 -0.000777 -0.000341
     2 C     0.000991 -0.002979 -0.001804
     3 C    -0.003278  0.003895  0.003121
     4 C     0.001215  0.003371 -0.002707
     5 O    -0.008504 -0.000515  0.004079
     6 H     0.000172  0.000699  0.000399
     7 H     0.001263 -0.002094  0.000076
     8 H    -0.000202  0.000042  0.000032
     9 C    -0.000206  0.000001  0.000289
    10 H     0.000145 -0.000311 -0.000289
    11 H     0.000111  0.000062 -0.000097
    12 C    -0.000398 -0.000670 -0.000610
    13 C    -0.000765  0.000189  0.000232
    14 C     0.000072  0.000408 -0.000619
    15 C     0.000210  0.001433 -0.000563
    16 C     0.000636 -0.000722  0.000053
    17 C     0.000079 -0.000113  0.001049
    18 H     0.000531 -0.000086  0.000259
    19 H     0.000162 -0.000557  0.000274
    20 H    -0.000343  0.000232 -0.000302
    21 H    -0.000064  0.000496 -0.000321
    22 H     0.000426  0.000357 -0.000141
    23 H     0.000347 -0.000939  0.001137
    24 Al    0.010626 -0.002102 -0.003966
    25 F    -0.000648  0.001782  0.001111
    26 F    -0.001694  0.001054 -0.002108
    27 F    -0.001207 -0.002156  0.001757
 ----------------------------------------
 Mulliken charges used for AMS results%charges...

 dE(predicted):    -0.29525E-03, dE(actual):    -0.25577E-03, Trust radius:    0.800000, all in a.u.
 
----------------------------------------------------------------------
Geometry Convergence after Step  10       (Hartree/Angstrom,Angstrom)
----------------------------------------------------------------------
current energy                               -5.76120610 Hartree
energy change                      -0.00025577     0.00027000    T
constrained gradient max            0.01062510     0.00100000    F
constrained gradient rms            0.00202522     0.00066667    F
gradient max                        0.01062510
gradient rms                        0.00202522
cart. step max                      0.21081162     0.01000000    F
cart. step rms                      0.06818093     0.00666667    F
 
 
--------
Geometry
--------
Formula: C10H12AlF3O
Atoms
  Index Symbol   x (angstrom)   y (angstrom)   z (angstrom)
      1      H     0.66177919    -1.58419338     0.52946487
      2      C    -0.86954945    -0.05402196     1.03179476
      3      C     0.08901015    -0.78059438     0.05833133
      4      C     1.01786558     0.12172075    -0.68205137
      5      O     2.18655523    -0.13763865    -0.92801026
      6      H    -1.29215086     0.80146478     0.48864069
      7      H    -0.50596257    -1.25274319    -0.74468905
      8      H     0.35854321    -0.28690770     2.83874989
      9      C    -0.10984179     0.50633480     2.24912937
     10      H     0.68347939     1.19655696     1.93969657
     11      H    -0.79206918     1.05373827     2.90522733
     12      C    -4.24657369    -2.56731754     2.09724341
     13      C    -4.43455428    -1.40821417     1.34629231
     14      C    -3.34214842    -0.60657455     1.01134968
     15      C    -2.04468895    -0.94330570     1.41741811
     16      C    -1.87088681    -2.11282558     2.17230647
     17      C    -2.95902771    -2.91736739     2.50664710
     18      H    -5.43237933    -1.12312137     1.02015617
     19      H    -3.50562092     0.29795383     0.42793176
     20      H    -0.87989727    -2.40664275     2.50986290
     21      H    -2.80003102    -3.81968797     3.09301129
     22      H    -5.09510380    -3.19426035     2.36106592
     23      H     0.60009006     1.07614506    -1.06396474
     24     Al     4.01104067    -0.75596186    -1.42619678
     25      F     3.59776538    -2.17119061    -2.21016425
     26      F     4.68600615    -0.88114072     0.09401045
     27      F     4.56884094     0.48460274    -2.38856997
 
Total System Charge             0.00000
 
 *** GOStep11 ***

 Energy gradients wrt nuclear displacements
 ==========================================

     Atom      Cartesian (a.u./angstrom)
                 X         Y         Z
 ----------------------------------------
     1 H     0.000016 -0.000733 -0.000978
     2 C     0.001069 -0.002473 -0.003204
     3 C    -0.002650  0.002370  0.006135
     4 C     0.001508  0.003148 -0.001129
     5 O    -0.009523  0.000351  0.003804
     6 H    -0.000246  0.000585  0.000411
     7 H     0.000717 -0.001518 -0.001164
     8 H    -0.000047  0.000038  0.000160
     9 C    -0.000050 -0.000323  0.000487
    10 H     0.000424 -0.000005 -0.000205
    11 H     0.000142  0.000155 -0.000020
    12 C     0.000118  0.000766  0.000298
    13 C     0.000396 -0.000424 -0.000136
    14 C     0.000089 -0.000552  0.000075
    15 C    -0.000538  0.000898 -0.000258
    16 C    -0.000566 -0.000335  0.000201
    17 C     0.000469  0.000223 -0.000891
    18 H    -0.000269  0.000025 -0.000187
    19 H    -0.000059  0.000311  0.000016
    20 H     0.000417  0.000119  0.000207
    21 H     0.000040 -0.000222  0.000213
    22 H    -0.000277 -0.000153  0.000118
    23 H    -0.000510  0.000060 -0.000437
    24 Al    0.011409 -0.002455 -0.003460
    25 F     0.000192  0.001895  0.000751
    26 F    -0.001364  0.000596 -0.002480
    27 F    -0.000907 -0.002346  0.001674
 ----------------------------------------
 Mulliken charges used for AMS results%charges...

 dE(predicted):    -0.26595E-03, dE(actual):    -0.21084E-03, Trust radius:    0.800000, all in a.u.
 
----------------------------------------------------------------------
Geometry Convergence after Step  11       (Hartree/Angstrom,Angstrom)
----------------------------------------------------------------------
current energy                               -5.76141694 Hartree
energy change                      -0.00021084     0.00027000    T
constrained gradient max            0.01140428     0.00100000    F
constrained gradient rms            0.00213273     0.00066667    F
gradient max                        0.01140428
gradient rms                        0.00213273
cart. step max                      0.12108297     0.01000000    F
cart. step rms                      0.04423795     0.00666667    F
 
 
--------
Geometry
--------
Formula: C10H12AlF3O
Atoms
  Index Symbol   x (angstrom)   y (angstrom)   z (angstrom)
      1      H     0.59414064    -1.62145522     0.43222381
      2      C    -0.87499735    -0.05603886     1.00371263
      3      C     0.04319363    -0.78822485    -0.01063614
      4      C     0.99108854     0.10947565    -0.73063833
      5      O     2.17317280    -0.13601265    -0.92472530
      6      H    -1.30702537     0.80786855     0.48235166
      7      H    -0.58794364    -1.20404567    -0.81628523
      8      H     0.41952255    -0.32172079     2.75995260
      9      C    -0.07228523     0.48146790     2.20378441
     10      H     0.70726991     1.18173902     1.88239033
     11      H    -0.73269762     1.01244384     2.89490449
     12      C    -4.24089668    -2.56053399     2.12693837
     13      C    -4.44028549    -1.38863806     1.39911126
     14      C    -3.35139576    -0.59000600     1.04703774
     15      C    -2.04623494    -0.94161067     1.41406722
     16      C    -1.86137833    -2.12101362     2.15012408
     17      C    -2.94613652    -2.92309230     2.50062548
     18      H    -5.44489558    -1.09146391     1.10405107
     19      H    -3.52348560     0.32267410     0.47777974
     20      H    -0.86319421    -2.43030591     2.45239263
     21      H    -2.77821913    -3.83626728     3.06853825
     22      H    -5.08704026    -3.18605755     2.40391525
     23      H     0.57684553     1.05234366    -1.14712134
     24     Al     4.01847270    -0.73506632    -1.33257769
     25      F     3.68297962    -2.18298927    -2.09481121
     26      F     4.64015252    -0.80948575     0.21509342
     27      F     4.59176314     0.49082332    -2.30751526
 
Total System Charge             0.00000
 
 *** GOStep12 ***

 Energy gradients wrt nuclear displacements
 ==========================================

     Atom      Cartesian (a.u./angstrom)
                 X         Y         Z
 ----------------------------------------
     1 H     0.000064 -0.000081 -0.000622
     2 C     0.001301 -0.000805 -0.003423
     3 C    -0.002323 -0.000275  0.005368
     4 C     0.001504  0.002100  0.000443
     5 O    -0.007814  0.000739  0.003017
     6 H    -0.000594  0.000252  0.000310
     7 H     0.000078 -0.000482 -0.001616
     8 H     0.000099  0.000060  0.000151
     9 C     0.000136 -0.000181  0.000605
    10 H     0.000477  0.000205  0.000078
    11 H     0.000141  0.000228  0.000079
    12 C     0.000905  0.000655 -0.000721
    13 C     0.001353 -0.000446  0.000020
    14 C     0.000101 -0.001197  0.000765
    15 C    -0.001080 -0.000301  0.000320
    16 C    -0.001547  0.000567  0.000827
    17 C     0.000334  0.001312 -0.000978
    18 H    -0.000988  0.000312 -0.000223
    19 H    -0.000209  0.000839 -0.000585
    20 H     0.001021 -0.000497 -0.000157
    21 H     0.000138 -0.000956  0.000466
    22 H    -0.000848 -0.000530  0.000442
    23 H    -0.001030  0.001042 -0.001478
    24 Al    0.008379 -0.002376 -0.002621
    25 F     0.001080  0.001288  0.000373
    26 F    -0.000388  0.000077 -0.001700
    27 F    -0.000290 -0.001548  0.000858
 ----------------------------------------
 Mulliken charges used for AMS results%charges...

 dE(predicted):    -0.15135E-03, dE(actual):    -0.23698E-03, Trust radius:    0.800000, all in a.u.
 
----------------------------------------------------------------------
Geometry Convergence after Step  12       (Hartree/Angstrom,Angstrom)
----------------------------------------------------------------------
current energy                               -5.76165392 Hartree
energy change                      -0.00023698     0.00027000    T
constrained gradient max            0.00837454     0.00100000    F
constrained gradient rms            0.00174274     0.00066667    F
gradient max                        0.00837454
gradient rms                        0.00174274
cart. step max                      0.18083463     0.01000000    F
cart. step rms                      0.06454788     0.00666667    F
 
 
--------
Geometry
--------
Formula: C10H12AlF3O
Atoms
  Index Symbol   x (angstrom)   y (angstrom)   z (angstrom)
      1      H     0.50690457    -1.66109826     0.29488921
      2      C    -0.88304068    -0.06039114     0.95097592
      3      C    -0.01356695    -0.79351183    -0.11539780
      4      C     0.96451285     0.09895440    -0.79644809
      5      O     2.16044510    -0.13104351    -0.91160899
      6      H    -1.32877720     0.81188422     0.45704902
      7      H    -0.68445844    -1.13709030    -0.92011151
      8      H     0.49535858    -0.36267765     2.63562153
      9      C    -0.03124644     0.45039013     2.12775092
     10      H     0.72323185     1.17230803     1.79565915
     11      H    -0.66723552     0.94963914     2.86396416
     12      C    -4.22482795    -2.54680533     2.18475084
     13      C    -4.44231432    -1.36126091     1.48438990
     14      C    -3.36047441    -0.57109610     1.09413350
     15      C    -2.04437535    -0.94617028     1.39319815
     16      C    -1.84029173    -2.14403170     2.09266693
     17      C    -2.91861610    -2.93681694     2.48274016
     18      H    -5.45600493    -1.04387920     1.24641769
     19      H    -3.54696732     0.35574915     0.55269211
     20      H    -0.83377867    -2.47031380     2.34558254
     21      H    -2.73678078    -3.86031323     3.02954149
     22      H    -5.06562306    -3.16437928     2.49441567
     23      H     0.56754658     1.03352874    -1.24769037
     24     Al     4.00898591    -0.71249681    -1.18742531
     25      F     3.76251554    -2.19183737    -1.92569770
     26      F     4.54606652    -0.73904927     0.39592805
     27      F     4.62330220     0.49661648    -2.16330323
 
Total System Charge             0.00000
 
 *** GOStep13 ***

 Energy gradients wrt nuclear displacements
 ==========================================

     Atom      Cartesian (a.u./angstrom)
                 X         Y         Z
 ----------------------------------------
     1 H     0.000237  0.000865  0.000249
     2 C     0.001644  0.001520 -0.002462
     3 C    -0.001820 -0.003127  0.002143
     4 C     0.002378  0.000657  0.000703
     5 O    -0.004200  0.000546  0.002534
     6 H    -0.000736 -0.000362  0.000058
     7 H    -0.000404  0.000993 -0.001165
     8 H     0.000153 -0.000000  0.000024
     9 C     0.000336  0.000088  0.000364
    10 H     0.000307  0.000350  0.000312
    11 H     0.000048  0.000159  0.000079
    12 C     0.001024  0.001317  0.000650
    13 C     0.001615 -0.000757 -0.000984
    14 C     0.000122 -0.001444  0.000642
    15 C    -0.001704 -0.001252  0.002139
    16 C    -0.001373  0.000326 -0.000697
    17 C     0.000097  0.000885 -0.002010
    18 H    -0.001184  0.000450 -0.000052
    19 H    -0.000302  0.001126 -0.000518
    20 H     0.000990 -0.000366  0.000337
    21 H     0.000129 -0.000923  0.000881
    22 H    -0.000937 -0.000672  0.000446
    23 H    -0.001110  0.001550 -0.001737
    24 Al    0.002333 -0.002052 -0.001606
    25 F     0.001742  0.000584  0.000262
    26 F     0.000439 -0.000396 -0.000337
    27 F     0.000177 -0.000066 -0.000257
 ----------------------------------------
 Mulliken charges used for AMS results%charges...

 dE(predicted):    -0.21843E-03, dE(actual):    -0.26943E-03, Trust radius:    0.800000, all in a.u.
 
----------------------------------------------------------------------
Geometry Convergence after Step  13       (Hartree/Angstrom,Angstrom)
----------------------------------------------------------------------
current energy                               -5.76192334 Hartree
energy change                      -0.00026943     0.00027000    T
constrained gradient max            0.00420341     0.00100000    F
constrained gradient rms            0.00122281     0.00066667    F
gradient max                        0.00420341
gradient rms                        0.00122281
cart. step max                      0.10406649     0.01000000    F
cart. step rms                      0.02816755     0.00666667    F
 
 
--------
Geometry
--------
Formula: C10H12AlF3O
Atoms
  Index Symbol   x (angstrom)   y (angstrom)   z (angstrom)
      1      H     0.48161225    -1.67827719     0.23842605
      2      C    -0.88036638    -0.06948152     0.93079103
      3      C    -0.03142795    -0.80005478    -0.15810149
      4      C     0.95089939     0.09285076    -0.82911555
      5      O     2.15222850    -0.12375940    -0.91064006
      6      H    -1.32631381     0.80952878     0.44960707
      7      H    -0.71841640    -1.12368224    -0.95576327
      8      H     0.52652512    -0.39444863     2.58640678
      9      C    -0.00881403     0.42515914     2.09870589
     10      H     0.73895059     1.15203908     1.76331739
     11      H    -0.63296816     0.91349122     2.85207390
     12      C    -4.22092231    -2.53854409     2.20070034
     13      C    -4.44055269    -1.34144410     1.52072997
     14      C    -3.35866225    -0.55855606     1.11555122
     15      C    -2.04063933    -0.95003570     1.38408679
     16      C    -1.83498535    -2.15110794     2.07774620
     17      C    -2.91343114    -2.93794264     2.48042187
     18      H    -5.45473511    -1.01584565     1.29939394
     19      H    -3.54605308     0.37187336     0.58193969
     20      H    -0.82751682    -2.48996948     2.30661742
     21      H    -2.72993970    -3.86990261     3.01079647
     22      H    -5.06098387    -3.15342483     2.51548133
     23      H     0.55677116     1.02091407    -1.29289785
     24     Al     3.99822109    -0.69061722    -1.12765900
     25      F     3.77879976    -2.19616258    -1.82163121
     26      F     4.50217089    -0.66131901     0.46735480
     27      F     4.62103949     0.49352663    -2.12965579
 
Total System Charge             0.00000
 
 *** GOStep14 ***

 Energy gradients wrt nuclear displacements
 ==========================================

     Atom      Cartesian (a.u./angstrom)
                 X         Y         Z
 ----------------------------------------
     1 H     0.000019  0.000764  0.000344
     2 C     0.001441  0.001438 -0.001294
     3 C    -0.000957 -0.002181  0.000583
     4 C     0.001969  0.000766 -0.000958
     5 O    -0.001829 -0.000433  0.002715
     6 H    -0.000413 -0.000537 -0.000082
     7 H    -0.000160  0.001023 -0.000416
     8 H     0.000072 -0.000071 -0.000043
     9 C     0.000037  0.000044  0.000115
    10 H     0.000042  0.000238  0.000131
    11 H     0.000008  0.000042  0.000052
    12 C     0.000459 -0.000434 -0.001189
    13 C     0.000547  0.000461  0.000732
    14 C     0.000102 -0.000213  0.000699
    15 C    -0.001273 -0.001958  0.000356
    16 C    -0.000444  0.001029  0.000738
    17 C    -0.000126  0.000880  0.000348
    18 H    -0.000450  0.000015 -0.000239
    19 H    -0.000114  0.000312 -0.000413
    20 H     0.000341 -0.000442 -0.000309
    21 H     0.000038 -0.000581 -0.000052
    22 H    -0.000338 -0.000217  0.000239
    23 H    -0.000616  0.000768 -0.000778
    24 Al    0.000445 -0.001387 -0.001354
    25 F     0.001100  0.000588  0.000393
    26 F     0.000212 -0.000337  0.000069
    27 F    -0.000111  0.000422 -0.000390
 ----------------------------------------
 Mulliken charges used for AMS results%charges...

 dE(predicted):    -0.81091E-04, dE(actual):    -0.98537E-04, Trust radius:    0.800000, all in a.u.
 
----------------------------------------------------------------------
Geometry Convergence after Step  14       (Hartree/Angstrom,Angstrom)
----------------------------------------------------------------------
current energy                               -5.76202188 Hartree
energy change                      -0.00009854     0.00027000    T
constrained gradient max            0.00271287     0.00100000    F
constrained gradient rms            0.00079805     0.00066667    F
gradient max                        0.00271287
gradient rms                        0.00079805
cart. step max                      0.08453303     0.01000000    F
cart. step rms                      0.01695852     0.00666667    F
 
 
--------
Geometry
--------
Formula: C10H12AlF3O
Atoms
  Index Symbol   x (angstrom)   y (angstrom)   z (angstrom)
      1      H     0.48325757    -1.68578302     0.21787020
      2      C    -0.87337968    -0.07942773     0.92835952
      3      C    -0.03293453    -0.80591680    -0.17167957
      4      C     0.94215530     0.09133831    -0.84451025
      5      O     2.14660023    -0.11233280    -0.91500435
      6      H    -1.31392435     0.80675561     0.45527907
      7      H    -0.72735355    -1.13031267    -0.96172828
      8      H     0.53770318    -0.42533285     2.57555608
      9      C     0.00503595     0.40085341     2.09629283
     10      H     0.75514502     1.12592309     1.76305603
     11      H    -0.61384924     0.88638176     2.85570534
     12      C    -4.22484254    -2.52721347     2.20672814
     13      C    -4.43884932    -1.33126925     1.52286002
     14      C    -3.35319098    -0.55582443     1.11279991
     15      C    -2.03677308    -0.95523456     1.37790956
     16      C    -1.83647762    -2.16064035     2.06611409
     17      C    -2.91883372    -2.93792842     2.47733592
     18      H    -5.45118951    -0.99640252     1.31000389
     19      H    -3.53619829     0.37695254     0.58304220
     20      H    -0.83097634    -2.50364600     2.29488703
     21      H    -2.73965074    -3.86773776     3.01170590
     22      H    -5.06758405    -3.13399576     2.52798665
     23      H     0.54290649     1.01364455    -1.31205070
     24     Al     3.99071870    -0.66732545    -1.10895304
     25      F     3.77372878    -2.19781155    -1.74878328
     26      F     4.49045722    -0.57678599     0.48535819
     27      F     4.60878899     0.48387950    -2.15145715
 
Total System Charge             0.00000
 
 *** GOStep15 ***

 Energy gradients wrt nuclear displacements
 ==========================================

     Atom      Cartesian (a.u./angstrom)
                 X         Y         Z
 ----------------------------------------
     1 H    -0.000202  0.000204  0.000169
     2 C     0.000904  0.000664  0.000027
     3 C    -0.000294 -0.000364 -0.000205
     4 C     0.000783  0.001287 -0.002478
     5 O    -0.000364 -0.001676  0.002987
     6 H    -0.000046 -0.000446 -0.000210
     7 H     0.000153  0.000416  0.000131
     8 H    -0.000014 -0.000052 -0.000076
     9 C    -0.000250  0.000145  0.000048
    10 H    -0.000133  0.000098 -0.000030
    11 H     0.000030 -0.000057  0.000026
    12 C    -0.000216 -0.000282  0.000068
    13 C    -0.000329  0.000027 -0.000254
    14 C     0.000078  0.000432 -0.000158
    15 C    -0.000415 -0.000577  0.000588
    16 C     0.000435 -0.000108 -0.000591
    17 C    -0.000136 -0.000198  0.000603
    18 H     0.000235  0.000007  0.000253
    19 H     0.000056 -0.000248  0.000095
    20 H    -0.000281  0.000044  0.000011
    21 H    -0.000065  0.000247 -0.000073
    22 H     0.000220  0.000119 -0.000127
    23 H    -0.000014 -0.000143  0.000193
    24 Al    0.000107 -0.000473 -0.001334
    25 F     0.000136  0.000538  0.000393
    26 F    -0.000073 -0.000145  0.000207
    27 F    -0.000304  0.000539 -0.000265
 ----------------------------------------
 Mulliken charges used for AMS results%charges...

 dE(predicted):    -0.46075E-04, dE(actual):    -0.57513E-04, Trust radius:    0.800000, all in a.u.
 
----------------------------------------------------------------------
Geometry Convergence after Step  15       (Hartree/Angstrom,Angstrom)
----------------------------------------------------------------------
current energy                               -5.76207939 Hartree
energy change                      -0.00005751     0.00027000    T
constrained gradient max            0.00298985     0.00100000    F
constrained gradient rms            0.00059126     0.00066667    T
gradient max                        0.00298985
gradient rms                        0.00059126
cart. step max                      0.13926790     0.01000000    F
cart. step rms                      0.02682159     0.00666667    F
 
 
--------
Geometry
--------
Formula: C10H12AlF3O
Atoms
  Index Symbol   x (angstrom)   y (angstrom)   z (angstrom)
      1      H     0.47731080    -1.69624195     0.19272389
      2      C    -0.86395706    -0.08846689     0.93225155
      3      C    -0.04141733    -0.81228921    -0.18446729
      4      C     0.92395687     0.08732934    -0.86551200
      5      O     2.13209050    -0.09807430    -0.92361076
      6      H    -1.29664315     0.80933247     0.47361670
      7      H    -0.74968487    -1.13166451    -0.96406617
      8      H     0.55788365    -0.46995020     2.56244913
      9      C     0.03185140     0.36772763     2.09616574
     10      H     0.78860636     1.08537983     1.76249758
     11      H    -0.57353648     0.85393295     2.86592885
     12      C    -4.23028061    -2.51775625     2.20255096
     13      C    -4.43702604    -1.31706953     1.52484432
     14      C    -3.34663275    -0.54705786     1.11684188
     15      C    -2.03258947    -0.95569379     1.37992740
     16      C    -1.83972790    -2.16546953     2.06295529
     17      C    -2.92669598    -2.93866003     2.46957713
     18      H    -5.44698488    -0.97659291     1.31079953
     19      H    -3.52388866     0.38884406     0.59115636
     20      H    -0.83639845    -2.51439020     2.29130688
     21      H    -2.75302346    -3.87187270     2.99930922
     22      H    -5.07657406    -3.12108126     2.52019641
     23      H     0.51460555     0.99629068    -1.34845558
     24     Al     3.98241214    -0.63718010    -1.08595960
     25      F     3.77774829    -2.20764892    -1.62706976
     26      F     4.48013238    -0.43751809     0.49893078
     27      F     4.58895308     0.45064864    -2.20020448
 
Total System Charge             0.00000
 
 *** GOStep16 ***

 Energy gradients wrt nuclear displacements
 ==========================================

     Atom      Cartesian (a.u./angstrom)
                 X         Y         Z
 ----------------------------------------
     1 H    -0.000365 -0.000330 -0.000308
     2 C    -0.000052 -0.000370  0.000320
     3 C     0.000714  0.001194  0.000636
     4 C     0.000056  0.001516 -0.002997
     5 O    -0.000514 -0.002494  0.003306
     6 H     0.000148 -0.000138 -0.000206
     7 H     0.000082  0.000024  0.000103
     8 H    -0.000020 -0.000005 -0.000063
     9 C    -0.000272  0.000025 -0.000107
    10 H    -0.000133  0.000044 -0.000175
    11 H     0.000015 -0.000114 -0.000031
    12 C    -0.000491 -0.000243  0.000387
    13 C    -0.000716  0.000336  0.000309
    14 C    -0.000036  0.000603 -0.000499
    15 C     0.000367  0.000333 -0.000013
    16 C     0.000701 -0.000305 -0.000381
    17 C    -0.000067 -0.000787  0.000281
    18 H     0.000520 -0.000250 -0.000033
    19 H     0.000112 -0.000491  0.000285
    20 H    -0.000485  0.000271  0.000121
    21 H    -0.000077  0.000538 -0.000197
    22 H     0.000429  0.000266 -0.000263
    23 H     0.000272 -0.000771  0.000490
    24 Al    0.000759  0.000307 -0.001310
    25 F    -0.000585  0.000422  0.000263
    26 F    -0.000136  0.000038  0.000127
    27 F    -0.000226  0.000380 -0.000047
 ----------------------------------------
 Mulliken charges used for AMS results%charges...

 dE(predicted):    -0.25750E-04, dE(actual):    -0.35073E-04, Trust radius:    0.800000, all in a.u.
 
----------------------------------------------------------------------
Geometry Convergence after Step  16       (Hartree/Angstrom,Angstrom)
----------------------------------------------------------------------
current energy                               -5.76211447 Hartree
energy change                      -0.00003507     0.00027000    T
constrained gradient max            0.00330548     0.00100000    F
constrained gradient rms            0.00071238     0.00066667    F
gradient max                        0.00330548
gradient rms                        0.00071238
cart. step max                      0.21203163     0.01000000    F
cart. step rms                      0.04025647     0.00666667    F
 
 
--------
Geometry
--------
Formula: C10H12AlF3O
Atoms
  Index Symbol   x (angstrom)   y (angstrom)   z (angstrom)
      1      H     0.47663749    -1.70754889     0.16455369
      2      C    -0.84914814    -0.10253836     0.93950778
      3      C    -0.04994303    -0.82225902    -0.19906385
      4      C     0.89891059     0.08362131    -0.89206627
      5      O     2.11195051    -0.07350314    -0.93736014
      6      H    -1.27078429     0.81052518     0.50058607
      7      H    -0.77538708    -1.13933580    -0.96335719
      8      H     0.58222204    -0.53391396     2.54925759
      9      C     0.06781190     0.31977711     2.09950692
     10      H     0.83529130     1.02639269     1.76762808
     11      H    -0.52032972     0.80706348     2.88189473
     12      C    -4.23959585    -2.50429415     2.19258428
     13      C    -4.43393916    -1.29727074     1.52263941
     14      C    -3.33573886    -0.53456239     1.12203769
     15      C    -2.02594469    -0.95827272     1.38249084
     16      C    -1.84561174    -2.17474819     2.05734951
     17      C    -2.94039989    -2.93959306     2.45828200
     18      H    -5.44023882    -0.94439151     1.31158451
     19      H    -3.50331818     0.40753038     0.60430787
     20      H    -0.84574623    -2.53515883     2.28295997
     21      H    -2.77622793    -3.87837859     2.98109134
     22      H    -5.09213674    -3.10086289     2.50622117
     23      H     0.47317555     0.97370220    -1.39463025
     24     Al     3.96813303    -0.59245987    -1.05900009
     25      F     3.78414895    -2.21309503    -1.43941371
     26      F     4.46862011    -0.22548645     0.49484443
     27      F     4.55807877     0.38386862    -2.27975241
 
Total System Charge             0.00000
 
 *** GOStep17 ***

 Energy gradients wrt nuclear displacements
 ==========================================

     Atom      Cartesian (a.u./angstrom)
                 X         Y         Z
 ----------------------------------------
     1 H    -0.000416 -0.000810 -0.000607
     2 C    -0.001097 -0.001313  0.000694
     3 C     0.001452  0.002549  0.001010
     4 C    -0.000968  0.001632 -0.002998
     5 O    -0.000072 -0.003797  0.003893
     6 H     0.000286  0.000201 -0.000191
     7 H    -0.000065 -0.000466  0.000012
     8 H     0.000047  0.000064 -0.000022
     9 C    -0.000247 -0.000066 -0.000131
    10 H    -0.000104 -0.000045 -0.000200
    11 H     0.000016 -0.000137 -0.000041
    12 C    -0.000522 -0.000195  0.000289
    13 C    -0.000702  0.000023 -0.000090
    14 C    -0.000112  0.000632 -0.000329
    15 C     0.001257  0.001143 -0.000809
    16 C     0.000610 -0.000494 -0.000135
    17 C     0.000035 -0.000634  0.000494
    18 H     0.000560 -0.000167  0.000063
    19 H     0.000121 -0.000475  0.000369
    20 H    -0.000435  0.000317  0.000101
    21 H    -0.000029  0.000521 -0.000309
    22 H     0.000430  0.000333 -0.000188
    23 H     0.000489 -0.001106  0.000502
    24 Al    0.000533  0.001875 -0.001620
    25 F    -0.001204  0.000021  0.000027
    26 F    -0.000048  0.000255 -0.000014
    27 F     0.000187  0.000138  0.000229
 ----------------------------------------
 Mulliken charges used for AMS results%charges...

 dE(predicted):    -0.41006E-04, dE(actual):    -0.35654E-04, Trust radius:    0.800000, all in a.u.
 
----------------------------------------------------------------------
Geometry Convergence after Step  17       (Hartree/Angstrom,Angstrom)
----------------------------------------------------------------------
current energy                               -5.76215012 Hartree
energy change                      -0.00003565     0.00027000    T
constrained gradient max            0.00389754     0.00100000    F
constrained gradient rms            0.00096009     0.00066667    F
gradient max                        0.00389754
gradient rms                        0.00096009
cart. step max                      0.20986242     0.01000000    F
cart. step rms                      0.04145611     0.00666667    F
 
 
--------
Geometry
--------
Formula: C10H12AlF3O
Atoms
  Index Symbol   x (angstrom)   y (angstrom)   z (angstrom)
      1      H     0.47383524    -1.71432670     0.13339239
      2      C    -0.83579654    -0.11375394     0.94405086
      3      C    -0.06007072    -0.82789898    -0.21685876
      4      C     0.87476160     0.08477312    -0.91812436
      5      O     2.09177591    -0.04610090    -0.95037430
      6      H    -1.24826545     0.81328164     0.52581918
      7      H    -0.80165205    -1.14024489    -0.96698642
      8      H     0.60567941    -0.59371811     2.53121373
      9      C     0.10215199     0.27523778     2.09884536
     10      H     0.87912659     0.97181321     1.76858824
     11      H    -0.46867063     0.76206804     2.89431384
     12      C    -4.24529046    -2.49336597     2.18458974
     13      C    -4.42996174    -1.27766274     1.52784696
     14      C    -3.32568237    -0.52196294     1.13089202
     15      C    -2.01925641    -0.96016258     1.38422194
     16      C    -1.84873641    -2.18517141     2.04625230
     17      C    -2.94955175    -2.94418945     2.44119078
     18      H    -5.43350917    -0.91335188     1.32244133
     19      H    -3.48571579     0.42680597     0.62270538
     20      H    -0.85146272    -2.55755223     2.26435126
     21      H    -2.79283972    -3.88991586     2.95398468
     22      H    -5.10274762    -3.08519074     2.49431289
     23      H     0.43516948     0.95791103    -1.43817015
     24     Al     3.95019284    -0.55436767    -1.02565177
     25      F     3.78549472    -2.20968585    -1.22955129
     26      F     4.45073215    -0.01636857     0.47765718
     27      F     4.53077952     0.28790797    -2.34626906
 
Total System Charge             0.00000
 
 *** GOStep18 ***

 Energy gradients wrt nuclear displacements
 ==========================================

     Atom      Cartesian (a.u./angstrom)
                 X         Y         Z
 ----------------------------------------
     1 H    -0.000350 -0.000977 -0.000711
     2 C    -0.001842 -0.001817  0.000829
     3 C     0.001843  0.003075  0.001057
     4 C    -0.001478  0.001866 -0.002902
     5 O     0.000464 -0.005152  0.004851
     6 H     0.000353  0.000467 -0.000130
     7 H    -0.000262 -0.000715 -0.000085
     8 H     0.000126  0.000112 -0.000006
     9 C    -0.000118 -0.000133 -0.000150
    10 H    -0.000029 -0.000126 -0.000177
    11 H    -0.000010 -0.000134 -0.000054
    12 C    -0.000359  0.000022  0.000311
    13 C    -0.000481  0.000063  0.000235
    14 C    -0.000177  0.000176 -0.000493
    15 C     0.001718  0.001711 -0.001065
    16 C     0.000293 -0.000449  0.000197
    17 C     0.000107 -0.000575 -0.000055
    18 H     0.000397 -0.000153 -0.000087
    19 H     0.000088 -0.000314  0.000280
    20 H    -0.000233  0.000274  0.000059
    21 H     0.000014  0.000401 -0.000164
    22 H     0.000276  0.000217 -0.000164
    23 H     0.000416 -0.001092  0.000252
    24 Al   -0.000021  0.003329 -0.002018
    25 F    -0.001497 -0.000442 -0.000144
    26 F     0.000113  0.000412 -0.000159
    27 F     0.000650 -0.000046  0.000492
 ----------------------------------------
 Mulliken charges used for AMS results%charges...

 dE(predicted):    -0.52837E-04, dE(actual):    -0.50959E-04, Trust radius:    0.800000, all in a.u.
 
----------------------------------------------------------------------
Geometry Convergence after Step  18       (Hartree/Angstrom,Angstrom)
----------------------------------------------------------------------
current energy                               -5.76220108 Hartree
energy change                      -0.00005096     0.00027000    T
constrained gradient max            0.00515408     0.00100000    F
constrained gradient rms            0.00120539     0.00066667    F
gradient max                        0.00515408
gradient rms                        0.00120539
cart. step max                      0.21046160     0.01000000    F
cart. step rms                      0.04151109     0.00666667    F
 
 
--------
Geometry
--------
Formula: C10H12AlF3O
Atoms
  Index Symbol   x (angstrom)   y (angstrom)   z (angstrom)
      1      H     0.48356196    -1.71286934     0.11725062
      2      C    -0.82176600    -0.12267665     0.95429482
      3      C    -0.06332617    -0.83059806    -0.22405170
      4      C     0.85292637     0.09141996    -0.93629770
      5      O     2.07284856    -0.01521799    -0.96707508
      6      H    -1.22507033     0.81647020     0.55406885
      7      H    -0.81637364    -1.14763397    -0.96016741
      8      H     0.62072479    -0.64608683     2.52699105
      9      C     0.13092394     0.23651957     2.10676883
     10      H     0.91904624     0.92165175     1.77969940
     11      H    -0.42632151     0.72513468     2.91082704
     12      C    -4.25090438    -2.48621096     2.16843621
     13      C    -4.42533851    -1.26163788     1.52566094
     14      C    -3.31480630    -0.51033923     1.13821387
     15      C    -2.01209649    -0.96135068     1.38813617
     16      C    -1.85197446    -2.19490177     2.03694461
     17      C    -2.95900039    -2.95018604     2.42089311
     18      H    -5.42593384    -0.88759892     1.32215461
     19      H    -3.46690485     0.44519764     0.63982823
     20      H    -0.85754886    -2.57796388     2.25047914
     21      H    -2.81019927    -3.90337187     2.92259453
     22      H    -5.11348546    -3.07514681     2.47014583
     23      H     0.39718333     0.95053142    -1.46597801
     24     Al     3.92947126    -0.52271323    -1.00637384
     25      F     3.77395408    -2.19264376    -1.01908969
     26      F     4.44305604     0.18534225     0.42018230
     27      F     4.49784374     0.16168779    -2.41985279
 
Total System Charge             0.00000
 
 *** GOStep19 ***

[...]
 Index  Atom      ---- Displacements (x/y/z) ----
     1     H      -0.037686   0.059914  -0.023532
     2     C      -0.034779   0.068349  -0.027253
     3     C       0.000919  -0.005503   0.000939
     4     C      -0.001912   0.005885  -0.002471
     5     O      -0.000278  -0.000179   0.000080
     6     H       0.428270  -0.817848   0.320826
     7     H       0.018905   0.006139   0.019332
     8     H      -0.015905   0.024874  -0.009973
     9     C      -0.001651  -0.011670  -0.001535
    10     H       0.085543   0.083645  -0.040446
    11     H      -0.050807   0.030176   0.066692
    12     C       0.000049  -0.000105   0.000038
    13     C       0.000121   0.000138  -0.000084
    14     C       0.000129  -0.003038   0.001281
    15     C      -0.001006   0.001040  -0.000419
    16     C      -0.000382  -0.000236   0.000109
    17     C      -0.000193   0.000062  -0.000017
    18     H       0.003251  -0.000890   0.000217
    19     H      -0.003606   0.029353  -0.011925
    20     H       0.005353  -0.002256   0.000861
    21     H       0.000426  -0.000205   0.000065
    22     H       0.000249  -0.000220   0.000139
    23     H       0.030323  -0.063567   0.026602
    24    Al       0.000066   0.000012  -0.000018
    25     F      -0.000011  -0.000015   0.000011
    26     F      -0.000018  -0.000010  -0.000000
    27     F      -0.000015  -0.000004   0.000019
 
 Mode:    73      Frequency (cm-1):     3003.3428     Intensity (km/mol):       13.3097
 Index  Atom      ---- Displacements (x/y/z) ----
     1     H       0.007641  -0.010925   0.003306
     2     C       0.004297  -0.007261   0.003936
     3     C       0.001203   0.001722   0.001475
     4     C       0.000205  -0.001461   0.000419
     5     O       0.000189   0.000102   0.000093
     6     H      -0.047570   0.089735  -0.036251
     7     H      -0.021152  -0.008566  -0.022238
     8     H       0.251155  -0.422527   0.175583
     9     C      -0.034613  -0.019767  -0.030590
    10     H       0.441176   0.457084  -0.203336
    11     H      -0.286946   0.195067   0.382597
    12     C      -0.000039   0.000010  -0.000016
    13     C      -0.000093   0.000004   0.000029
    14     C      -0.000114   0.000250  -0.000132
    15     C       0.000468   0.000330  -0.000198
    16     C       0.001001  -0.000338   0.000178
    17     C      -0.000005  -0.000039   0.000017
    18     H       0.000231  -0.000210   0.000134
    19     H       0.000592  -0.003437   0.001279
    20     H      -0.011098   0.004476  -0.000989
    21     H      -0.000019  -0.000293   0.000195
    22     H       0.000031   0.000006  -0.000025
    23     H      -0.006721   0.013963  -0.005631
    24    Al      -0.000019  -0.000028  -0.000036
    25     F       0.000012   0.000022   0.000013
    26     F      -0.000020   0.000019   0.000039
    27     F       0.000002   0.000006   0.000008
 
 Mode:    74      Frequency (cm-1):     3075.9072     Intensity (km/mol):       21.9310
 Index  Atom      ---- Displacements (x/y/z) ----
     1     H       0.009615  -0.015384   0.006153
     2     C       0.001661  -0.004503   0.002667
     3     C      -0.000599   0.001256  -0.000926
     4     C      -0.000147  -0.000487  -0.000170
     5     O       0.000083   0.000086   0.000108
     6     H      -0.026561   0.050286  -0.021788
     7     H       0.000569   0.001270   0.000723
     8     H      -0.238074   0.352019  -0.141837
     9     C      -0.043486  -0.052968   0.060846
    10     H       0.484812   0.495099  -0.207926
    11     H       0.274128  -0.214354  -0.376497
    12     C      -0.000069  -0.000005   0.000017
    13     C       0.000078  -0.000133   0.000056
    14     C       0.000036   0.000946  -0.000485
    15     C       0.000146  -0.000128   0.000069
    16     C      -0.001596   0.000676  -0.000319
    17     C       0.000120  -0.000227   0.000067
    18     H      -0.001861   0.000701  -0.000114
    19     H       0.002013  -0.010571   0.004387
    20     H       0.017778  -0.006073   0.002061
    21     H      -0.000821   0.003431  -0.001373
    22     H       0.000436   0.000490  -0.000204
    23     H      -0.001380   0.003708  -0.001207
    24    Al       0.000040  -0.000063  -0.000009
    25     F       0.000001   0.000037  -0.000016
    26     F      -0.000032   0.000024   0.000009
    27     F      -0.000015   0.000013   0.000010
 
 Mode:    75      Frequency (cm-1):     3090.5831     Intensity (km/mol):       11.7772
 Index  Atom      ---- Displacements (x/y/z) ----
     1     H      -0.029984   0.045792  -0.017964
     2     C      -0.003706   0.006601  -0.001894
     3     C       0.003372  -0.003877   0.001895
     4     C       0.000065   0.000225  -0.000150
     5     O      -0.000010  -0.000028   0.000025
     6     H       0.038725  -0.068974   0.029444
     7     H      -0.008825  -0.004683  -0.008531
     8     H       0.350739  -0.573594   0.257917
     9     C      -0.057465   0.068983   0.020364
    10     H      -0.030407  -0.001082   0.011497
    11     H       0.364431  -0.250345  -0.513064
    12     C       0.000027   0.000008  -0.000015
    13     C      -0.000168   0.000123  -0.000035
    14     C       0.000274  -0.001378   0.000513
    15     C       0.000014   0.000012  -0.000224
    16     C       0.003802  -0.001220   0.000416
    17     C      -0.000265   0.000556  -0.000189
    18     H       0.003106  -0.001044   0.000282
    19     H      -0.003141   0.015507  -0.006144
    20     H      -0.043094   0.014802  -0.004142
    21     H       0.001920  -0.008080   0.003385
    22     H      -0.000043  -0.000239   0.000081
    23     H       0.000420  -0.001593   0.000519
    24    Al       0.000025   0.000020  -0.000055
    25     F      -0.000008  -0.000011   0.000038
    26     F      -0.000025  -0.000007   0.000025
    27     F      -0.000009  -0.000004   0.000020
 
 Mode:    76      Frequency (cm-1):     3110.4670     Intensity (km/mol):        3.4196
 Index  Atom      ---- Displacements (x/y/z) ----
     1     H      -0.504903   0.772605  -0.263496
     2     C       0.002563  -0.004298   0.002269
     3     C       0.053931  -0.059994   0.034286
     4     C       0.003435  -0.003176   0.001422
     5     O      -0.000489   0.000190   0.000021
     6     H      -0.032134   0.056956  -0.017028
     7     H      -0.150062  -0.071024  -0.149043
     8     H      -0.020587   0.031675  -0.016100
     9     C       0.002105  -0.003811  -0.000308
    10     H       0.007235   0.005614  -0.002833
    11     H      -0.014100   0.009665   0.019219
    12     C       0.000323   0.000277  -0.000143
    13     C       0.000285  -0.000154   0.000073
    14     C      -0.000370   0.002052  -0.000872
    15     C       0.000028  -0.000332  -0.000082
    16     C      -0.008143   0.002865  -0.000781
    17     C       0.000796  -0.002303   0.000958
    18     H      -0.004245   0.001452  -0.000401
    19     H       0.005084  -0.023635   0.009573
    20     H       0.093096  -0.032256   0.009979
    21     H      -0.006953   0.029702  -0.012015
    22     H      -0.004405  -0.003366   0.001556
    23     H      -0.017982   0.042627  -0.018572
    24    Al      -0.000058   0.000171  -0.000018
    25     F       0.000258  -0.000338   0.000043
    26     F       0.000011  -0.000036  -0.000017
    27     F      -0.000007  -0.000026   0.000021
 
 Mode:    77      Frequency (cm-1):     3117.1466     Intensity (km/mol):        7.4670
 Index  Atom      ---- Displacements (x/y/z) ----
     1     H       0.004789  -0.006758   0.001856
     2     C      -0.000952   0.002165  -0.000877
     3     C      -0.000460   0.000453  -0.000135
     4     C      -0.000088   0.000191  -0.000036
     5     O       0.000000  -0.000022  -0.000005
     6     H       0.011190  -0.028061   0.011209
     7     H       0.000514   0.000588   0.000589
     8     H       0.005188  -0.007295   0.003586
     9     C      -0.000237   0.000907  -0.000200
    10     H      -0.004340  -0.004143   0.001364
    11     H       0.001477  -0.000815  -0.002438
    12     C      -0.012404  -0.009884   0.004686
    13     C       0.033504  -0.012800   0.003784
    14     C      -0.016187   0.066276  -0.026821
    15     C       0.002571   0.000805  -0.000439
    16     C       0.005520  -0.002899   0.000982
    17     C      -0.002475   0.010743  -0.004377
    18     H      -0.412866   0.140910  -0.039613
    19     H       0.177258  -0.776205   0.314357
    20     H      -0.069549   0.025559  -0.007723
    21     H       0.029463  -0.129434   0.052691
    22     H       0.151507   0.121542  -0.057509
    23     H       0.000727  -0.001841   0.000692
    24    Al      -0.000003   0.000005  -0.000002
    25     F      -0.000001  -0.000003   0.000002
    26     F       0.000001  -0.000002   0.000001
    27     F       0.000001  -0.000002   0.000000
 
 Mode:    78      Frequency (cm-1):     3127.9767     Intensity (km/mol):        0.3249
 Index  Atom      ---- Displacements (x/y/z) ----
     1     H      -0.037195   0.056398  -0.018939
     2     C       0.000625  -0.001222   0.000532
     3     C       0.003879  -0.004301   0.002334
     4     C       0.000204  -0.000340   0.000158
     5     O       0.000003   0.000022  -0.000007
     6     H      -0.006691   0.014061  -0.005296
     7     H      -0.009703  -0.004711  -0.009704
     8     H      -0.016799   0.026346  -0.011793
     9     C       0.001486  -0.002833   0.000301
    10     H       0.005547   0.004908  -0.002326
    11     H      -0.006733   0.004296   0.009724
    12     C      -0.030421  -0.025061   0.011826
    13     C       0.013863  -0.003169   0.000674
    14     C       0.005836  -0.027224   0.011058
    15     C      -0.000762   0.000686  -0.000266
    16     C       0.032994  -0.012363   0.003766
    17     C      -0.011080   0.049802  -0.020291
    18     H      -0.156922   0.051457  -0.014145
    19     H      -0.070119   0.310421  -0.125785
    20     H      -0.397584   0.138102  -0.040932
    21     H       0.132538  -0.589328   0.239988
    22     H       0.366963   0.293717  -0.139039
    23     H      -0.001541   0.004066  -0.001806
    24    Al      -0.000020   0.000015   0.000003
    25     F       0.000029  -0.000027  -0.000001
    26     F       0.000007  -0.000002  -0.000001
    27     F       0.000005  -0.000002  -0.000003
 
 Mode:    79      Frequency (cm-1):     3136.9477     Intensity (km/mol):       10.2709
 Index  Atom      ---- Displacements (x/y/z) ----
     1     H      -0.026831   0.040854  -0.013931
     2     C      -0.000002   0.000363  -0.000145
     3     C       0.002784  -0.003209   0.001819
     4     C       0.000128  -0.000081   0.000093
     5     O      -0.000039  -0.000003  -0.000006
     6     H       0.000709  -0.005527   0.002488
     7     H      -0.007482  -0.003489  -0.007656
     8     H      -0.013541   0.021783  -0.009483
     9     C       0.001270  -0.002250   0.000317
    10     H       0.002274   0.002054  -0.001653
    11     H      -0.004997   0.003323   0.007167
    12     C       0.029928   0.021319  -0.010237
    13     C      -0.048607   0.014368  -0.003736
    14     C      -0.005101   0.025289  -0.010287
    15     C       0.001644   0.001049  -0.000505
    16     C       0.040708  -0.015492   0.004740
    17     C      -0.007264   0.023819  -0.009617
    18     H       0.553185  -0.183785   0.050920
    19     H       0.062737  -0.278558   0.112880
    20     H      -0.479980   0.167905  -0.049876
    21     H       0.064376  -0.278139   0.113175
    22     H      -0.333883  -0.264093   0.125193
    23     H      -0.000648   0.001916  -0.001002
    24    Al      -0.000007   0.000006   0.000002
    25     F       0.000022  -0.000017  -0.000001
    26     F       0.000003  -0.000001  -0.000002
    27     F       0.000001  -0.000001  -0.000000
 
 Mode:    80      Frequency (cm-1):     3145.3510     Intensity (km/mol):       20.1248
 Index  Atom      ---- Displacements (x/y/z) ----
     1     H      -0.025737   0.038916  -0.013146
     2     C       0.000482  -0.000610   0.000261
     3     C       0.002673  -0.002978   0.001621
     4     C       0.000124  -0.000205   0.000126
     5     O      -0.000014   0.000013  -0.000009
     6     H      -0.003528   0.004614  -0.001601
     7     H      -0.006638  -0.003209  -0.006748
     8     H      -0.015600   0.024768  -0.010850
     9     C       0.001410  -0.002509   0.000368
    10     H       0.003588   0.003214  -0.001861
    11     H      -0.005360   0.003437   0.007773
    12     C       0.020701   0.020211  -0.009364
    13     C       0.044146  -0.015042   0.004224
    14     C       0.001253  -0.015036   0.006202
    15     C      -0.000848   0.002166  -0.000874
    16     C       0.053189  -0.017565   0.005070
    17     C       0.004372  -0.031990   0.013153
    18     H      -0.495902   0.166973  -0.046598
    19     H      -0.033585   0.159908  -0.064924
    20     H      -0.602672   0.207571  -0.061255
    21     H      -0.076923   0.355971  -0.145129
    22     H      -0.254879  -0.208192   0.098328
    23     H      -0.000954   0.002749  -0.001325
    24    Al      -0.000016   0.000001   0.000007
    25     F       0.000026  -0.000011  -0.000005
    26     F       0.000006   0.000001  -0.000002
    27     F       0.000004   0.000001  -0.000004
 
 Mode:    81      Frequency (cm-1):     3153.6007     Intensity (km/mol):        9.8714
 Index  Atom      ---- Displacements (x/y/z) ----
     1     H      -0.010058   0.015309  -0.005276
     2     C       0.000117   0.000112  -0.000065
     3     C       0.001004  -0.001214   0.000692
     4     C       0.000110   0.000011   0.000021
     5     O      -0.000071  -0.000001   0.000003
     6     H      -0.000003  -0.002854   0.001296
     7     H      -0.002628  -0.001321  -0.002896
     8     H      -0.006417   0.010457  -0.004501
     9     C       0.000618  -0.000973   0.000178
    10     H       0.000217   0.000132  -0.000532
    11     H      -0.001920   0.001332   0.002893
    12     C      -0.043097  -0.033774   0.016030
    13     C      -0.033339   0.013000  -0.003879
    14     C      -0.001071   0.009917  -0.004076
    15     C       0.000528   0.001216  -0.000530
    16     C       0.030654  -0.008901   0.002411
    17     C       0.011276  -0.045015   0.018282
    18     H       0.370882  -0.126942   0.035705
    19     H       0.021655  -0.102392   0.041564
    20     H      -0.334620   0.113616  -0.033312
    21     H      -0.113357   0.496645  -0.202202
    22     H       0.472637   0.376833  -0.178455
    23     H      -0.000190   0.000663  -0.000418
    24    Al       0.000018  -0.000008  -0.000002
    25     F       0.000000   0.000001   0.000001
    26     F      -0.000007   0.000001  -0.000002
    27     F      -0.000006   0.000002   0.000005

PES point character: Geometry corresponds to a local minimum on the PES.




 ============================
 Statistical Thermal Analysis  ***  ideal gas assumed  ***
 ============================
  
 Pressure:                  1.000000 atm.
 Temperature:             298.150000 K



 Moments of Inertia [amu*bohr^2] and principal axis
 ==================================================

        1428.1083       8925.2660       9246.0864
 ------------------------------------------------
           0.9197         -0.2057          0.3345
           0.1339          0.9650          0.2255
          -0.3692         -0.1626          0.9150


 The rotational contribution to the molecular entropy includes
 a term, dependent on the symmetry number sigma. The results 
 reported below were computed using sigma = 1, determined from
 the point group symmetry of the input geometry (NOSYM). 
 If this is not the correct symmetry, try symmetrizing the molecule before
 running the calculation (note: linear molecules should be aligned along one
 of the Cartesian axes).
 Contributions from frequencies below 20 1/cm are not included in vibrational sums.
 Their contributions, if any, are reported separately.


     Temp                                                        Transl      Rotat     Vibrat     Total
     ----                                                        ------      -----     ------     -----

     298.15   Entropy (cal/mol-K):                               42.227     33.133     54.566    129.926
              Nuclear Internal Energy (kcal/mol):                 0.889      0.889    133.441    135.219
              Constant Volume Heat Capacity (cal/mol-K):          2.981      2.981     50.688     56.650
          (c) Constant Volume Heat Capacity (cal/mol-K):          2.981      2.981     46.891     52.853

 Contributions from frequencies below 20 1/cm
 Frequency (1/cm):                                    9.770
 Entropy (cal/mol-K):                                 8.057
 Nuclear Internal Energy (kcal/mol):                  0.593
 Constant Volume Heat Capacity (cal/mol-K):           1.987

       Summary of energy terms
                                                   hartree              eV         kcal/mol           kJ/mol
                                      --------------------     -----------       ----------      -----------
      Energy from Engine:               -5.767383904187693       -156.9385         -3619.09        -15142.26
      Nuclear Internal Energy:           0.215484884461384          5.8636           135.22           565.76
  (c) Nuclear Internal Energy:           0.213541086250950          5.8107           134.00           560.65
      Internal Energy U:                -5.551899019726309       -151.0749         -3483.87        -14576.51
      pV/n = RT:                         0.000944186013486          0.0257             0.59             2.48
      Enthalpy H:                       -5.550954833712823       -151.0492         -3483.28        -14574.03
      -T*S:                             -0.061732050414567         -1.6798           -38.74          -162.08
  (c) -T*S:                             -0.061082817571068         -1.6621           -38.33          -160.37
      Gibbs free energy:                -5.612686884127390       -152.7290         -3522.01        -14736.11
 
 
 
  (c) The properties marked with this symbol have been corrected using 'low vibrational frequency free rotor
      interpolation corrections'. For those terms all positive frequencies are used (also ones below 20 1/cm),
      but the contribution to the partition function of small vibrational frequencies is modified as described
      in the following paper:
      S. Grimme, 'Supramolecular Binding Thermodynamics by Dispersion-Corrected Density Functional Theory'
      (Chem. Eur. J. 2012, 18, 9955-9964)
      Configuration: Dampener Frequency          :   100.000 1/cm
                     Dampener Alpha              :     4.000
                     Averaging Moment of Inertia : 1.000E-44 kg m2

--------------
Atomic charges
--------------
  Index   Atom    Charge
      1      H   -0.0793
      2      C    0.1342
      3      C    0.3974
      4      C    0.7378
      5      O   -0.5589
      6      H   -0.1942
      7      H   -0.1792
      8      H   -0.1956
      9      C    0.6960
     10      H   -0.2262
     11      H   -0.2346
     12      C    0.2401
     13      C    0.2438
     14      C    0.2753
     15      C    0.0341
     16      C    0.2997
     17      C    0.2505
     18      H   -0.2459
     19      H   -0.2652
     20      H   -0.2490
     21      H   -0.2455
     22      H   -0.2419
     23      H   -0.2338
     24     Al    1.7457
     25      F   -0.6475
     26      F   -0.6311
     27      F   -0.6268


Dipole moment vector    (Debye):    -8.02688325    1.93684346    1.03042667
              magnitude (Debye):     8.32129776


Final PES point is a local minimum. Geometry optimization successful!


AMS application finished. Exiting.
NORMAL TERMINATION
     Total cpu time:  121842.40
  Total system time:    1435.35
 Total elapsed time:  150747.34
