

 Parallel Execution: Process Information
 ==============================================================================
 Rank   Node Name                              NodeID   MyNodeRank  NodeMaster
    0   DESKTOP-1M8FOJT                           0          0          0
    1   DESKTOP-1M8FOJT                           0          1         -1
    2   DESKTOP-1M8FOJT                           0          2         -1
    3   DESKTOP-1M8FOJT                           0          3         -1
 ==============================================================================


May use up to 4096MB of RAM as shared memory on node 0

 *******************************************************************************
 *                                                                             *
 *  --------------------------------                                           *
 *   Amsterdam Modeling Suite (AMS)              2022.101                      *
 *  --------------------------------                                           *
 *                                               r100871 2022-01-28            *
 *                                                                             *
 *                                                                             *
 *                              =================                              *
 *                              |               |                              *
 *                              |     A M S     |                              *
 *                              |               |                              *
 *                              =================                              *
 *                                                                             *
 *                                                                             *
 *   Online information and documentation:  https://www.scm.com/support/       *
 *   E-mail:  support@scm.com   info@scm.com                                   *
 *                                                                             *
 *   Scientific publications using AMS results must be properly referenced     *
 *   See the User Manuals (or the web site) for recommended citations          *
 *   The terms and conditions of the End User License Agreement apply to       *
 *   the use of AMS, https://www.scm.com/license-terms/                        *
 *                                                                             *
 *********************  x86_64_windows_intel / intelmpi  ***********************
 
 Licensed to: Mr. Yuman Hordijk / SCM / Amsterdam / Netherlands 2022-01-24 11:07:43
 SCM User ID: u24430
  
 AMS 2022.101  RunTime: Feb01-2022 01:06:46  ShM Nodes: 1  Procs: 4

 AMS jobname: ams
 AMS jobid  : 680314826

 Start   directory: D:/Users/Yuman/Desktop/MasterProject/manual_calculations/urea/tmp..5368.0.noindex/
 Results directory: D:/Users/Yuman/Desktop/MasterProject/manual_calculations/urea/catalyst_cheap_O.results/
 Scratch directory: Z:/SCMTMP/amstmp_ams_kid0.680314826/


 Communication costs MPI_COMM_WORLD:      1.844 usec per message,   0.0062 usec per 8-byte item
 Communication costs for intra-node:      1.790 usec per message,   0.0060 usec per 8-byte item

 RNG seed: -1935951342 -1381568999 -578303467 -132802870 -1954687210 -1254615209 1321225647 -305324558



                      ************************************************************************
                      *  ADF 2022.101  RunTime: Feb01-2022 01:06:47  ShM Nodes: 1  Procs: 4  *
                      ************************************************************************
  
       ***************************
       *  GEOMETRY OPTIMIZATION  *
       ***************************

Optimization Method                    Quasi Newton
Optimization Coordinates               Delocalized Coordinates
Optimize lattice                       F
 
 ------------------------------------------------------
 Convergence criteria (Hartree,Angstrom)
 ------------------------------------------------------
 Maximum gradient               0.001000000000
 Maximum rms gradient           0.000666666667
 Maximum step allowed           0.010000000000
 Maximum rms step allowed       0.006666666667
 Maximum energy change allowe   0.000420000000
 Maximum stress energy allowe   0.000500000000
 
Initial model Hessian                  Automatic Hessian
 
------------------------------------
Quasi-Newton Optimizer Parameters
------------------------------------
Hessian Update Method                  BFGS
Maximum number of steps                  252
First GDIIS cycle                          0
Maximum GDIIS vectors                      0
Trust radius (bohr)                        0.200000
Trust radius varies                        T
Constraints converged at all steps         T
Use projector                              T
 
 Rigid motions settings for: old optimizer
 Atomic rotations (x,y,z):     T T T
 Atomic translations (x,y,z):  T T T
 Tolerance:                   1.000000000000000E-006
 
--------
Geometry
--------
Formula: C15H24N2O
Atoms
  Index Symbol   x (angstrom)   y (angstrom)   z (angstrom)
      1      C    -1.00143840    -1.46459654    -3.75867171
      2      H    -1.93413926    -0.90461126    -3.68147969
      3      H    -1.23505918    -2.46293574    -4.12842177
      4      H    -0.35818077    -0.96540905    -4.48390454
      5      H     0.28628841    -0.09513391    -0.86167633
      6      C    -0.09778065    -0.09078600    -1.88198534
      7      H     0.61537216     0.43369398    -2.51767626
      8      H    -1.04183371     0.45501283    -1.88962213
      9      C    -1.22040904    -2.27193025    -1.39511947
     10      H    -1.47759034    -3.26432529    -1.76553849
     11      H    -2.14555224    -1.71271800    -1.25082942
     12      H    -0.73104291    -2.37701449    -0.42561741
     13      H     2.02871734    -4.06710488    -3.05715381
     14      H     0.51360495    -4.29131328    -2.17694134
     15      H     0.48673644    -3.81737875    -3.88587299
     16      H     5.13189372     1.08134170     1.99973863
     17      H     4.06930552    -0.21324856     2.57972168
     18      H     5.46845649    -0.60667758     1.57019030
     19      N     3.23414378    -1.01234773     0.13542436
     20      C     2.74552502    -1.10326124    -1.15990512
     21      O     3.13010726    -0.39997814    -2.07177331
     22      N     1.84059058    -2.11755903    -1.30580445
     23      C     3.84092319     0.27808735     0.47504950
     24      H     2.62238685    -1.37685501     0.85398149
     25      C     1.07078634    -2.21832517    -2.53857398
     26      H     1.45777507    -2.55310877    -0.48209679
     27      H     4.49513485     0.54743062    -0.36319107
     28      C     1.01167762    -3.69321706    -2.94021053
     29      C     4.67902096     0.12461362     1.74137978
     30      H     3.27792327     2.31016560    -1.21663254
     31      H     1.64233119    -1.66760377    -3.29807754
     32      C     2.73708501     1.31039939     0.60267044
     33      C     1.81925805     1.25889909     1.64987832
     34      C     0.77769562     2.17343215     1.71655369
     35      C     0.63739798     3.14380601     0.73362553
     36      C     1.54127319     3.19346122    -0.31851569
     37      C     2.58366796     2.28006035    -0.38453398
     38      H     1.91039222     0.49904951     2.41939876
     39      H     0.07023094     2.12469399     2.53729353
     40      H    -0.17869838     3.85580543     0.78560494
     41      H     1.43103311     3.94321982    -1.09411129
     42      C    -0.31261204    -1.52760451    -2.38655743
 
Total System Charge             0.00000
Bonding info available!
 
 
----------------
ADF Engine Input
----------------
 
 Basis
 Type DZP
 End
 XC
 GGA OLYP
 End
 

 Title: *** (NO TITLE) ***

 Using automatic Hessian for delocalized coordinates.
 *** GO1_GOStep1 ***

 Energy gradients wrt nuclear displacements
 ==========================================

     Atom      Cartesian (a.u./angstrom)
                 X         Y         Z
 ----------------------------------------
     1 C    -0.003440  0.003934 -0.007631
     2 H     0.006234 -0.003580  0.001540
     3 H     0.003477  0.003874  0.004895
     4 H    -0.002783 -0.004150  0.006987
     5 H     0.000916 -0.006397 -0.001002
     6 C     0.001940  0.008335  0.003052
     7 H    -0.002242 -0.004611  0.000514
     8 H     0.005995 -0.003792 -0.001155
     9 C    -0.006801 -0.000894  0.009139
    10 H     0.004193  0.005966 -0.000737
    11 H     0.006082 -0.002851 -0.003250
    12 H     0.001995  0.000767 -0.008403
    13 H    -0.006128  0.003444  0.001317
    14 H     0.002309  0.005741 -0.002247
    15 H     0.002840  0.004588  0.004862
    16 H    -0.001726 -0.005572 -0.004261
    17 H     0.000166  0.000664 -0.006812
    18 H    -0.004890  0.005423  0.000445
    19 N    -0.024209 -0.008661  0.008121
    20 C     0.010509  0.030545 -0.026892
    21 O    -0.017473 -0.018053  0.026118
    22 N    -0.002949 -0.001823  0.026260
    23 C     0.004721  0.003949 -0.017130
    24 H     0.002486  0.001314 -0.005525
    25 C     0.004701  0.015037 -0.008891
    26 H     0.001806  0.004062 -0.003835
    27 H     0.004008  0.002160 -0.002600
    28 C    -0.001100 -0.007713  0.004018
    29 C    -0.000182 -0.002307  0.008687
    30 H    -0.001613  0.000629  0.001950
    31 H     0.000636  0.001216 -0.006014
    32 C    -0.012220 -0.003963  0.003979
    33 C     0.000245 -0.001793 -0.001241
    34 C     0.002452  0.002043 -0.003680
    35 C     0.003079 -0.003261  0.000679
    36 C     0.001140 -0.003288  0.000621
    37 C    -0.001848 -0.004485 -0.002234
    38 H     0.000832 -0.000400 -0.002950
    39 H     0.003048 -0.000363 -0.003642
    40 H     0.003527 -0.003078 -0.000319
    41 H     0.000659 -0.003186  0.003206
    42 C     0.009610 -0.009472  0.004061
 ----------------------------------------
 Mulliken charges used for AMS results%charges...
 
----------------------------------------------------------------------
Geometry Convergence after Step   1       (Hartree/Angstrom,Angstrom)
----------------------------------------------------------------------
current energy                               -8.70467147 Hartree
energy change                      -8.70467147     0.00042000    F
constrained gradient max            0.03052641     0.00100000    F
constrained gradient rms            0.00750532     0.00066667    F
gradient max                        0.03052641
gradient rms                        0.00750532
cart. step max                      0.21211223     0.01000000    F
cart. step rms                      0.09608760     0.00666667    F
 
 
--------
Geometry
--------
Formula: C15H24N2O
Atoms
  Index Symbol   x (angstrom)   y (angstrom)   z (angstrom)
      1      C    -1.03523447    -1.63247751    -3.86079401
      2      H    -1.99720305    -1.11539218    -3.83037085
      3      H    -1.21315239    -2.65353953    -4.20336436
      4      H    -0.39763273    -1.12764090    -4.59048869
      5      H     0.09082287    -0.07696616    -0.98791760
      6      C    -0.26103308    -0.14455671    -2.01774110
      7      H     0.43940236     0.39750065    -2.65470310
      8      H    -1.23569959     0.34560092    -2.07438981
      9      C    -1.28195037    -2.36178639    -1.47140022
     10      H    -1.48524480    -3.38094676    -1.80592631
     11      H    -2.23787542    -1.84198620    -1.37314124
     12      H    -0.82127595    -2.40722900    -0.48135995
     13      H     2.07789829    -4.07407481    -3.01711763
     14      H     0.56089110    -4.33468839    -2.14741061
     15      H     0.53597116    -3.91454356    -3.87062460
     16      H     5.17960528     1.03062159     2.02827375
     17      H     4.08809517    -0.25007169     2.58494528
     18      H     5.46175543    -0.65555821     1.54303380
     19      N     3.21437885    -0.96389422     0.11708749
     20      C     2.71378504    -1.06540980    -1.18104031
     21      O     3.10725037    -0.36416781    -2.10183169
     22      N     1.81238248    -2.09189916    -1.33314358
     23      C     3.84711954     0.31010621     0.49288822
     24      H     2.60531899    -1.33239090     0.83808337
     25      C     1.04082624    -2.24694965    -2.56430736
     26      H     1.43619956    -2.52721502    -0.50448033
     27      H     4.50031285     0.58397393    -0.34289983
     28      C     1.04392074    -3.73641041    -2.92238881
     29      C     4.69493328     0.09457031     1.74529285
     30      H     3.34517721     2.43153320    -1.11902037
     31      H     1.60085256    -1.69886313    -3.33221046
     32      C     2.78972834     1.38814151     0.67255637
     33      C     1.88439178     1.34667174     1.73475109
     34      C     0.88593693     2.30608508     1.85278314
     35      C     0.77413551     3.31788592     0.90631637
     36      C     1.66452545     3.36239208    -0.15939681
     37      C     2.66343538     2.40267033    -0.27571548
     38      H     1.95093501     0.55909012     2.47916163
     39      H     0.19042957     2.26109256     2.68558829
     40      H    -0.00758567     4.06557066     0.99771717
     41      H     1.57772359     4.14465810    -0.90712360
     42      C    -0.38185529    -1.61137816    -2.46815354
 
Total System Charge             0.00000
Bonding info available!
 
 *** GO1_GOStep2 ***

 Energy gradients wrt nuclear displacements
 ==========================================

     Atom      Cartesian (a.u./angstrom)
                 X         Y         Z
 ----------------------------------------
     1 C    -0.003066  0.004056 -0.005591
     2 H     0.004192 -0.002233  0.001134
     3 H     0.002644  0.002280  0.003434
     4 H    -0.001582 -0.002826  0.004870
     5 H    -0.001084 -0.004431 -0.002274
     6 C    -0.001231  0.007184  0.001804
     7 H    -0.002370 -0.004028  0.000908
     8 H     0.004456 -0.002429 -0.000425
     9 C    -0.005398 -0.000341  0.007342
    10 H     0.003086  0.003963 -0.000730
    11 H     0.004325 -0.001793 -0.002232
    12 H     0.001390 -0.000158 -0.005985
    13 H    -0.004139  0.002108  0.000833
    14 H     0.001289  0.003956 -0.001698
    15 H     0.001495  0.003832  0.002859
    16 H    -0.000982 -0.003703 -0.003100
    17 H     0.000080  0.000466 -0.004728
    18 H    -0.003173  0.003800  0.000304
    19 N    -0.010322 -0.006698  0.007822
    20 C     0.001589  0.013071 -0.009587
    21 O    -0.006320 -0.005098  0.008259
    22 N     0.000455 -0.010367  0.013968
    23 C     0.006688  0.006188 -0.010440
    24 H     0.001729  0.001725 -0.004155
    25 C     0.000280  0.011634 -0.008554
    26 H     0.000860  0.003445 -0.003497
    27 H     0.002621  0.000778 -0.001030
    28 C    -0.001905 -0.005532  0.005366
    29 C    -0.002182 -0.001283  0.007749
    30 H    -0.000967  0.000473  0.001874
    31 H     0.000048 -0.000190 -0.003637
    32 C    -0.005102 -0.000631  0.004674
    33 C     0.000080 -0.001783  0.000193
    34 C     0.000720  0.002425 -0.002407
    35 C     0.001963 -0.002327  0.000672
    36 C    -0.000154 -0.001368  0.000192
    37 C    -0.000667 -0.002695 -0.002079
    38 H     0.000611 -0.000181 -0.002266
    39 H     0.001728 -0.000180 -0.002377
    40 H     0.001895 -0.001846 -0.000214
    41 H     0.000143 -0.002134  0.002079
    42 C     0.006279 -0.007128  0.000673
 ----------------------------------------
 Mulliken charges used for AMS results%charges...

 dE(predicted):    -0.76423E-02, dE(actual):    -0.47131E-02, Trust radius:    0.200000, all in a.u.
 
----------------------------------------------------------------------
Geometry Convergence after Step   2       (Hartree/Angstrom,Angstrom)
----------------------------------------------------------------------
current energy                               -8.70938454 Hartree
energy change                      -0.00471307     0.00042000    F
constrained gradient max            0.01396240     0.00100000    F
constrained gradient rms            0.00428202     0.00066667    F
gradient max                        0.01396240
gradient rms                        0.00428202
cart. step max                      0.18719132     0.01000000    F
cart. step rms                      0.06310006     0.00666667    F
 
 
--------
Geometry
--------
Formula: C15H24N2O
Atoms
  Index Symbol   x (angstrom)   y (angstrom)   z (angstrom)
      1      C    -1.03213963    -1.72090645    -3.93292366
      2      H    -1.98666097    -1.18271244    -3.94353296
      3      H    -1.23124140    -2.74960953    -4.24787768
      4      H    -0.37497487    -1.25448908    -4.67648535
      5      H     0.07290227    -0.04150566    -1.10707022
      6      C    -0.26548242    -0.16656313    -2.13847266
      7      H     0.45241331     0.34422045    -2.78698069
      8      H    -1.23537873     0.33500496    -2.23334974
      9      C    -1.34495028    -2.34208424    -1.51951255
     10      H    -1.57106986    -3.37418968    -1.80545646
     11      H    -2.29450093    -1.79738752    -1.46723361
     12      H    -0.92063872    -2.34956528    -0.50861707
     13      H     2.10761334    -4.12270186    -2.97284587
     14      H     0.57901907    -4.40776778    -2.12834823
     15      H     0.57831560    -4.02288701    -3.85937562
     16      H     5.22389184     1.04500212     1.97797506
     17      H     4.17985411    -0.25339042     2.57789077
     18      H     5.49854073    -0.63794179     1.45599823
     19      N     3.19961248    -0.95183898     0.11091459
     20      C     2.69819237    -1.07945528    -1.18948601
     21      O     3.10462939    -0.39183182    -2.12163692
     22      N     1.78478975    -2.10081826    -1.33818881
     23      C     3.82024201     0.32714174     0.49774100
     24      H     2.60322766    -1.33165757     0.84106077
     25      C     1.02196053    -2.30611341    -2.56922989
     26      H     1.40630877    -2.52554985    -0.50116163
     27      H     4.43870883     0.61293849    -0.35802018
     28      C     1.06191903    -3.80489786    -2.90375492
     29      C     4.73378159     0.10528763     1.70467608
     30      H     3.27980791     2.47249375    -1.08295504
     31      H     1.59312172    -1.77173338    -3.33631270
     32      C     2.78083928     1.42106218     0.72279767
     33      C     1.91753903     1.39898493     1.82450013
     34      C     0.94245934     2.37802399     1.99160631
     35      C     0.81076284     3.40139926     1.05588042
     36      C     1.66188621     3.43510437    -0.04465440
     37      C     2.63515196     2.45209963    -0.20889744
     38      H     2.00014861     0.61289293     2.57032980
     39      H     0.28414639     2.34331440     2.85712441
     40      H     0.04891047     4.16645339     1.18490849
     41      H     1.56329655     4.22638963    -0.78440104
     42      C    -0.40455703    -1.65208688    -2.52660586
 
Total System Charge             0.00000
Bonding info available!
 
 *** GO1_GOStep3 ***

 Energy gradients wrt nuclear displacements
 ==========================================

     Atom      Cartesian (a.u./angstrom)
                 X         Y         Z
 ----------------------------------------
     1 C    -0.001922  0.001408 -0.002059
     2 H     0.000728 -0.000665  0.000336
     3 H     0.000549  0.000951  0.000433
     4 H    -0.000036 -0.000652  0.001008
     5 H     0.000054 -0.000858 -0.000115
     6 C     0.000955  0.002056  0.001398
     7 H    -0.000028 -0.000785  0.000301
     8 H     0.001011 -0.000580 -0.000172
     9 C    -0.003954 -0.000063  0.002625
    10 H     0.000105  0.001663  0.000284
    11 H     0.000932 -0.000341 -0.000558
    12 H     0.000464 -0.000516 -0.001565
    13 H    -0.000770 -0.000039  0.000010
    14 H     0.001268  0.001435 -0.001042
    15 H     0.000958  0.000218  0.000444
    16 H     0.000233 -0.000853 -0.000784
    17 H     0.000239  0.000168 -0.001671
    18 H    -0.000257  0.000700  0.000276
    19 N     0.001737 -0.003813  0.000685
    20 C    -0.001644  0.001733  0.001528
    21 O    -0.001123  0.002229 -0.001409
    22 N     0.002218 -0.006397  0.000245
    23 C     0.001935  0.003737 -0.001666
    24 H     0.000361  0.001430  0.000098
    25 C    -0.003940  0.004301 -0.004173
    26 H    -0.001053  0.001316 -0.000575
    27 H     0.000553 -0.001050  0.000645
    28 C     0.000600 -0.003820  0.001687
    29 C    -0.000831 -0.000277  0.003501
    30 H    -0.000100  0.000125  0.000548
    31 H    -0.000038 -0.001033  0.000086
    32 C     0.000970  0.000590  0.000925
    33 C    -0.000719 -0.000712  0.000425
    34 C    -0.000525  0.000857 -0.000120
    35 C    -0.000240 -0.000205  0.000306
    36 C    -0.000362  0.000711 -0.000510
    37 C    -0.000292 -0.000577 -0.000754
    38 H    -0.000054  0.000213 -0.000655
    39 H    -0.000032  0.000119 -0.000108
    40 H    -0.000023 -0.000028  0.000039
    41 H    -0.000288 -0.000104  0.000185
    42 C     0.002363 -0.002595 -0.000082
 ----------------------------------------
 Mulliken charges used for AMS results%charges...

 dE(predicted):    -0.19340E-02, dE(actual):    -0.19852E-02, Trust radius:    0.400000, all in a.u.
 
----------------------------------------------------------------------
Geometry Convergence after Step   3       (Hartree/Angstrom,Angstrom)
----------------------------------------------------------------------
current energy                               -8.71136971 Hartree
energy change                      -0.00198517     0.00042000    F
constrained gradient max            0.00639877     0.00100000    F
constrained gradient rms            0.00147922     0.00066667    F
gradient max                        0.00639877
gradient rms                        0.00147922
cart. step max                      0.21138646     0.01000000    F
cart. step rms                      0.08124752     0.00666667    F
 
 
--------
Geometry
--------
Formula: C15H24N2O
Atoms
  Index Symbol   x (angstrom)   y (angstrom)   z (angstrom)
      1      C    -1.02170995    -1.86892274    -4.02134500
      2      H    -1.99504626    -1.36861292    -4.09308155
      3      H    -1.17515592    -2.92114299    -4.28245772
      4      H    -0.36058380    -1.42061032    -4.77395136
      5      H    -0.06966826     0.02012061    -1.26809110
      6      C    -0.37595151    -0.18279061    -2.29803448
      7      H     0.33571834     0.32364971    -2.95829300
      8      H    -1.36442206     0.27006260    -2.44473620
      9      C    -1.38458701    -2.37017164    -1.58908474
     10      H    -1.55235464    -3.42819556    -1.81975047
     11      H    -2.36131164    -1.87108157    -1.59872942
     12      H    -1.00017566    -2.29726577    -0.56368321
     13      H     2.15180927    -4.09577559    -2.89169345
     14      H     0.59881768    -4.40830348    -2.09937633
     15      H     0.65346148    -4.05771425    -3.83648973
     16      H     5.28275183     1.01664440     1.92439673
     17      H     4.25074462    -0.27044139     2.56471305
     18      H     5.50517033    -0.66770545     1.37395938
     19      N     3.13743446    -0.92407095     0.13075217
     20      C     2.64659646    -1.04616999    -1.17171657
     21      O     3.11070183    -0.41057689    -2.11102612
     22      N     1.71013208    -2.04298991    -1.31472482
     23      C     3.79850844     0.33443507     0.50669643
     24      H     2.53246710    -1.28844151     0.86290105
     25      C     1.00350569    -2.30238187    -2.56678540
     26      H     1.31611355    -2.45499477    -0.47743015
     27      H     4.38415841     0.61668899    -0.37318744
     28      C     1.09529452    -3.80558581    -2.86831372
     29      C     4.76555434     0.08638896     1.66574972
     30      H     3.23687181     2.49302542    -1.04708752
     31      H     1.58895435    -1.77089489    -3.32544963
     32      C     2.79477541     1.44994231     0.77887650
     33      C     1.99109301     1.45230723     1.92478810
     34      C     1.05713080     2.46025473     2.14344858
     35      C     0.91205216     3.49244126     1.21848909
     36      C     1.70861737     3.50459056     0.07715485
     37      C     2.63833484     2.49071664    -0.13999350
     38      H     2.09094010     0.66522451     2.66814684
     39      H     0.44420370     2.44357246     3.04250437
     40      H     0.18343515     4.28172606     1.38834183
     41      H     1.60162334     4.30384211    -0.65331172
     42      C    -0.44360762    -1.69266409    -2.60307784
 
Total System Charge             0.00000
Bonding info available!
 
 *** GO1_GOStep4 ***

 Energy gradients wrt nuclear displacements
 ==========================================

     Atom      Cartesian (a.u./angstrom)
                 X         Y         Z
 ----------------------------------------
     1 C    -0.000147 -0.000216 -0.000442
     2 H     0.000310 -0.000418  0.000261
     3 H     0.000343 -0.000504 -0.000417
     4 H     0.000125 -0.000049 -0.000005
     5 H    -0.000697  0.000693 -0.000585
     6 C     0.000007  0.001739  0.000153
     7 H     0.000038  0.000074  0.000664
     8 H    -0.000185 -0.000093 -0.000067
     9 C    -0.001482 -0.000739  0.000103
    10 H    -0.000326 -0.000211  0.000285
    11 H     0.000559  0.000226 -0.000180
    12 H     0.000451 -0.000639  0.000060
    13 H    -0.000011 -0.000107 -0.000209
    14 H     0.000249  0.000327 -0.000255
    15 H    -0.000265 -0.000309 -0.000459
    16 H     0.000075 -0.000093 -0.000194
    17 H     0.000058  0.000243 -0.000421
    18 H     0.000428 -0.000156  0.000236
    19 N     0.002232 -0.006117 -0.003336
    20 C    -0.008131  0.015261 -0.000294
    21 O     0.001771 -0.006615  0.003845
    22 N     0.009011 -0.004569  0.000173
    23 C     0.000054  0.001809 -0.000381
    24 H     0.000305 -0.000282  0.001353
    25 C    -0.002940  0.001836 -0.001472
    26 H    -0.001194  0.000245  0.001243
    27 H     0.000392 -0.000269  0.000534
    28 C     0.000109 -0.001224  0.000652
    29 C     0.000044 -0.000447  0.000770
    30 H    -0.000194 -0.000099 -0.000342
    31 H    -0.000237 -0.001046 -0.000222
    32 C    -0.001209  0.000156 -0.002151
    33 C    -0.000596  0.000042 -0.000031
    34 C     0.000549 -0.000370  0.000104
    35 C    -0.000459  0.000012  0.000258
    36 C     0.001024  0.000168 -0.000267
    37 C    -0.000174  0.000468  0.000514
    38 H     0.000000  0.000061  0.000265
    39 H    -0.000147 -0.000038  0.000528
    40 H    -0.000218  0.000003 -0.000017
    41 H    -0.000094  0.000111 -0.000191
    42 C     0.000573  0.001138 -0.000060
 ----------------------------------------
 Mulliken charges used for AMS results%charges...

 dE(predicted):    -0.70665E-03, dE(actual):    -0.83166E-03, Trust radius:    0.400000, all in a.u.
 
----------------------------------------------------------------------
Geometry Convergence after Step   4       (Hartree/Angstrom,Angstrom)
----------------------------------------------------------------------
current energy                               -8.71220137 Hartree
energy change                      -0.00083166     0.00042000    F
constrained gradient max            0.01525259     0.00100000    F
constrained gradient rms            0.00211911     0.00066667    F
gradient max                        0.01525259
gradient rms                        0.00211911
cart. step max                      0.10155737     0.01000000    F
cart. step rms                      0.03010883     0.00666667    F
 
 
--------
Geometry
--------
Formula: C15H24N2O
Atoms
  Index Symbol   x (angstrom)   y (angstrom)   z (angstrom)
      1      C    -1.03658152    -1.92721293    -4.03534996
      2      H    -2.01597808    -1.43846752    -4.12005114
      3      H    -1.18328831    -2.98923881    -4.26071847
      4      H    -0.38584592    -1.49734540    -4.80886757
      5      H    -0.09090972     0.06625999    -1.35267209
      6      C    -0.41275109    -0.17723715    -2.36992157
      7      H     0.27524655     0.32437373    -3.05985037
      8      H    -1.41379171     0.25127602    -2.51168419
      9      C    -1.37273248    -2.36305085    -1.58719236
     10      H    -1.50450654    -3.43565927    -1.77511471
     11      H    -2.36747507    -1.89902736    -1.61507314
     12      H    -0.99648471    -2.23442928    -0.56315679
     13      H     2.16704704    -4.06789332    -2.88914112
     14      H     0.60487068    -4.39811478    -2.11809388
     15      H     0.67880131    -4.03897184    -3.85262362
     16      H     5.28803933     1.00894586     1.91924764
     17      H     4.27129053    -0.28208214     2.57351857
     18      H     5.50437312    -0.67545928     1.35779065
     19      N     3.11664825    -0.92540037     0.14659772
     20      C     2.68762781    -1.08700652    -1.17301452
     21      O     3.15951331    -0.44366156    -2.10492850
     22      N     1.68749461    -2.01748280    -1.31420966
     23      C     3.78398471     0.32740482     0.52158937
     24      H     2.48393068    -1.27518458     0.86272917
     25      C     1.00134411    -2.28566652    -2.57263093
     26      H     1.29027628    -2.43045142    -0.47873386
     27      H     4.35870724     0.61032417    -0.36551734
     28      C     1.10723666    -3.78614159    -2.87814338
     29      C     4.76891886     0.07766637     1.66449300
     30      H     3.22400619     2.48268161    -1.03099178
     31      H     1.58961857    -1.74664807    -3.32433117
     32      C     2.79367738     1.45113388     0.80465350
     33      C     2.00897460     1.46856255     1.96324812
     34      C     1.08475115     2.48422328     2.18742311
     35      C     0.93763516     3.51417876     1.25959072
     36      C     1.71879714     3.51297570     0.10777138
     37      C     2.63651948     2.48990571    -0.11629082
     38      H     2.11220099     0.68516773     2.71056024
     39      H     0.48245959     2.47669786     3.09379702
     40      H     0.21988234     4.31219624     1.43569725
     41      H     1.61328004     4.31192460    -0.62361824
     42      C    -0.45441042    -1.69593688    -2.62676974
 
Total System Charge             0.00000
Bonding info available!
 
 *** GO1_GOStep5 ***

 Energy gradients wrt nuclear displacements
 ==========================================

     Atom      Cartesian (a.u./angstrom)
                 X         Y         Z
 ----------------------------------------
     1 C     0.001095 -0.000701  0.001121
     2 H    -0.000690 -0.000052 -0.000284
     3 H     0.000029 -0.001503 -0.000703
     4 H     0.000230  0.000573 -0.001029
     5 H    -0.000951  0.001443 -0.000040
     6 C    -0.000124  0.000030 -0.001116
     7 H     0.000346  0.000741  0.000509
     8 H    -0.001250  0.000339 -0.000050
     9 C     0.002052 -0.000792 -0.001857
    10 H    -0.000323 -0.001851  0.000055
    11 H    -0.000284  0.000655  0.000255
    12 H     0.000293 -0.000401  0.001630
    13 H     0.000858  0.000053 -0.000170
    14 H    -0.001002 -0.001075  0.000723
    15 H    -0.001127 -0.000400 -0.000795
    16 H    -0.000026  0.000695  0.000394
    17 H     0.000025  0.000215  0.001067
    18 H     0.000746 -0.000886 -0.000200
    19 N    -0.002038  0.001334 -0.002183
    20 C     0.014546 -0.011322 -0.005493
    21 O    -0.005460  0.004500  0.003459
    22 N     0.004719  0.000630 -0.000632
    23 C    -0.003260  0.001249  0.001715
    24 H    -0.001036 -0.000607  0.002735
    25 C    -0.003142  0.001816  0.002338
    26 H    -0.002509  0.000639  0.002304
    27 H     0.000128  0.000216  0.000239
    28 C    -0.000590  0.001725  0.000551
    29 C    -0.000411 -0.000323 -0.001837
    30 H     0.000093 -0.000095 -0.000687
    31 H     0.000005 -0.000677 -0.000181
    32 C    -0.000815  0.000833 -0.002119
    33 C     0.000523  0.001081  0.000057
    34 C     0.000429 -0.001452  0.000156
    35 C    -0.000172  0.000688 -0.000103
    36 C     0.000298 -0.000795 -0.000281
    37 C     0.000560  0.000884  0.001154
    38 H    -0.000136 -0.000126  0.000702
    39 H    -0.000300 -0.000204  0.000495
    40 H    -0.000149  0.000235  0.000028
    41 H     0.000150  0.000362 -0.000378
    42 C    -0.001330  0.002326 -0.001548
 ----------------------------------------
 Mulliken charges used for AMS results%charges...

 dE(predicted):    -0.52924E-03, dE(actual):    -0.79199E-04, Trust radius:    0.085223, all in a.u.
 
----------------------------------------------------------------------
Geometry Convergence after Step   5       (Hartree/Angstrom,Angstrom)
----------------------------------------------------------------------
current energy                               -8.71228057 Hartree
energy change                      -0.00007920     0.00042000    T
constrained gradient max            0.01453992     0.00100000    F
constrained gradient rms            0.00216673     0.00066667    F
gradient max                        0.01453992
gradient rms                        0.00216673
cart. step max                      0.03575482     0.01000000    F
cart. step rms                      0.01301522     0.00666667    F
 
 
--------
Geometry
--------
Formula: C15H24N2O
Atoms
  Index Symbol   x (angstrom)   y (angstrom)   z (angstrom)
      1      C    -1.04583454    -1.93340471    -4.04074578
      2      H    -2.02200971    -1.43816540    -4.11981797
      3      H    -1.19937864    -2.99296967    -4.26932061
      4      H    -0.39424668    -1.50413383    -4.81295674
      5      H    -0.07528023     0.03347383    -1.35079123
      6      C    -0.40545205    -0.19712379    -2.36827148
      7      H     0.28337591     0.30130205    -3.05925715
      8      H    -1.40278562     0.24057567    -2.50237882
      9      C    -1.37958481    -2.37581110    -1.59417023
     10      H    -1.51419262    -3.44696722    -1.78338796
     11      H    -2.37262971    -1.90906511    -1.62231110
     12      H    -1.00223881    -2.24809967    -0.57128397
     13      H     2.19299227    -4.06010799    -2.88324555
     14      H     0.63006857    -4.41127980    -2.12592055
     15      H     0.71455613    -4.05320165    -3.86020990
     16      H     5.29295503     0.99321807     1.91431690
     17      H     4.26287969    -0.28881237     2.56656839
     18      H     5.48839889    -0.69059860     1.34695871
     19      N     3.09055273    -0.90949462     0.14471255
     20      C     2.65222264    -1.06738152    -1.17257474
     21      O     3.13868141    -0.44269836    -2.11130478
     22      N     1.66436555    -2.01062654    -1.31531778
     23      C     3.77746646     0.33237197     0.51922173
     24      H     2.45721671    -1.25300130     0.86159528
     25      C     0.99920005    -2.29502319    -2.57976181
     26      H     1.26890163    -2.42853837    -0.48298998
     27      H     4.35106416     0.61153048    -0.36999217
     28      C     1.12962592    -3.79387262    -2.88243792
     29      C     4.76272877     0.06900131     1.65850978
     30      H     3.22969634     2.49557778    -1.02309429
     31      H     1.58653618    -1.74786536    -3.32660786
     32      C     2.79820442     1.46286897     0.81108422
     33      C     2.01536314     1.48120647     1.97054191
     34      C     1.09754750     2.50205683     2.19872975
     35      C     0.95384698     3.53410452     1.27357466
     36      C     1.73182645     3.53105203     0.12020339
     37      C     2.64380328     2.50373590    -0.10779394
     38      H     2.11490002     0.69423261     2.71415139
     39      H     0.49662571     2.49603835     3.10554955
     40      H     0.24064472     4.33521993     1.45277829
     41      H     1.62808656     4.33154106    -0.60926714
     42      C    -0.45830225    -1.71273637    -2.63326851
 
Total System Charge             0.00000
Bonding info available!
 
 *** GO1_GOStep6 ***

 Energy gradients wrt nuclear displacements
 ==========================================

     Atom      Cartesian (a.u./angstrom)
                 X         Y         Z
 ----------------------------------------
     1 C     0.000193 -0.000591  0.000262
     2 H    -0.000352 -0.000089 -0.000085
     3 H    -0.000105 -0.000077 -0.000280
     4 H    -0.000052  0.000371 -0.000346
     5 H    -0.000321  0.000399  0.000455
     6 C     0.000331 -0.000757 -0.000890
     7 H     0.000213  0.000091  0.000319
     8 H    -0.000448 -0.000047 -0.000116
     9 C     0.000675 -0.000218 -0.001000
    10 H    -0.000272 -0.000400 -0.000048
    11 H    -0.000120  0.000328  0.000373
    12 H     0.000381 -0.000223  0.000743
    13 H     0.000227  0.000053 -0.000143
    14 H    -0.000168 -0.000481  0.000307
    15 H    -0.000218 -0.000357  0.000192
    16 H    -0.000044  0.000302  0.000269
    17 H     0.000008  0.000206  0.000610
    18 H     0.000082 -0.000239 -0.000139
    19 N    -0.000551  0.000607 -0.000163
    20 C     0.003439 -0.003390 -0.001311
    21 O    -0.001454  0.001884  0.000104
    22 N     0.001289 -0.001289 -0.000792
    23 C    -0.001378  0.000446  0.001268
    24 H     0.000147 -0.000350  0.000798
    25 C    -0.001147  0.000726  0.000876
    26 H    -0.001534  0.001131  0.000690
    27 H     0.000304  0.000321  0.000139
    28 C     0.000434  0.000332 -0.000416
    29 C    -0.000046  0.000262 -0.001068
    30 H    -0.000057 -0.000099 -0.000246
    31 H     0.000238 -0.000371 -0.000340
    32 C    -0.000848  0.000082 -0.001089
    33 C     0.000558  0.000580  0.000027
    34 C     0.000149 -0.000518 -0.000105
    35 C     0.000098  0.000264 -0.000097
    36 C    -0.000100 -0.000566  0.000084
    37 C     0.000580  0.000323  0.000728
    38 H    -0.000083 -0.000047  0.000221
    39 H    -0.000093 -0.000105  0.000038
    40 H     0.000040  0.000018 -0.000019
    41 H     0.000110  0.000072 -0.000039
    42 C    -0.000107  0.001419  0.000232
 ----------------------------------------
 Mulliken charges used for AMS results%charges...

 dE(predicted):    -0.45999E-03, dE(actual):    -0.48737E-03, Trust radius:    0.170446, all in a.u.
 
----------------------------------------------------------------------
Geometry Convergence after Step   6       (Hartree/Angstrom,Angstrom)
----------------------------------------------------------------------
current energy                               -8.71276794 Hartree
energy change                      -0.00048737     0.00042000    F
constrained gradient max            0.00343294     0.00100000    F
constrained gradient rms            0.00070464     0.00066667    F
gradient max                        0.00343294
gradient rms                        0.00070464
cart. step max                      0.03737032     0.01000000    F
cart. step rms                      0.01583700     0.00666667    F
 
 
--------
Geometry
--------
Formula: C15H24N2O
Atoms
  Index Symbol   x (angstrom)   y (angstrom)   z (angstrom)
      1      C    -1.04575257    -1.95977647    -4.05211576
      2      H    -2.02123573    -1.46581383    -4.14529071
      3      H    -1.19690271    -3.02256266    -4.26622125
      4      H    -0.38811542    -1.54150415    -4.82491438
      5      H    -0.08767204     0.03866857    -1.38118770
      6      C    -0.42488191    -0.20193568    -2.39392495
      7      H     0.25622750     0.29319449    -3.09508602
      8      H    -1.42495454     0.22963554    -2.52540889
      9      C    -1.39340425    -2.37718346    -1.60415081
     10      H    -1.50702682    -3.45372776    -1.77409339
     11      H    -2.39381814    -1.92872954    -1.65599266
     12      H    -1.03358878    -2.22195600    -0.57931748
     13      H     2.21133004    -4.03788225    -2.86118760
     14      H     0.63997802    -4.40619311    -2.13057516
     15      H     0.74979343    -4.04425349    -3.86316093
     16      H     5.31584119     0.97193115     1.90659959
     17      H     4.27770779    -0.30278340     2.56203136
     18      H     5.48771363    -0.71073310     1.32981730
     19      N     3.07178978    -0.89647142     0.15362806
     20      C     2.63509674    -1.05429738    -1.16342216
     21      O     3.13834501    -0.44653523    -2.10486386
     22      N     1.64067499    -1.98945736    -1.30648651
     23      C     3.78016400     0.33361806     0.52290262
     24      H     2.42951843    -1.22487147     0.86892235
     25      C     0.99389308    -2.28646044    -2.57628893
     26      H     1.25770861    -2.42467948    -0.47798847
     27      H     4.34647452     0.60670461    -0.37283659
     28      C     1.14542321    -3.78292463    -2.87798243
     29      C     4.77324190     0.05480833     1.65174128
     30      H     3.22724291     2.49733348    -1.01663985
     31      H     1.58150093    -1.73076624    -3.31658715
     32      C     2.81372963     1.47234763     0.82609558
     33      C     2.03643692     1.49255370     1.98932916
     34      C     1.11865030     2.51328132     2.22010485
     35      C     0.96424042     3.53966281     1.29062519
     36      C     1.73393959     3.53353541     0.13184358
     37      C     2.64750967     2.50761874    -0.09759996
     38      H     2.14116278     0.70745991     2.73401602
     39      H     0.52419267     2.51016521     3.13102198
     40      H     0.24888657     4.33869180     1.47058211
     41      H     1.62017166     4.32856930    -0.60199636
     42      C    -0.46883485    -1.72015283    -2.64392454
 
Total System Charge             0.00000
Bonding info available!
 
 *** GO1_GOStep7 ***

 Energy gradients wrt nuclear displacements
 ==========================================

     Atom      Cartesian (a.u./angstrom)
                 X         Y         Z
 ----------------------------------------
     1 C     0.000193 -0.000638  0.000234
     2 H    -0.000269 -0.000094  0.000020
     3 H    -0.000014  0.000102 -0.000078
     4 H    -0.000114  0.000247 -0.000055
     5 H    -0.000078  0.000164  0.000424
     6 C     0.000568 -0.000948 -0.000518
     7 H     0.000234 -0.000053  0.000231
     8 H    -0.000110 -0.000050 -0.000104
     9 C     0.000320 -0.000079 -0.000773
    10 H    -0.000161  0.000025 -0.000149
    11 H    -0.000152  0.000222  0.000488
    12 H    -0.000035 -0.000136  0.000295
    13 H     0.000075  0.000092 -0.000076
    14 H     0.000091 -0.000208  0.000208
    15 H    -0.000152 -0.000148  0.000235
    16 H    -0.000099  0.000178  0.000128
    17 H     0.000032  0.000134  0.000379
    18 H    -0.000084 -0.000024 -0.000066
    19 N    -0.000081  0.001105  0.000253
    20 C    -0.000777  0.000035  0.000192
    21 O     0.000145  0.000225 -0.000297
    22 N     0.001214 -0.001868 -0.000600
    23 C    -0.001042 -0.000472  0.000092
    24 H     0.000624 -0.000517  0.000019
    25 C    -0.000254  0.000574  0.000739
    26 H    -0.000863  0.001212 -0.000143
    27 H     0.000095  0.000126 -0.000078
    28 C     0.000191  0.000210 -0.000643
    29 C     0.000112  0.000022 -0.000734
    30 H    -0.000029 -0.000030 -0.000002
    31 H     0.000201  0.000100 -0.000031
    32 C     0.000889  0.000243  0.000389
    33 C    -0.000087 -0.000099 -0.000416
    34 C     0.000030  0.000001  0.000126
    35 C    -0.000076  0.000083 -0.000213
    36 C    -0.000157 -0.000003  0.000289
    37 C    -0.000039 -0.000186  0.000044
    38 H    -0.000160 -0.000078 -0.000047
    39 H     0.000011  0.000023 -0.000085
    40 H    -0.000034 -0.000016 -0.000048
    41 H    -0.000071  0.000045 -0.000047
    42 C    -0.000086  0.000478  0.000419
 ----------------------------------------
 Mulliken charges used for AMS results%charges...

 dE(predicted):    -0.10135E-03, dE(actual):    -0.21417E-03, Trust radius:    0.170446, all in a.u.
 
----------------------------------------------------------------------
Geometry Convergence after Step   7       (Hartree/Angstrom,Angstrom)
----------------------------------------------------------------------
current energy                               -8.71298211 Hartree
energy change                      -0.00021417     0.00042000    T
constrained gradient max            0.00187210     0.00100000    F
constrained gradient rms            0.00039500     0.00066667    T
gradient max                        0.00187210
gradient rms                        0.00039500
cart. step max                      0.06925444     0.01000000    F
cart. step rms                      0.02923187     0.00666667    F
 
 
--------
Geometry
--------
Formula: C15H24N2O
Atoms
  Index Symbol   x (angstrom)   y (angstrom)   z (angstrom)
      1      C    -1.04400010    -2.00977439    -4.07879623
      2      H    -2.01997471    -1.52193843    -4.19516715
      3      H    -1.18797587    -3.07798823    -4.26929720
      4      H    -0.37835420    -1.60733740    -4.85295211
      5      H    -0.12252973     0.05017269    -1.44308561
      6      C    -0.46403792    -0.21266396    -2.44866509
      7      H     0.20476419     0.27902323    -3.16434047
      8      H    -1.47067510     0.20243677    -2.58169517
      9      C    -1.41068814    -2.38431477    -1.62598881
     10      H    -1.49252721    -3.46818441    -1.76378740
     11      H    -2.42155197    -1.96550365    -1.71062258
     12      H    -1.07405490    -2.18655682    -0.60107439
     13      H     2.23643824    -4.01176566    -2.81905462
     14      H     0.65268270    -4.39977675    -2.12677414
     15      H     0.80198552    -4.04517515    -3.85846326
     16      H     5.33732256     0.94591453     1.89624112
     17      H     4.29016871    -0.32087471     2.55490975
     18      H     5.48095417    -0.73440071     1.30675509
     19      N     3.04302142    -0.87993389     0.16199314
     20      C     2.60908514    -1.03576103    -1.15544545
     21      O     3.12534385    -0.44014953    -2.09783197
     22      N     1.60482155    -1.95899247    -1.29934729
     23      C     3.77692962     0.33553369     0.52678125
     24      H     2.38842979    -1.18835982     0.87463998
     25      C     0.98530019    -2.27802812    -2.57637180
     26      H     1.23919262    -2.41690333    -0.47561895
     27      H     4.33395672     0.60309340    -0.37634883
     28      C     1.16758881    -3.77321259    -2.86461414
     29      C     4.77991863     0.03760048     1.64208139
     30      H     3.21092284     2.50095114    -1.00766911
     31      H     1.57457117    -1.71640649    -3.31077844
     32      C     2.82675756     1.48381862     0.84613767
     33      C     2.07326586     1.51357884     2.02484104
     34      C     1.16595839     2.54058170     2.26956992
     35      C     0.99821900     3.56345469     1.33874405
     36      C     1.74443632     3.54846153     0.16472265
     37      C     2.64810184     2.51678786    -0.07832305
     38      H     2.19126471     0.73270350     2.77185231
     39      H     0.59099662     2.54558973     3.19283719
     40      H     0.29123697     4.36731508     1.52996846
     41      H     1.62019693     4.34107022    -0.56992346
     42      C    -0.48506462    -1.73595670    -2.67002174
 
Total System Charge             0.00000
Bonding info available!
 
 *** GO1_GOStep8 ***

 Energy gradients wrt nuclear displacements
 ==========================================

     Atom      Cartesian (a.u./angstrom)
                 X         Y         Z
 ----------------------------------------
     1 C     0.000110 -0.000178  0.000056
     2 H    -0.000185 -0.000057  0.000077
     3 H     0.000000  0.000263  0.000056
     4 H    -0.000178  0.000111  0.000096
     5 H     0.000029  0.000031  0.000260
     6 C     0.000288 -0.000950 -0.000021
     7 H     0.000246 -0.000096  0.000097
     8 H     0.000095  0.000153 -0.000111
     9 C     0.000590  0.000003 -0.000065
    10 H    -0.000015  0.000290 -0.000151
    11 H    -0.000140  0.000195  0.000488
    12 H    -0.000332 -0.000102 -0.000108
    13 H     0.000081  0.000015 -0.000003
    14 H     0.000245  0.000050  0.000155
    15 H     0.000012  0.000106  0.000321
    16 H    -0.000037  0.000066  0.000050
    17 H    -0.000101  0.000121  0.000144
    18 H    -0.000151  0.000143  0.000003
    19 N    -0.000099  0.001795  0.000210
    20 C    -0.002914  0.001980  0.001016
    21 O     0.000621 -0.000799 -0.000249
    22 N     0.001571 -0.002565 -0.000703
    23 C    -0.000163 -0.001371 -0.000659
    24 H     0.000834 -0.000630 -0.000453
    25 C     0.000292  0.000247  0.000394
    26 H    -0.000644  0.001318 -0.000435
    27 H    -0.000161 -0.000135 -0.000260
    28 C     0.000018  0.000109 -0.000475
    29 C     0.000280  0.000017 -0.000263
    30 H    -0.000007  0.000108  0.000148
    31 H     0.000055  0.000411  0.000174
    32 C     0.000587 -0.000490  0.000320
    33 C    -0.000455 -0.000219 -0.000368
    34 C    -0.000128  0.000008  0.000224
    35 C    -0.000061  0.000097 -0.000116
    36 C    -0.000245  0.000235  0.000094
    37 C    -0.000023 -0.000019 -0.000187
    38 H     0.000067 -0.000039  0.000006
    39 H     0.000072  0.000061 -0.000134
    40 H     0.000012 -0.000039  0.000006
    41 H    -0.000155 -0.000007 -0.000020
    42 C     0.000093 -0.000234  0.000385
 ----------------------------------------
 Mulliken charges used for AMS results%charges...

 dE(predicted):    -0.11810E-03, dE(actual):    -0.20635E-03, Trust radius:    0.340893, all in a.u.
 
----------------------------------------------------------------------
Geometry Convergence after Step   8       (Hartree/Angstrom,Angstrom)
----------------------------------------------------------------------
current energy                               -8.71318846 Hartree
energy change                      -0.00020635     0.00042000    T
constrained gradient max            0.00291896     0.00100000    F
constrained gradient rms            0.00055265     0.00066667    T
gradient max                        0.00291896
gradient rms                        0.00055265
cart. step max                      0.15366759     0.01000000    F
cart. step rms                      0.06522340     0.00666667    F
 
 
--------
Geometry
--------
Formula: C15H24N2O
Atoms
  Index Symbol   x (angstrom)   y (angstrom)   z (angstrom)
      1      C    -1.03076880    -2.11868226    -4.13779402
      2      H    -2.00907435    -1.65240588    -4.30788022
      3      H    -1.15137206    -3.19714283    -4.28087873
      4      H    -0.34553764    -1.74316673    -4.90799076
      5      H    -0.21929554     0.06961375    -1.57315874
      6      C    -0.55817738    -0.24103367    -2.56543034
      7      H     0.08857770     0.24552820    -3.30526410
      8      H    -1.57864231     0.13366822    -2.70954809
      9      C    -1.45282384    -2.40841609    -1.68076424
     10      H    -1.46729000    -3.50138904    -1.75295219
     11      H    -2.48084842    -2.05728374    -1.83427041
     12      H    -1.17146706    -2.12740686    -0.65959524
     13      H     2.28523548    -3.94862380    -2.72082064
     14      H     0.68072225    -4.38111268    -2.10793364
     15      H     0.91211477    -4.04429966    -3.83526872
     16      H     5.38059308     0.88749319     1.87252141
     17      H     4.31205608    -0.36111260     2.53682842
     18      H     5.46210762    -0.78598909     1.25665203
     19      N     2.98271600    -0.84305093     0.17741368
     20      C     2.54763551    -0.98965058    -1.13930122
     21      O     3.08306053    -0.41371120    -2.08337384
     22      N     1.52499227    -1.89033869    -1.28340998
     23      C     3.76971652     0.34035834     0.53314790
     24      H     2.30625109    -1.10888537     0.88636723
     25      C     0.96396063    -2.25678850    -2.57342557
     26      H     1.20051666    -2.39512587    -0.47029595
     27      H     4.30794687     0.59730423    -0.38413301
     28      C     1.21296054    -3.74781634    -2.82671954
     29      C     4.79094719    -0.00042247     1.61980357
     30      H     3.17524272     2.51161953    -0.98778005
     31      H     1.55585368    -1.68446833    -3.29709358
     32      C     2.85552670     1.50857951     0.88675450
     33      C     2.15646263     1.55787061     2.09817189
     34      C     1.27579905     2.59992993     2.37551598
     35      C     1.08115155     3.61828650     1.44544613
     36      C     1.77425594     3.58543625     0.23939405
     37      C     2.65185295     2.53931157    -0.03603383
     38      H     2.30161490     0.78332314     2.84669037
     39      H     0.74466421     2.62106913     3.32440182
     40      H     0.39542805     4.43385569     1.66294965
     41      H     1.62922341     4.37549537    -0.49392589
     42      C    -0.52149105    -1.77229129    -2.72699953
 
Total System Charge             0.00000
Bonding info available!
 
 *** GO1_GOStep9 ***

 Energy gradients wrt nuclear displacements
 ==========================================

     Atom      Cartesian (a.u./angstrom)
                 X         Y         Z
 ----------------------------------------
     1 C    -0.000313  0.000950 -0.000587
     2 H     0.000059 -0.000020  0.000089
     3 H     0.000190  0.000464  0.000341
     4 H    -0.000256 -0.000186  0.000485
     5 H     0.000007 -0.000299 -0.000415
     6 C    -0.000815 -0.000294  0.001255
     7 H     0.000144 -0.000117 -0.000250
     8 H     0.000525  0.000639 -0.000248
     9 C     0.000827  0.000353  0.001825
    10 H     0.000190  0.000807 -0.000172
    11 H     0.000051  0.000175  0.000145
    12 H    -0.001028 -0.000162 -0.001065
    13 H     0.000162 -0.000090  0.000222
    14 H     0.000560  0.000696 -0.000003
    15 H     0.000369  0.000627  0.000303
    16 H     0.000212 -0.000260 -0.000179
    17 H    -0.000353  0.000120 -0.000510
    18 H    -0.000165  0.000403  0.000144
    19 N    -0.000314  0.002515  0.000072
    20 C    -0.007263  0.005458  0.002249
    21 O     0.001247 -0.002892  0.000204
    22 N     0.004152 -0.004431 -0.000955
    23 C     0.001804 -0.002915 -0.002031
    24 H     0.001124 -0.000688 -0.001157
    25 C     0.001485 -0.000278 -0.000030
    26 H    -0.000420  0.001779 -0.001079
    27 H    -0.000657 -0.000748 -0.000478
    28 C    -0.000570 -0.000113  0.000362
    29 C     0.000671 -0.000033  0.000999
    30 H    -0.000026  0.000354  0.000453
    31 H    -0.000219  0.000807  0.000500
    32 C    -0.000807 -0.001786  0.000088
    33 C    -0.000938 -0.000304 -0.000181
    34 C    -0.000425 -0.000074  0.000469
    35 C     0.000078  0.000037 -0.000103
    36 C    -0.000437  0.000629 -0.000250
    37 C    -0.000001  0.000527 -0.000643
    38 H     0.000498  0.000022  0.000012
    39 H     0.000220  0.000124 -0.000294
    40 H     0.000104 -0.000138  0.000138
    41 H    -0.000244 -0.000113  0.000101
    42 C     0.000569 -0.001544  0.000175
 ----------------------------------------
 Mulliken charges used for AMS results%charges...

 dE(predicted):    -0.32667E-03, dE(actual):    -0.25075E-03, Trust radius:    0.681786, all in a.u.
 
----------------------------------------------------------------------
Geometry Convergence after Step   9       (Hartree/Angstrom,Angstrom)
----------------------------------------------------------------------
current energy                               -8.71343921 Hartree
energy change                      -0.00025075     0.00042000    T
constrained gradient max            0.00726410     0.00100000    F
constrained gradient rms            0.00124925     0.00066667    F
gradient max                        0.00726410
gradient rms                        0.00124925
cart. step max                      0.20784694     0.01000000    F
cart. step rms                      0.08793883     0.00666667    F
 
 
--------
Geometry
--------
Formula: C15H24N2O
Atoms
  Index Symbol   x (angstrom)   y (angstrom)   z (angstrom)
      1      C    -1.00832573    -2.25151437    -4.20802372
      2      H    -1.99501880    -1.83265476    -4.43869227
      3      H    -1.07801700    -3.33938035    -4.30859672
      4      H    -0.30376069    -1.88139557    -4.96279033
      5      H    -0.38946680     0.06254482    -1.70487779
      6      C    -0.71362202    -0.29819973    -2.68430380
      7      H    -0.10165424     0.20235222    -3.44510619
      8      H    -1.75501887     0.00718718    -2.83793594
      9      C    -1.50027737    -2.48722134    -1.75474622
     10      H    -1.41563701    -3.57922028    -1.76169296
     11      H    -2.54479629    -2.24121106    -1.98008901
     12      H    -1.29382589    -2.12360357    -0.74298790
     13      H     2.35667437    -3.82634435    -2.61979971
     14      H     0.74460428    -4.34768254    -2.10428818
     15      H     1.06606138    -4.00568897    -3.81741868
     16      H     5.41172547     0.79099716     1.86465206
     17      H     4.29683928    -0.42314382     2.52439619
     18      H     5.40689166    -0.87129546     1.22001626
     19      N     2.89528975    -0.79553990     0.19625539
     20      C     2.45442893    -0.91936083    -1.11923420
     21      O     3.00470827    -0.35598263    -2.06209769
     22      N     1.41297970    -1.79654408    -1.26613131
     23      C     3.75239776     0.33970228     0.54638775
     24      H     2.19240346    -1.00264277     0.89909293
     25      C     0.93087076    -2.21443104    -2.57222535
     26      H     1.16204566    -2.37363860    -0.47511450
     27      H     4.27894281     0.57910750    -0.38195963
     28      C     1.28339644    -3.68882805    -2.79340681
     29      C     4.77726230    -0.06410328     1.60864104
     30      H     3.15656576     2.52384663    -0.96278607
     31      H     1.51317236    -1.61311520    -3.27930743
     32      C     2.89272669     1.54028175     0.93199670
     33      C     2.25976878     1.62283304     2.17810477
     34      C     1.43066981     2.69698059     2.49088132
     35      C     1.22447937     3.71484354     1.56338406
     36      C     1.85391667     3.65086995     0.32343007
     37      C     2.67974637     2.57297266     0.01228088
     38      H     2.42500922     0.85368746     2.92761209
     39      H     0.95251114     2.74482019     3.46675831
     40      H     0.58040531     4.55588364     1.80989935
     41      H     1.70050199     4.44187396    -0.40681922
     42      C    -0.57517690    -1.82991335    -2.79334100
 
Total System Charge             0.00000
Bonding info available!
 
 *** GO1_GOStep10 ***

 Energy gradients wrt nuclear displacements
 ==========================================

     Atom      Cartesian (a.u./angstrom)
                 X         Y         Z
 ----------------------------------------
     1 C    -0.000363  0.002173 -0.001210
     2 H     0.000434  0.000190  0.000234
     3 H     0.000710  0.000515  0.000803
     4 H    -0.000188 -0.000656  0.000902
     5 H     0.000078 -0.000974 -0.001321
     6 C    -0.003199  0.001470  0.002653
     7 H    -0.000045 -0.000116 -0.000713
     8 H     0.001194  0.001115 -0.000536
     9 C    -0.000194  0.001135  0.003150
    10 H     0.000313  0.001022 -0.000383
    11 H     0.001132 -0.000325 -0.000482
    12 H    -0.001111 -0.000240 -0.001786
    13 H    -0.000176 -0.000249  0.000459
    14 H     0.000888  0.001536 -0.000189
    15 H     0.000531  0.001256 -0.000370
    16 H     0.000474 -0.000672 -0.000647
    17 H    -0.000593  0.000137 -0.001505
    18 H    -0.000051  0.000707  0.000469
    19 N    -0.000697  0.002985 -0.000644
    20 C    -0.013085  0.008477  0.003527
    21 O     0.001632 -0.005582  0.000746
    22 N     0.008606 -0.005365 -0.001144
    23 C     0.004855 -0.004819 -0.003482
    24 H     0.001186 -0.000297 -0.001861
    25 C     0.003224 -0.000297  0.000984
    26 H    -0.000173  0.002182 -0.001926
    27 H    -0.001314 -0.001672 -0.000652
    28 C    -0.000991 -0.000338  0.002556
    29 C     0.001273  0.000054  0.003128
    30 H     0.000123  0.000666  0.000662
    31 H    -0.000572  0.001208  0.000846
    32 C    -0.003827 -0.003364 -0.000693
    33 C    -0.001472 -0.000724  0.000435
    34 C    -0.000844  0.000166  0.000655
    35 C     0.000609 -0.000500 -0.000058
    36 C    -0.000555  0.001550 -0.000811
    37 C     0.000346  0.001091 -0.001038
    38 H     0.001198  0.000238  0.000012
    39 H     0.000302  0.000180 -0.000345
    40 H     0.000038 -0.000150  0.000270
    41 H    -0.000232 -0.000289  0.000263
    42 C     0.000537 -0.003422 -0.000959
 ----------------------------------------
 Mulliken charges used for AMS results%charges...

 dE(predicted):    -0.60282E-03, dE(actual):    -0.13829E-03, Trust radius:    0.681786, all in a.u.
 
----------------------------------------------------------------------
Geometry Convergence after Step  10       (Hartree/Angstrom,Angstrom)
----------------------------------------------------------------------
current energy                               -8.71357750 Hartree
energy change                      -0.00013829     0.00042000    T
constrained gradient max            0.01308310     0.00100000    F
constrained gradient rms            0.00223670     0.00066667    F
gradient max                        0.01308310
gradient rms                        0.00223670
cart. step max                      0.07850660     0.01000000    F
cart. step rms                      0.02674548     0.00666667    F
 
 
--------
Geometry
--------
Formula: C15H24N2O
Atoms
  Index Symbol   x (angstrom)   y (angstrom)   z (angstrom)
      1      C    -1.03157427    -2.29850054    -4.20357235
      2      H    -2.01815616    -1.87946670    -4.43562959
      3      H    -1.11028669    -3.38815610    -4.27522923
      4      H    -0.33333088    -1.95267264    -4.97591281
      5      H    -0.36810448     0.07674862    -1.77006526
      6      C    -0.72821019    -0.30952159    -2.72741715
      7      H    -0.14970175     0.17634868    -3.52361280
      8      H    -1.77719528    -0.01450754    -2.84793767
      9      C    -1.48505235    -2.48213432    -1.73734665
     10      H    -1.37058171    -3.57097659    -1.70158611
     11      H    -2.53796936    -2.27409258    -1.96507590
     12      H    -1.28516602    -2.07304575    -0.74180221
     13      H     2.38897326    -3.78176384    -2.63265338
     14      H     0.78057806    -4.34056267    -2.14305277
     15      H     1.11747958    -3.97610677    -3.84798578
     16      H     5.39929745     0.74840490     1.88711132
     17      H     4.26944366    -0.46238002     2.52714452
     18      H     5.37499487    -0.90469201     1.21698902
     19      N     2.86370138    -0.78220390     0.19787916
     20      C     2.45011775    -0.91608509    -1.12559402
     21      O     3.02726369    -0.37149453    -2.06470978
     22      N     1.38658661    -1.76703618    -1.27836449
     23      C     3.73761778     0.33599861     0.55890078
     24      H     2.13951629    -0.96781476     0.88484007
     25      C     0.93088467    -2.19875413    -2.58915505
     26      H     1.16750639    -2.37602529    -0.50174425
     27      H     4.26765640     0.57644771    -0.36730164
     28      C     1.31516197    -3.66381347    -2.81875384
     29      C     4.75516328    -0.09528720     1.61682163
     30      H     3.15015978     2.51670821    -0.95072344
     31      H     1.50075420    -1.58029808    -3.29164850
     32      C     2.90058785     1.54918133     0.95394250
     33      C     2.27573102     1.64220098     2.20349037
     34      C     1.45666823     2.72430407     2.51654637
     35      C     1.24932435     3.73814422     1.58484592
     36      C     1.86706060     3.66117950     0.33978966
     37      C     2.68353281     2.57614989     0.02877960
     38      H     2.43570641     0.87293841     2.95406063
     39      H     0.98443331     2.77982475     3.49491691
     40      H     0.61270455     4.58496844     1.83108886
     41      H     1.71124176     4.44749224    -0.39515713
     42      C    -0.58212069    -1.84151959    -2.80509896
 
Total System Charge             0.00000
Bonding info available!
 
 *** GO1_GOStep11 ***

 Energy gradients wrt nuclear displacements
 ==========================================

     Atom      Cartesian (a.u./angstrom)
                 X         Y         Z
 ----------------------------------------
     1 C    -0.000403  0.001793 -0.000924
     2 H     0.000262  0.000283  0.000045
     3 H     0.000119  0.000809  0.000569
     4 H    -0.000070 -0.000482  0.000630
     5 H     0.000623 -0.000734 -0.000877
     6 C    -0.001572  0.000152  0.002876
     7 H     0.000216 -0.000091 -0.000731
     8 H     0.000956  0.000891 -0.000548
     9 C     0.001386  0.001242  0.002757
    10 H     0.000381  0.001072 -0.000382
    11 H     0.000305 -0.000249 -0.000152
    12 H    -0.001402 -0.000190 -0.001546
    13 H    -0.000035 -0.000159  0.000590
    14 H     0.000724  0.001158  0.000014
    15 H     0.000770  0.000892  0.000007
    16 H     0.000272 -0.000369 -0.000480
    17 H    -0.000462  0.000013 -0.000883
    18 H    -0.000136  0.000511  0.000306
    19 N     0.000195  0.003645  0.000318
    20 C    -0.014747  0.004320  0.004261
    21 O     0.003065 -0.004249 -0.001738
    22 N     0.005393 -0.001942 -0.001883
    23 C     0.003107 -0.005089 -0.003430
    24 H     0.001214 -0.000495 -0.001973
    25 C     0.005011 -0.000885  0.002556
    26 H     0.000673  0.002080 -0.002860
    27 H    -0.001740 -0.001204 -0.000734
    28 C    -0.001203 -0.000498  0.000759
    29 C     0.000700 -0.000167  0.002251
    30 H     0.000148  0.000546  0.000649
    31 H    -0.000771  0.001795  0.001048
    32 C    -0.000726 -0.001859  0.000467
    33 C    -0.001657 -0.000565  0.000274
    34 C    -0.000745  0.000168  0.000775
    35 C     0.000372 -0.000158 -0.000243
    36 C    -0.000830  0.001291 -0.000406
    37 C    -0.000010  0.000457 -0.001120
    38 H     0.000759  0.000030 -0.000052
    39 H     0.000177  0.000201 -0.000387
    40 H     0.000010 -0.000049  0.000239
    41 H    -0.000269 -0.000188  0.000185
    42 C    -0.000061 -0.003727 -0.000228
 ----------------------------------------
 Mulliken charges used for AMS results%charges...

 dE(predicted):    -0.16601E-03, dE(actual):    -0.16781E-03, Trust radius:    0.681786, all in a.u.
 
----------------------------------------------------------------------
Geometry Convergence after Step  11       (Hartree/Angstrom,Angstrom)
----------------------------------------------------------------------
current energy                               -8.71374530 Hartree
energy change                      -0.00016781     0.00042000    T
constrained gradient max            0.01474714     0.00100000    F
constrained gradient rms            0.00203674     0.00066667    F
gradient max                        0.01474714
gradient rms                        0.00203674
cart. step max                      0.18160563     0.01000000    F
cart. step rms                      0.06779779     0.00666667    F
 
 
--------
Geometry
--------
Formula: C15H24N2O
Atoms
  Index Symbol   x (angstrom)   y (angstrom)   z (angstrom)
      1      C    -1.08693500    -2.27180273    -4.16830539
      2      H    -2.09289355    -1.87660955    -4.34853394
      3      H    -1.13767644    -3.36237631    -4.26523124
      4      H    -0.43078314    -1.88919492    -4.96049065
      5      H    -0.39751683     0.07026406    -1.70817596
      6      C    -0.79060397    -0.30788344    -2.65478092
      7      H    -0.27738757     0.22080744    -3.46812058
      8      H    -1.85669621    -0.05729481    -2.71146532
      9      C    -1.41734975    -2.52943845    -1.68032260
     10      H    -1.27874133    -3.61653733    -1.67959388
     11      H    -2.48573277    -2.33828118    -1.84173396
     12      H    -1.15653563    -2.14449233    -0.68962493
     13      H     2.40881549    -3.73263324    -2.79962069
     14      H     0.82270034    -4.32170727    -2.26689016
     15      H     1.09051332    -3.89044964    -3.96601695
     16      H     5.30077659     0.71794873     2.06871695
     17      H     4.12275376    -0.49881448     2.60761194
     18      H     5.33237467    -0.93120003     1.39165344
     19      N     2.91318212    -0.82639115     0.19166569
     20      C     2.50576044    -0.91039732    -1.14069273
     21      O     3.05308832    -0.29449068    -2.05114135
     22      N     1.44037772    -1.77399637    -1.31406019
     23      C     3.74962161     0.31077437     0.60975739
     24      H     2.16494180    -1.01837588     0.85463190
     25      C     0.93928536    -2.16048865    -2.63571745
     26      H     1.32337143    -2.47098152    -0.58439670
     27      H     4.34973129     0.55328269    -0.27147442
     28      C     1.32704596    -3.61461756    -2.93414466
     29      C     4.68042720    -0.12402872     1.74371225
     30      H     3.18831173     2.43560497    -0.98512173
     31      H     1.47018258    -1.51657007    -3.34378887
     32      C     2.89134946     1.52989304     0.94325182
     33      C     2.24184202     1.66642751     2.17741336
     34      C     1.43941248     2.77235897     2.44652155
     35      C     1.27682823     3.76937138     1.48818890
     36      C     1.91716348     3.64599437     0.25635409
     37      C     2.71334635     2.53581544    -0.01242413
     38      H     2.36291702     0.90975735     2.94761525
     39      H     0.94455112     2.85830243     3.41267532
     40      H     0.65610054     4.63711222     1.70096917
     41      H     1.79504440     4.41746714    -0.50064776
     42      C    -0.59056648    -1.83399981    -2.77820526
 
Total System Charge             0.00000
Bonding info available!
 
 *** GO1_GOStep12 ***

 Energy gradients wrt nuclear displacements
 ==========================================

     Atom      Cartesian (a.u./angstrom)
                 X         Y         Z
 ----------------------------------------
     1 C    -0.001324  0.003369 -0.001694
     2 H     0.001178 -0.000263  0.000297
     3 H     0.000496 -0.000855  0.000039
     4 H     0.000474 -0.000753  0.000222
     5 H    -0.000494 -0.000811 -0.002052
     6 C    -0.002839  0.003912  0.003191
     7 H    -0.000178  0.000200 -0.000529
     8 H     0.000429  0.000619 -0.000398
     9 C     0.001419  0.000537  0.004628
    10 H     0.000375  0.000272  0.000765
    11 H    -0.000127 -0.000326 -0.001190
    12 H     0.000427 -0.000555 -0.001673
    13 H     0.000357 -0.000577 -0.000142
    14 H     0.000180  0.000995 -0.000454
    15 H     0.000537  0.000449 -0.000369
    16 H     0.000675 -0.000383 -0.000905
    17 H    -0.000461 -0.000185 -0.001564
    18 H     0.000418  0.000105  0.000383
    19 N     0.001383 -0.001263 -0.003272
    20 C    -0.001394  0.002023  0.006238
    21 O     0.003482  0.001422 -0.000878
    22 N     0.000764  0.000640  0.000624
    23 C     0.005362  0.000348 -0.001828
    24 H    -0.001101  0.000383  0.000105
    25 C     0.000498 -0.000281 -0.004420
    26 H     0.001230 -0.002288  0.001884
    27 H    -0.001511 -0.000865 -0.000087
    28 C    -0.003018 -0.002112  0.001207
    29 C    -0.001278 -0.000315  0.003752
    30 H    -0.000358  0.000094 -0.000765
    31 H    -0.002001 -0.001400  0.000192
    32 C    -0.002446 -0.000253 -0.002256
    33 C    -0.001380  0.001045  0.002647
    34 C     0.000285 -0.000181  0.000067
    35 C    -0.000770  0.000447  0.001736
    36 C     0.001313 -0.000017 -0.002342
    37 C     0.000310  0.000966 -0.000045
    38 H     0.000091 -0.000473 -0.000070
    39 H    -0.000517 -0.000046  0.000851
    40 H    -0.000164  0.000128  0.000369
    41 H     0.000006 -0.000024  0.000000
    42 C    -0.000328 -0.003729 -0.002266
 ----------------------------------------
 Mulliken charges used for AMS results%charges...

 dE(predicted):    -0.52100E-03, dE(actual):     0.42788E-04, Trust radius:    0.088418, all in a.u.
 
----------------------------------------------------------------------
Geometry Convergence after Step  12       (Hartree/Angstrom,Angstrom)
----------------------------------------------------------------------
current energy                               -8.71370252 Hartree
energy change                       0.00004279     0.00042000    T
constrained gradient max            0.00623894     0.00100000    F
constrained gradient rms            0.00161561     0.00066667    F
gradient max                        0.00623894
gradient rms                        0.00161561
cart. step max                      0.05783732     0.01000000    F
cart. step rms                      0.01972130     0.00666667    F
 
 
--------
Geometry
--------
Formula: C15H24N2O
Atoms
  Index Symbol   x (angstrom)   y (angstrom)   z (angstrom)
      1      C    -1.06889082    -2.27401019    -4.18119626
      2      H    -2.07176333    -1.87648686    -4.37600572
      3      H    -1.12129867    -3.36371377    -4.28006284
      4      H    -0.40139525    -1.89033739    -4.96303701
      5      H    -0.40822458     0.05990613    -1.70493692
      6      C    -0.78448382    -0.31358298    -2.66119930
      7      H    -0.25051374     0.21252015    -3.46238404
      8      H    -1.84743768    -0.05537302    -2.73828763
      9      C    -1.45050332    -2.53405369    -1.71008250
     10      H    -1.31879595    -3.62183397    -1.71499236
     11      H    -2.51368866    -2.33466379    -1.89349342
     12      H    -1.21437295    -2.15720811    -0.70968450
     13      H     2.42227210    -3.71552376    -2.75789974
     14      H     0.83617523    -4.32579675    -2.25005664
     15      H     1.12296859    -3.88920413    -3.94455015
     16      H     5.33008143     0.72319971     2.02111382
     17      H     4.16927677    -0.49134497     2.59485289
     18      H     5.34465967    -0.92824494     1.34633874
     19      N     2.89372182    -0.82021623     0.20418956
     20      C     2.47695926    -0.91303446    -1.12465350
     21      O     3.01831307    -0.30651847    -2.04323268
     22      N     1.41086406    -1.77277789    -1.29113856
     23      C     3.74342259     0.31131600     0.60337188
     24      H     2.15672066    -1.01361934     0.87777391
     25      C     0.93301649    -2.16336255    -2.61584132
     26      H     1.27595592    -2.45816449    -0.55601296
     27      H     4.32584487     0.55121887    -0.29106947
     28      C     1.34157885    -3.61165348    -2.90958202
     29      C     4.70282120    -0.12024396     1.71370573
     30      H     3.17376759     2.43304143    -0.98305361
     31      H     1.47433489    -1.51376751    -3.31230989
     32      C     2.89721331     1.53285264     0.94958979
     33      C     2.26402024     1.67262406     2.19020192
     34      C     1.45938271     2.77607720     2.46251608
     35      C     1.27845420     3.76610913     1.50055792
     36      C     1.90536104     3.64065741     0.26357384
     37      C     2.70511098     2.53389017    -0.00775698
     38      H     2.40071240     0.92243753     2.96402750
     39      H     0.97795480     2.86639005     3.43428686
     40      H     0.65574425     4.63151980     1.71563975
     41      H     1.77070499     4.40766853    -0.49568275
     42      C    -0.59364706    -1.83856340    -2.78352089
 
Total System Charge             0.00000
Bonding info available!
 
 *** GO1_GOStep13 ***

 Energy gradients wrt nuclear displacements
 ==========================================

     Atom      Cartesian (a.u./angstrom)
                 X         Y         Z
 ----------------------------------------
     1 C    -0.001215  0.001633 -0.000614
     2 H     0.000737 -0.000071  0.000152
     3 H     0.000057 -0.000044  0.000097
     4 H     0.000182 -0.000533  0.000564
     5 H    -0.000016 -0.000496 -0.000966
     6 C    -0.001068  0.002028  0.001847
     7 H    -0.000132 -0.000051 -0.000395
     8 H     0.000482  0.000258 -0.000223
     9 C    -0.000170  0.000299  0.002296
    10 H     0.000086  0.000666  0.000386
    11 H    -0.000048 -0.000353 -0.000429
    12 H    -0.000191 -0.000130 -0.001542
    13 H     0.000115 -0.000312  0.000118
    14 H     0.000354  0.000879 -0.000426
    15 H     0.000552  0.000698  0.000213
    16 H     0.000305 -0.000406 -0.000479
    17 H    -0.000374  0.000000 -0.001054
    18 H     0.000015  0.000303  0.000161
    19 N    -0.000244 -0.000195 -0.000785
    20 C    -0.001353  0.002851  0.001234
    21 O    -0.000123 -0.001589  0.001195
    22 N     0.000897 -0.000916  0.000360
    23 C     0.002972 -0.001101 -0.001528
    24 H    -0.000147  0.000186 -0.000614
    25 C     0.001502  0.000399 -0.001779
    26 H     0.000881 -0.000423  0.000027
    27 H    -0.000823 -0.000355 -0.000234
    28 C    -0.001027 -0.001030  0.000718
    29 C     0.000050  0.000141  0.002160
    30 H    -0.000047  0.000212 -0.000140
    31 H    -0.000588 -0.000278 -0.000007
    32 C    -0.002077 -0.000384 -0.000757
    33 C    -0.000719  0.000511  0.001020
    34 C     0.000070 -0.000257 -0.000113
    35 C    -0.000210  0.000173  0.000359
    36 C     0.000293 -0.000051 -0.000781
    37 C     0.000321  0.000356  0.000190
    38 H     0.000310 -0.000159 -0.000059
    39 H    -0.000062 -0.000021  0.000083
    40 H     0.000156 -0.000034  0.000153
    41 H    -0.000073 -0.000087  0.000107
    42 C     0.000373 -0.002317 -0.000513
 ----------------------------------------
 Mulliken charges used for AMS results%charges...

 dE(predicted):    -0.26293E-03, dE(actual):    -0.35613E-03, Trust radius:    0.176836, all in a.u.
 
----------------------------------------------------------------------
Geometry Convergence after Step  13       (Hartree/Angstrom,Angstrom)
----------------------------------------------------------------------
current energy                               -8.71405865 Hartree
energy change                      -0.00035613     0.00042000    T
constrained gradient max            0.00296937     0.00100000    F
constrained gradient rms            0.00083939     0.00066667    F
gradient max                        0.00296937
gradient rms                        0.00083939
cart. step max                      0.05415357     0.01000000    F
cart. step rms                      0.01363280     0.00666667    F
 
 
--------
Geometry
--------
Formula: C15H24N2O
Atoms
  Index Symbol   x (angstrom)   y (angstrom)   z (angstrom)
      1      C    -1.06238411    -2.24897741    -4.18569048
      2      H    -2.06935089    -1.85632359    -4.37229733
      3      H    -1.10624641    -3.33654462    -4.30682860
      4      H    -0.39984448    -1.84260477    -4.96049244
      5      H    -0.41536410     0.03844424    -1.66068511
      6      C    -0.77769744    -0.31605037    -2.63027069
      7      H    -0.22920390     0.22357776    -3.41215267
      8      H    -1.83874802    -0.05211953    -2.71738474
      9      C    -1.45443664    -2.55354809    -1.72437692
     10      H    -1.33623989    -3.64239044    -1.76414682
     11      H    -2.51535136    -2.33455730    -1.89812109
     12      H    -1.21413515    -2.21136168    -0.71169120
     13      H     2.42138498    -3.71858118    -2.76280187
     14      H     0.84042449    -4.33136985    -2.24098569
     15      H     1.11138312    -3.89722261    -3.93838082
     16      H     5.33335971     0.72972899     2.01217574
     17      H     4.17921687    -0.48297545     2.59751197
     18      H     5.34664727    -0.92501419     1.34237030
     19      N     2.89309308    -0.82104257     0.20755955
     20      C     2.47519296    -0.91872244    -1.12118720
     21      O     3.01693513    -0.31618407    -2.04257455
     22      N     1.41088767    -1.77985957    -1.28673684
     23      C     3.74163536     0.31154691     0.60320825
     24      H     2.16318523    -1.02355825     0.88589943
     25      C     0.93245884    -2.16887105    -2.60999926
     26      H     1.24657886    -2.44494143    -0.53989680
     27      H     4.32398651     0.54922244    -0.29222900
     28      C     1.33940811    -3.61693827    -2.90609566
     29      C     4.70628446    -0.11597442     1.71011642
     30      H     3.17987839     2.43002996    -0.98714666
     31      H     1.47772494    -1.51821052    -3.30309379
     32      C     2.89895935     1.53487523     0.94649003
     33      C     2.26301685     1.67727056     2.18464378
     34      C     1.45590993     2.78030817     2.45180286
     35      C     1.27394926     3.76626892     1.48585054
     36      C     1.90354175     3.63821454     0.25111569
     37      C     2.70697165     2.53256240    -0.01431141
     38      H     2.40088902     0.93139388     2.96243896
     39      H     0.97383313     2.87388284     3.42266728
     40      H     0.64758603     4.63022866     1.69584545
     41      H     1.76878710     4.40225745    -0.51118133
     42      C    -0.59170949    -1.83774061    -2.77892074
 
Total System Charge             0.00000
Bonding info available!
 
 *** GO1_GOStep14 ***
