

 Parallel Execution: Process Information
 ==============================================================================
 Rank   Node Name                              NodeID   MyNodeRank  NodeMaster
    0   DESKTOP-1M8FOJT                           0          0          0
    1   DESKTOP-1M8FOJT                           0          1         -1
    2   DESKTOP-1M8FOJT                           0          2         -1
    3   DESKTOP-1M8FOJT                           0          3         -1
 ==============================================================================


May use up to 4096MB of RAM as shared memory on node 0

 *******************************************************************************
 *                                                                             *
 *  --------------------------------                                           *
 *   Amsterdam Modeling Suite (AMS)              2022.101                      *
 *  --------------------------------                                           *
 *                                               r100871 2022-01-28            *
 *                                                                             *
 *                                                                             *
 *                              =================                              *
 *                              |               |                              *
 *                              |     A M S     |                              *
 *                              |               |                              *
 *                              =================                              *
 *                                                                             *
 *                                                                             *
 *   Online information and documentation:  https://www.scm.com/support/       *
 *   E-mail:  support@scm.com   info@scm.com                                   *
 *                                                                             *
 *   Scientific publications using AMS results must be properly referenced     *
 *   See the User Manuals (or the web site) for recommended citations          *
 *   The terms and conditions of the End User License Agreement apply to       *
 *   the use of AMS, https://www.scm.com/license-terms/                        *
 *                                                                             *
 *********************  x86_64_windows_intel / intelmpi  ***********************
 
 Licensed to: Mr. Yuman Hordijk / SCM / Amsterdam / Netherlands 2022-01-24 11:07:43
 SCM User ID: u24430
  
 AMS 2022.101  RunTime: Feb01-2022 10:53:46  ShM Nodes: 1  Procs: 4

 AMS jobname: ams
 AMS jobid  : 652282761

 Start   directory: Z:/SCMTMP/user/
 Results directory: Z:/SCMTMP/user/ams.results/
 Scratch directory: Z:/SCMTMP/amstmp_ams_kid0.652282761/


 Communication costs MPI_COMM_WORLD:      1.613 usec per message,   0.0049 usec per 8-byte item
 Communication costs for intra-node:      1.620 usec per message,   0.0043 usec per 8-byte item

 RNG seed: -1273581172 -1144318611 597644989 345018596 -683645074 -1849943515 -432520477 -1776697384
       ***************************
       *  GEOMETRY OPTIMIZATION  *
       ***************************

Optimization Method                    Quasi Newton
Optimization Coordinates               Delocalized Coordinates
Optimize lattice                       F
 
 ------------------------------------------------------
 Convergence criteria (Hartree,Angstrom)
 ------------------------------------------------------
 Maximum gradient               0.001000000000
 Maximum rms gradient           0.000666666667
 Maximum step allowed           0.010000000000
 Maximum rms step allowed       0.006666666667
 Maximum energy change allowe   0.000640000000
 Maximum stress energy allowe   0.000500000000
 
Initial model Hessian                  Automatic Hessian
 
------------------------------------
Quasi-Newton Optimizer Parameters
------------------------------------
Hessian Update Method                  BFGS
Maximum number of steps                  384
First GDIIS cycle                          0
Maximum GDIIS vectors                      0
Trust radius (bohr)                        0.200000
Trust radius varies                        T
Constraints converged at all steps         T
Use projector                              T
 
 Rigid motions settings for: old optimizer
 Atomic rotations (x,y,z):     T T T
 Atomic translations (x,y,z):  T T T
 Tolerance:                   1.000000000000000E-006
 
--------
Geometry
--------
Formula: C25H35N2O2
Atoms
  Index Symbol   x (angstrom)   y (angstrom)   z (angstrom)
      1      C    -2.08671170     1.11875890     0.81625271
      2      C    -0.88406070     0.26076410     0.69011092
      3      C    -0.56631761    -0.75740200     1.61700486
      4      O     0.40389309    -1.51617747     1.50221588
      5      H     1.08787699    -4.37601853    -3.19144903
      6      H    -2.57159392     0.92485617     1.78324073
      7      H    -0.22425501     0.41433300    -0.15673419
      8      H    -1.23710114    -0.85364344     2.45794899
      9      H     5.51021445     0.71198152     1.48956103
     10      H     4.41306713    -0.53940717     2.09158199
     11      H     0.65027106    -4.17743034    -1.48946778
     12      H     5.29548853    -0.80282828     0.58307495
     13      C    -3.11218173     0.80191607    -0.29541151
     14      H    -2.67278771     0.95099726    -1.28035037
     15      H     2.27931591    -3.77400204    -2.03813225
     16      H    -1.57700366    -1.76660012    -1.07122190
     17      H    -3.97480990     1.45906162    -0.18804709
     18      H    -3.44019934    -0.23279598    -0.20631851
     19      N     2.67336962    -0.43156947    -0.03457823
     20      C     2.27954423    -0.66164484    -1.34207362
     21      O     2.93629329    -0.13787557    -2.46204970
     22      N     1.13822630    -1.45998204    -1.41238897
     23      C     3.64347088     0.58400346     0.36825145
     24      H     2.12612218    -0.85272496     0.70451697
     25      C     0.81518437    -2.27692824    -2.58587946
     26      H     0.86729524    -1.88084254    -0.53391788
     27      H     4.06205997     0.96444779    -0.56590468
     28      C     1.22139775    -3.73796902    -2.31482906
     29      C     4.78301064    -0.04788849     1.18595117
     30      H     3.11746163     3.07673190    -0.60143565
     31      H     1.44967394    -1.89119184    -3.38859509
     32      C     2.95973071     1.75220900     1.08890153
     33      C     2.49014969     1.64363479     2.40644043
     34      C     1.84632567     2.71049433     3.03167271
     35      C     1.66180539     3.91604031     2.35413771
     36      C     2.12518071     4.04017096     1.04508375
     37      C     2.76500037     2.96795214     0.42187040
     38      H     2.62117053     0.71801635     2.96128884
     39      H     1.49166502     2.60105731     4.05494079
     40      H     1.16571217     4.75107001     2.84445441
     41      H     1.99270632     4.97579762     0.50555405
     42      C    -0.67514354    -2.06266061    -3.05192856
     43      C    -0.96593998    -2.93517496    -4.29184740
     44      H    -1.93941866    -2.67051643    -4.71785558
     45      H    -0.99745061    -4.00167926    -4.05221250
     46      H    -0.21355334    -2.78573240    -5.07408656
     47      C    -0.85898304    -0.58230431    -3.44640796
     48      H    -0.18804102    -0.30403541    -4.26550655
     49      H    -1.88717738    -0.39951320    -3.77682042
     50      H    -0.64830911     0.08373594    -2.60629557
     51      C    -1.69265124    -2.41278851    -1.94538466
     52      H    -1.60952313    -3.45348543    -1.61607067
     53      H    -2.71420352    -2.27342134    -2.31563753
     54      C    -2.20451263     2.58039670     1.28671831
     55      C    -3.25596798     3.38201825     0.82506622
     56      C    -3.36309461     4.71121308     1.25290167
     57      C    -2.41876588     5.23878622     2.14238918
     58      C    -1.36731058     4.43716466     2.60404122
     59      C    -1.26018394     3.10796988     2.17620579
     60      H    -3.97746968     2.97893295     0.14546520
     61      H    -4.16644498     5.32368139     0.90018259
     62      H    -2.50061451     6.25433975     2.46927117
     63      H    -0.64580888     4.84024993     3.28364225
     64      H    -0.45683354     2.49550160     2.52892487
 
Total System Charge             0.00000
Bonding info available!
 
 
-------------------------
DFTB Engine configuration
-------------------------
DFTB Resources dir                     Z:/AMS2022.101/atomicdata/DFTB/GFN1-xTB
 
SCC convergence enabled.
Maximum SCC cycles                       500
SCC charge convergence                   0.000000010000
SCC charge mixing                        0.150000000000
DIIS max dimension                       20
DIIS maximum coeff.                     10.000000000000
Adaptive SCC charge mixing             T
Adaptive SCC mixing strategy              3
Spin polarization                      F
Orbital-dependent SCC                  T
Orbital fill strategy                  Fermi
Fermi temperature (kelvin)                     300.0000
  ... kT (Hartree)                               0.0010
Use of symmetry                        T
Radial function extrapolation method   Auto

 Settings for Grimme D3 dispersion correction

      damping                        BJ
      s6                          1.000
      s8                          2.400
      a1                          0.630
      a2                          5.000

 Other (technical) parameters

      alpha                      14.000
      version                         4
 

---------------------
Periodic DFTB options
---------------------
 kpoints config
 grid method with params
Assume insulator                        F
Ewald tolerance                    1.00E-10
Ewald range factor                  2.00

 BZStruct config
 ---------------
 Enabled        T
 Automatic      T
 CalcFatBands   T
 useSymmetry    T
 deltaK          0.100000000000000     
 
 Using automatic Hessian for delocalized coordinates.
 
----------------------------------------------------------------------
Geometry Convergence after Step   1       (Hartree/Angstrom,Angstrom)
----------------------------------------------------------------------
current energy                              -87.41838665 Hartree
energy change                     -87.41838665     0.00064000    F
constrained gradient max            0.23871998     0.00100000    F
constrained gradient rms            0.02952758     0.00066667    F
gradient max                        0.23871998
gradient rms                        0.02952758
cart. step max                      0.11251201     0.01000000    F
cart. step rms                      0.02497564     0.00666667    F
 
 
--------
Geometry
--------
Formula: C25H35N2O2
Atoms
  Index Symbol   x (angstrom)   y (angstrom)   z (angstrom)
      1      C    -2.12105645     1.10830202     0.81518365
      2      C    -0.90649506     0.27536411     0.69613334
      3      C    -0.58127518    -0.73224234     1.63299604
      4      O     0.39138437    -1.49050908     1.52480755
      5      H     1.09771616    -4.34336136    -3.19337181
      6      H    -2.61006079     0.89684185     1.78307307
      7      H    -0.24944992     0.42995754    -0.15298804
      8      H    -1.25791166    -0.82564079     2.48046536
      9      H     5.49914831     0.70871260     1.45300873
     10      H     4.40294870    -0.53447493     2.07268927
     11      H     0.64778415    -4.16330894    -1.49216984
     12      H     5.27687483    -0.81310155     0.56261269
     13      C    -3.12153442     0.73069099    -0.30180921
     14      H    -2.67304006     0.87202554    -1.28422833
     15      H     2.28109276    -3.75628064    -2.02392233
     16      H    -1.55560393    -1.76396118    -1.05814908
     17      H    -4.01290985     1.34654961    -0.23118687
     18      H    -3.40971563    -0.31376588    -0.19068892
     19      N     2.65803374    -0.43711521    -0.03109811
     20      C     2.26102855    -0.67194849    -1.31562967
     21      O     2.88213236    -0.18280779    -2.37737597
     22      N     1.13159790    -1.45576267    -1.38735825
     23      C     3.63166640     0.57385741     0.34796220
     24      H     2.11432515    -0.84702073     0.71633889
     25      C     0.82389757    -2.25955126    -2.56780053
     26      H     0.85739260    -1.87467844    -0.50749897
     27      H     4.04757513     0.94602313    -0.59377691
     28      C     1.22638541    -3.71899303    -2.30783218
     29      C     4.77129100    -0.05311088     1.16249604
     30      H     3.10138696     3.05726484    -0.63094967
     31      H     1.46592195    -1.86553098    -3.36359109
     32      C     2.95176893     1.73947833     1.06088444
     33      C     2.49207591     1.62609183     2.37599567
     34      C     1.85314093     2.68879906     3.00349829
     35      C     1.66574679     3.89228669     2.32887899
     36      C     2.12085140     4.01707431     1.02000810
     37      C     2.75385375     2.94868034     0.39298790
     38      H     2.62880676     0.69999020     2.92712495
     39      H     1.50653282     2.57920462     4.02801477
     40      H     1.17809992     4.72681691     2.82219506
     41      H     1.98803483     4.95298029     0.48386116
     42      C    -0.65589712    -2.04006155    -3.03588349
     43      C    -0.94261164    -2.89665388    -4.28369888
     44      H    -1.91329905    -2.62527747    -4.70876596
     45      H    -0.97532167    -3.96382213    -4.05235721
     46      H    -0.18639884    -2.73816669    -5.05829458
     47      C    -0.83360497    -0.55776737    -3.41339939
     48      H    -0.15824150    -0.27496898    -4.22550228
     49      H    -1.85885629    -0.36902817    -3.74484093
     50      H    -0.62337210     0.09438384    -2.56320173
     51      C    -1.67371836    -2.40082378    -1.93800657
     52      H    -1.58853782    -3.44430530    -1.62280226
     53      H    -2.69275212    -2.25605103    -2.30956845
     54      C    -2.22559860     2.58585214     1.27745226
     55      C    -3.26279134     3.41174697     0.82801316
     56      C    -3.34727622     4.73366044     1.25801379
     57      C    -2.39953059     5.24266477     2.13957023
     58      C    -1.36121951     4.43229061     2.59391686
     59      C    -1.27090374     3.10543022     2.16299040
     60      H    -4.00263154     3.03557753     0.15024863
     61      H    -4.14706352     5.36036317     0.90876308
     62      H    -2.46842738     6.26241194     2.47098062
     63      H    -0.63241212     4.83013742     3.27398554
     64      H    -0.47071745     2.48063199     2.51262255
 
Total System Charge             0.00000
Bonding info available!
 

 dE(predicted):    -0.30326E-01, dE(actual):    -0.32039E-01, Trust radius:    0.400000, all in a.u.
 
----------------------------------------------------------------------
Geometry Convergence after Step   2       (Hartree/Angstrom,Angstrom)
----------------------------------------------------------------------
current energy                              -87.45042613 Hartree
energy change                      -0.03203948     0.00064000    F
constrained gradient max            0.17353549     0.00100000    F
constrained gradient rms            0.02338276     0.00066667    F
gradient max                        0.17353549
gradient rms                        0.02338276
cart. step max                      0.15472347     0.01000000    F
cart. step rms                      0.03989848     0.00666667    F
 
 
--------
Geometry
--------
Formula: C25H35N2O2
Atoms
  Index Symbol   x (angstrom)   y (angstrom)   z (angstrom)
      1      C    -2.20048285     1.09913392     0.86223085
      2      C    -0.96713378     0.30741048     0.72915461
      3      C    -0.62701200    -0.70473192     1.65667940
      4      O     0.34852073    -1.46021399     1.54920585
      5      H     1.14787584    -4.29268490    -3.21294316
      6      H    -2.69171681     0.80988877     1.82061575
      7      H    -0.31609637     0.48477790    -0.12039963
      8      H    -1.31188961    -0.80747035     2.51652200
      9      H     5.48124863     0.70145181     1.38884952
     10      H     4.38608023    -0.52240566     2.04869131
     11      H     0.66047337    -4.15241620    -1.51664874
     12      H     5.24325436    -0.83743506     0.53677040
     13      C    -3.20599289     0.75359841    -0.25549041
     14      H    -2.76297352     0.92148827    -1.23697697
     15      H     2.30294581    -3.72742035    -2.00362825
     16      H    -1.50733749    -1.80606218    -1.06159640
     17      H    -4.10091874     1.36282605    -0.16874660
     18      H    -3.48910486    -0.29381245    -0.16706757
     19      N     2.62721322    -0.45367831    -0.01534989
     20      C     2.23534561    -0.68987037    -1.28396721
     21      O     2.78737470    -0.26542425    -2.22265250
     22      N     1.11639461    -1.46344974    -1.35425159
     23      C     3.61100694     0.54976883     0.31671996
     24      H     2.08279807    -0.84839737     0.74179641
     25      C     0.85177891    -2.24171470    -2.55185287
     26      H     0.83178223    -1.87969401    -0.47413082
     27      H     4.01950605     0.90094619    -0.64210833
     28      C     1.25646056    -3.69564680    -2.30895858
     29      C     4.75188932    -0.06519700     1.12809992
     30      H     3.06881546     3.00636591    -0.69320151
     31      H     1.51049932    -1.82521947    -3.32851342
     32      C     2.94272408     1.71519379     1.01598862
     33      C     2.50703109     1.60657114     2.33364388
     34      C     1.88284940     2.67335418     2.95998657
     35      C     1.68668559     3.86688989     2.27625564
     36      C     2.11829815     3.97887437     0.96232447
     37      C     2.73694806     2.90896140     0.33519696
     38      H     2.65487627     0.68417818     2.88541923
     39      H     1.55625623     2.57603266     3.98990636
     40      H     1.21937018     4.70789969     2.76723303
     41      H     1.97939049     4.90952406     0.42294721
     42      C    -0.60700193    -2.02795992    -3.03160521
     43      C    -0.87282761    -2.85427583    -4.29770194
     44      H    -1.83946566    -2.57930856    -4.72392690
     45      H    -0.89697194    -3.92300112    -4.08295421
     46      H    -0.10719040    -2.66873778    -5.05272801
     47      C    -0.78491181    -0.54249497    -3.37440186
     48      H    -0.09946364    -0.24466961    -4.16913297
     49      H    -1.80477779    -0.34980482    -3.71130103
     50      H    -0.58407756     0.08092987    -2.50237521
     51      C    -1.62417737    -2.42329642    -1.95371649
     52      H    -1.52149541    -3.47124513    -1.66895453
     53      H    -2.63938514    -2.27850706    -2.32883493
     54      C    -2.24783309     2.58906904     1.29975653
     55      C    -3.26993280     3.41790444     0.85106707
     56      C    -3.33098264     4.73828480     1.26234164
     57      C    -2.37394921     5.24304390     2.12419882
     58      C    -1.34676076     4.42899114     2.57571646
     59      C    -1.27704017     3.10477375     2.16044343
     60      H    -4.03239738     3.04449019     0.18240654
     61      H    -4.13341082     5.37355879     0.90865329
     62      H    -2.42696533     6.27541965     2.44752886
     63      H    -0.60679922     4.83199228     3.25043285
     64      H    -0.47895731     2.46470326     2.50936012
 
Total System Charge             0.00000
Bonding info available!
 

 dE(predicted):    -0.34780E-01, dE(actual):    -0.20200E-01, Trust radius:    0.400000, all in a.u.
 
----------------------------------------------------------------------
Geometry Convergence after Step   3       (Hartree/Angstrom,Angstrom)
----------------------------------------------------------------------
current energy                              -87.47062598 Hartree
energy change                      -0.02019985     0.00064000    F
constrained gradient max            0.13570271     0.00100000    F
constrained gradient rms            0.01717515     0.00066667    F
gradient max                        0.13570271
gradient rms                        0.01717515
cart. step max                      0.20341471     0.01000000    F
cart. step rms                      0.05225928     0.00666667    F
 
 
--------
Geometry
--------
Formula: C25H35N2O2
Atoms
  Index Symbol   x (angstrom)   y (angstrom)   z (angstrom)
      1      C    -2.24327176     1.06637352     0.84806153
      2      C    -0.95680321     0.35687466     0.74772399
      3      C    -0.60070693    -0.65216090     1.67206695
      4      O     0.37835311    -1.40139942     1.56234048
      5      H     1.08228012    -4.26960241    -3.20517135
      6      H    -2.76581854     0.69301019     1.75999090
      7      H    -0.30146389     0.56201828    -0.09221172
      8      H    -1.29193763    -0.77151115     2.52685311
      9      H     5.51491294     0.70779773     1.38432773
     10      H     4.41377086    -0.51997650     2.03262590
     11      H     0.62929529    -4.11933770    -1.49815250
     12      H     5.28597107    -0.82966674     0.52640350
     13      C    -3.14000427     0.63760626    -0.33133351
     14      H    -2.64297339     0.82964201    -1.28236097
     15      H     2.27145826    -3.72493791    -2.01730870
     16      H    -1.44692430    -1.76193408    -0.97159931
     17      H    -4.09196691     1.15941134    -0.32173852
     18      H    -3.33715170    -0.42983547    -0.24727095
     19      N     2.66165377    -0.44219378    -0.02139893
     20      C     2.26474954    -0.67445988    -1.30617369
     21      O     2.83455399    -0.23601700    -2.29748895
     22      N     1.12467308    -1.44736268    -1.34460132
     23      C     3.65528320     0.55701290     0.29836221
     24      H     2.11466243    -0.82103416     0.74115613
     25      C     0.83542906    -2.21698369    -2.54245628
     26      H     0.84371729    -1.85555252    -0.45949269
     27      H     4.06597367     0.91306884    -0.65803827
     28      C     1.21999830    -3.67726146    -2.30215377
     29      C     4.78978180    -0.06064858     1.11761727
     30      H     3.09217820     3.02338609    -0.67841496
     31      H     1.48336390    -1.80814699    -3.33253266
     32      C     2.96291757     1.70142468     1.00906809
     33      C     2.50854315     1.55881641     2.31911574
     34      C     1.86340373     2.60772853     2.95786478
     35      C     1.66412395     3.81072209     2.29095071
     36      C     2.11142963     3.95435044     0.98495864
     37      C     2.74785553     2.90286913     0.34332678
     38      H     2.65955708     0.62640742     2.85256146
     39      H     1.52991188     2.49101644     3.98350756
     40      H     1.20011593     4.64546940     2.79558539
     41      H     1.97336970     4.89621001     0.46503886
     42      C    -0.63359110    -1.98247925    -2.97583522
     43      C    -0.95226446    -2.79651526    -4.23803017
     44      H    -1.92851277    -2.50550980    -4.62979777
     45      H    -0.98184560    -3.86525137    -4.02490062
     46      H    -0.20658261    -2.61509223    -5.01347509
     47      C    -0.79518693    -0.49020424    -3.29809160
     48      H    -0.12979608    -0.19970162    -4.11210801
     49      H    -1.82211531    -0.27439959    -3.59673321
     50      H    -0.55120000     0.11583139    -2.42489966
     51      C    -1.61422705    -2.37044061    -1.86154413
     52      H    -1.50989649    -3.42140069    -1.58982844
     53      H    -2.64098309    -2.20802603    -2.19497043
     54      C    -2.27924468     2.57234703     1.22586849
     55      C    -3.26792271     3.43374042     0.75750414
     56      C    -3.31642002     4.75223291     1.18711617
     57      C    -2.37777325     5.22684425     2.08830444
     58      C    -1.37946408     4.38137843     2.54819967
     59      C    -1.31752779     3.06678539     2.10686132
     60      H    -4.02732571     3.09529438     0.06689507
     61      H    -4.09787254     5.40661497     0.81947114
     62      H    -2.42130619     6.25395619     2.43126088
     63      H    -0.65484279     4.75932546     3.25433156
     64      H    -0.54010467     2.40552725     2.46481863
 
Total System Charge             0.00000
Bonding info available!
 

 dE(predicted):    -0.16364E-01, dE(actual):    -0.14353E-01, Trust radius:    0.800000, all in a.u.
 
----------------------------------------------------------------------
Geometry Convergence after Step   4       (Hartree/Angstrom,Angstrom)
----------------------------------------------------------------------
current energy                              -87.48497908 Hartree
energy change                      -0.01435310     0.00064000    F
constrained gradient max            0.04797782     0.00100000    F
constrained gradient rms            0.00683629     0.00066667    F
gradient max                        0.04797782
gradient rms                        0.00683629
cart. step max                      0.21323216     0.01000000    F
cart. step rms                      0.06554374     0.00666667    F
 
 
--------
Geometry
--------
Formula: C25H35N2O2
Atoms
  Index Symbol   x (angstrom)   y (angstrom)   z (angstrom)
      1      C    -2.32506816     1.13016789     0.92106136
      2      C    -1.01822879     0.45502139     0.79817871
      3      C    -0.66628957    -0.61196629     1.65770815
      4      O     0.32435311    -1.34377352     1.52969255
      5      H     1.19347566    -4.31339575    -3.16635599
      6      H    -2.87605747     0.70298242     1.79013982
      7      H    -0.35722805     0.71900863    -0.02043511
      8      H    -1.35533124    -0.76791134     2.51137629
      9      H     5.50188651     0.71286552     1.30307913
     10      H     4.40490917    -0.51692381     1.95722624
     11      H     0.69481126    -4.14083633    -1.47340093
     12      H     5.24852847    -0.81270582     0.43158018
     13      C    -3.16008070     0.77975459    -0.32675711
     14      H    -2.62368409     1.04287416    -1.23860259
     15      H     2.33491612    -3.70171895    -1.96370298
     16      H    -1.45613189    -1.88911300    -1.03241821
     17      H    -4.11946492     1.28897115    -0.32393889
     18      H    -3.34694406    -0.29274766    -0.32662959
     19      N     2.61402722    -0.40568832    -0.05096439
     20      C     2.21808752    -0.64888044    -1.33541496
     21      O     2.79044707    -0.22318623    -2.32763300
     22      N     1.09958430    -1.45687858    -1.36910561
     23      C     3.62249631     0.58556761     0.25161995
     24      H     2.06364578    -0.76949784     0.71477951
     25      C     0.86033025    -2.25853109    -2.55801876
     26      H     0.81015327    -1.84775202    -0.47917740
     27      H     4.01396368     0.95031224    -0.70940136
     28      C     1.28971831    -3.69843196    -2.27331543
     29      C     4.76823111    -0.04903342     1.04206724
     30      H     3.05872041     3.07646944    -0.65964629
     31      H     1.51007461    -1.84469649    -3.34400526
     32      C     2.94747720     1.71704106     0.99881874
     33      C     2.50482644     1.54230131     2.30943965
     34      C     1.87972890     2.58108707     2.98450334
     35      C     1.67741880     3.79916025     2.34743736
     36      C     2.10542658     3.97181524     1.03875685
     37      C     2.72931886     2.93409019     0.36390958
     38      H     2.65049817     0.59336751     2.81377286
     39      H     1.56088411     2.44284212     4.01183779
     40      H     1.23809915     4.62886619     2.88153198
     41      H     1.95592727     4.92382913     0.54124680
     42      C    -0.60771842    -2.09195485    -3.02153349
     43      C    -0.86803769    -2.93288885    -4.27927752
     44      H    -1.84794831    -2.68819466    -4.69204391
     45      H    -0.85505142    -3.99857649    -4.05107508
     46      H    -0.11459879    -2.72815541    -5.04079930
     47      C    -0.82196452    -0.61094337    -3.36517815
     48      H    -0.15452952    -0.30644243    -4.17195919
     49      H    -1.85139114    -0.43800836    -3.68146592
     50      H    -0.61361787     0.01204114    -2.49502018
     51      C    -1.59082427    -2.50858197    -1.91983532
     52      H    -1.44867433    -3.55250743    -1.63975544
     53      H    -2.61721845    -2.38698532    -2.26987706
     54      C    -2.29413923     2.63719930     1.26776487
     55      C    -3.24470711     3.53562205     0.79275340
     56      C    -3.26699337     4.84631969     1.24971149
     57      C    -2.33889750     5.27511563     2.18486718
     58      C    -1.36780079     4.39406760     2.63652017
     59      C    -1.32850133     3.09094254     2.16490297
     60      H    -4.00037357     3.23333041     0.07972687
     61      H    -4.02268628     5.52936226     0.87785156
     62      H    -2.36522660     6.29414714     2.55474403
     63      H    -0.65473929     4.73057301     3.37616118
     64      H    -0.57355728     2.40184285     2.52200248
 
Total System Charge             0.00000
Bonding info available!
 

 dE(predicted):    -0.64616E-02, dE(actual):    -0.50486E-02, Trust radius:    0.800000, all in a.u.
 
----------------------------------------------------------------------
Geometry Convergence after Step   5       (Hartree/Angstrom,Angstrom)
----------------------------------------------------------------------
current energy                              -87.49002769 Hartree
energy change                      -0.00504861     0.00064000    F
constrained gradient max            0.03095684     0.00100000    F
constrained gradient rms            0.00444201     0.00066667    F
gradient max                        0.03095684
gradient rms                        0.00444201
cart. step max                      0.20821525     0.01000000    F
cart. step rms                      0.07032725     0.00666667    F
 
 
--------
Geometry
--------
Formula: C25H35N2O2
Atoms
  Index Symbol   x (angstrom)   y (angstrom)   z (angstrom)
      1      C    -2.32538360     1.04782554     0.90657321
      2      C    -0.98478250     0.42647115     0.83391433
      3      C    -0.63001610    -0.64471794     1.68662003
      4      O     0.37449869    -1.35720354     1.56372753
      5      H     1.07472976    -4.27549465    -3.22263303
      6      H    -2.90405908     0.59420829     1.73885100
      7      H    -0.30319422     0.72759298     0.04588531
      8      H    -1.35197134    -0.84804862     2.50444731
      9      H     5.54112688     0.75798539     1.29459888
     10      H     4.47000388    -0.48291046     1.97190473
     11      H     0.63500120    -4.14358197    -1.50932172
     12      H     5.31027406    -0.78310448     0.44502473
     13      C    -3.06978425     0.70062150    -0.39831146
     14      H    -2.49463190     1.01566995    -1.26906778
     15      H     2.27365769    -3.74464584    -2.03741639
     16      H    -1.41002437    -1.85348841    -0.91069917
     17      H    -4.05066724     1.16770742    -0.43452155
     18      H    -3.20755230    -0.37871446    -0.44132544
     19      N     2.66401910    -0.43174882    -0.02261899
     20      C     2.27191393    -0.69639557    -1.30438441
     21      O     2.81486975    -0.24711885    -2.29444031
     22      N     1.13621858    -1.48187078    -1.32960586
     23      C     3.65769058     0.58295686     0.25809031
     24      H     2.11171275    -0.78141074     0.74802456
     25      C     0.83253239    -2.23295077    -2.53709207
     26      H     0.85099190    -1.88048512    -0.44308741
     27      H     4.03389946     0.94128737    -0.71081749
     28      C     1.22024369    -3.69592084    -2.31277660
     29      C     4.82014329    -0.02084217     1.04920119
     30      H     3.05736119     3.05639294    -0.67323120
     31      H     1.46982741    -1.81431162    -3.33027486
     32      C     2.96575472     1.71018389     0.99710857
     33      C     2.51940051     1.53805795     2.30692275
     34      C     1.87687358     2.57281686     2.97207156
     35      C     1.65483310     3.78090335     2.32320846
     36      C     2.08108971     3.94929412     1.01350189
     37      C     2.72735384     2.91742423     0.35041321
     38      H     2.67612539     0.59457181     2.81763470
     39      H     1.55721448     2.43835028     3.99945412
     40      H     1.20805069     4.61127907     2.85074439
     41      H     1.91141892     4.89273393     0.50631827
     42      C    -0.64481310    -1.99940697    -2.93772272
     43      C    -0.97868810    -2.77483846    -4.22001828
     44      H    -1.96340242    -2.47997940    -4.58511534
     45      H    -0.99355599    -3.84902088    -4.03690465
     46      H    -0.24504238    -2.56145069    -4.99800755
     47      C    -0.81818064    -0.49737956    -3.20705344
     48      H    -0.17038340    -0.18071495    -4.02480007
     49      H    -1.85172100    -0.27410617    -3.47386132
     50      H    -0.55394065     0.07565657    -2.31795200
     51      C    -1.60368411    -2.42633387    -1.81810189
     52      H    -1.49308233    -3.48631286    -1.58994084
     53      H    -2.63586998    -2.24864427    -2.12317574
     54      C    -2.29278147     2.55799398     1.20281178
     55      C    -3.22321912     3.44677091     0.67548412
     56      C    -3.25613765     4.76774451     1.10239481
     57      C    -2.36461392     5.21273783     2.06602734
     58      C    -1.41026420     4.33915720     2.56675538
     59      C    -1.35510985     3.02841455     2.12083432
     60      H    -3.95334977     3.13050449    -0.05930432
     61      H    -3.99593139     5.44443604     0.68808746
     62      H    -2.40546612     6.23750216     2.41907347
     63      H    -0.72728256     4.68398550     3.33182059
     64      H    -0.61198451     2.34596582     2.51607937
 
Total System Charge             0.00000
Bonding info available!
 

 dE(predicted):    -0.49994E-02, dE(actual):    -0.20081E-02, Trust radius:    0.800000, all in a.u.
 
----------------------------------------------------------------------
Geometry Convergence after Step   6       (Hartree/Angstrom,Angstrom)
----------------------------------------------------------------------
current energy                              -87.49203575 Hartree
energy change                      -0.00200806     0.00064000    F
constrained gradient max            0.01686502     0.00100000    F
constrained gradient rms            0.00286554     0.00066667    F
gradient max                        0.01686502
gradient rms                        0.00286554
cart. step max                      0.21216422     0.01000000    F
cart. step rms                      0.05428341     0.00666667    F
 
 
--------
Geometry
--------
Formula: C25H35N2O2
Atoms
  Index Symbol   x (angstrom)   y (angstrom)   z (angstrom)
      1      C    -2.37025385     1.11147577     0.91835801
      2      C    -1.01978719     0.49802081     0.86684622
      3      C    -0.68810200    -0.62273894     1.66209242
      4      O     0.33000262    -1.31451248     1.53496785
      5      H     1.14142380    -4.33648500    -3.19106716
      6      H    -2.96761870     0.61852852     1.70602560
      7      H    -0.30999134     0.85460205     0.12900492
      8      H    -1.44452690    -0.88954127     2.43021877
      9      H     5.52833545     0.79918758     1.20912783
     10      H     4.48342417    -0.45564009     1.90293898
     11      H     0.67531036    -4.18481241    -1.48600478
     12      H     5.29123271    -0.73820131     0.35495952
     13      C    -3.06324749     0.82714290    -0.43009365
     14      H    -2.47864774     1.22783417    -1.25763635
     15      H     2.31376489    -3.76473064    -1.99804633
     16      H    -1.41397216    -1.94865297    -0.94332841
     17      H    -4.06238761     1.25646088    -0.45913216
     18      H    -3.15556610    -0.25090575    -0.55533513
     19      N     2.63025367    -0.41016426    -0.04510254
     20      C     2.24426908    -0.69697569    -1.32350415
     21      O     2.79849678    -0.27532754    -2.31768399
     22      N     1.12970716    -1.51152419    -1.34362965
     23      C     3.62185372     0.61416644     0.21654992
     24      H     2.07100653    -0.74175869     0.72883859
     25      C     0.85213502    -2.28756153    -2.54247148
     26      H     0.83480358    -1.89251329    -0.45326334
     27      H     3.96936767     0.98157115    -0.75867692
     28      C     1.26365699    -3.74027259    -2.28840658
     29      C     4.80872013     0.01528848     0.97601656
     30      H     3.00009199     3.10675125    -0.66189644
     31      H     1.49059007    -1.87077251    -3.33484568
     32      C     2.93853551     1.72803706     0.98407813
     33      C     2.51612995     1.53054151     2.29737295
     34      C     1.89158486     2.55359260     2.99517597
     35      C     1.65963033     3.77474176     2.37565556
     36      C     2.05534585     3.96851960     1.05974926
     37      C     2.68718881     2.94784031     0.36412517
     38      H     2.68257896     0.57743769     2.78643453
     39      H     1.59251477     2.39972841     4.02592454
     40      H     1.23187773     4.59746262     2.93174310
     41      H     1.87398245     4.92134800     0.57458984
     42      C    -0.62532185    -2.08828285    -2.96192520
     43      C    -0.92557323    -2.87936362    -4.24321273
     44      H    -1.91169173    -2.60903616    -4.62268134
     45      H    -0.91809211    -3.95215748    -4.05186208
     46      H    -0.18601543    -2.65475134    -5.01226121
     47      C    -0.82431168    -0.59114805    -3.24415931
     48      H    -0.17427404    -0.26897332    -4.05785422
     49      H    -1.85915626    -0.38858076    -3.52178783
     50      H    -0.57801207    -0.00859739    -2.35612469
     51      C    -1.59087135    -2.52569241    -1.85129558
     52      H    -1.46809583    -3.58344470    -1.61955512
     53      H    -2.62145889    -2.36274637    -2.16875612
     54      C    -2.30572741     2.60691938     1.24601018
     55      C    -3.20477569     3.52596364     0.71656372
     56      C    -3.20826019     4.84303825     1.15524991
     57      C    -2.32928082     5.25110267     2.14601496
     58      C    -1.40925627     4.34615872     2.65676297
     59      C    -1.37614784     3.03951201     2.19387871
     60      H    -3.92693139     3.23819451    -0.03817971
     61      H    -3.92097782     5.54384826     0.73353544
     62      H    -2.35596293     6.26996966     2.51645624
     63      H    -0.73781626     4.65764432     3.44701761
     64      H    -0.65744387     2.33528534     2.59752166
 
Total System Charge             0.00000
Bonding info available!
 

 dE(predicted):    -0.23275E-02, dE(actual):    -0.16631E-02, Trust radius:    0.800000, all in a.u.
 
----------------------------------------------------------------------
Geometry Convergence after Step   7       (Hartree/Angstrom,Angstrom)
----------------------------------------------------------------------
current energy                              -87.49369890 Hartree
energy change                      -0.00166315     0.00064000    F
constrained gradient max            0.01393600     0.00100000    F
constrained gradient rms            0.00204473     0.00066667    F
gradient max                        0.01393600
gradient rms                        0.00204473
cart. step max                      0.21061978     0.01000000    F
cart. step rms                      0.05376479     0.00666667    F
 
 
--------
Geometry
--------
Formula: C25H35N2O2
Atoms
  Index Symbol   x (angstrom)   y (angstrom)   z (angstrom)
      1      C    -2.38519934     1.16711049     0.87250891
      2      C    -1.03402330     0.54156747     0.87374115
      3      C    -0.74796089    -0.63213232     1.60581548
      4      O     0.29722531    -1.28697665     1.50766155
      5      H     1.17244010    -4.38060097    -3.19424455
      6      H    -3.01798286     0.64193348     1.60220114
      7      H    -0.27925736     0.94511549     0.20850676
      8      H    -1.53640184    -0.94459634     2.32319903
      9      H     5.51523127     0.86865860     1.12055536
     10      H     4.51229802    -0.40868400     1.83592117
     11      H     0.71832501    -4.23776223    -1.48491866
     12      H     5.28409383    -0.66905021     0.26546056
     13      C    -3.00532845     0.94850337    -0.52340463
     14      H    -2.40790894     1.43845395    -1.29102786
     15      H     2.34702588    -3.79538284    -2.00962278
     16      H    -1.39185326    -2.06982658    -0.91162461
     17      H    -4.02347329     1.33213546    -0.56105707
     18      H    -3.03900101    -0.12018502    -0.73240992
     19      N     2.60823989    -0.39379921    -0.06093969
     20      C     2.23248076    -0.71315759    -1.33422998
     21      O     2.78119481    -0.30065376    -2.33448483
     22      N     1.14242538    -1.55776383    -1.34305109
     23      C     3.58556557     0.65179205     0.17882410
     24      H     2.04077605    -0.70482137     0.71644452
     25      C     0.86131574    -2.33633154    -2.53952303
     26      H     0.84843930    -1.93072232    -0.45006444
     27      H     3.89849579     1.02952663    -0.80325864
     28      C     1.29435667    -3.78467900    -2.29117156
     29      C     4.80441114     0.07215499     0.90328930
     30      H     2.93402162     3.16295601    -0.64265675
     31      H     1.48518395    -1.91037930    -3.33773156
     32      C     2.90650684     1.74877211     0.97475381
     33      C     2.50902499     1.52281536     2.29040187
     34      C     1.89851143     2.52959574     3.02160403
     35      C     1.65583394     3.76473166     2.43579504
     36      C     2.02401398     3.98871810     1.11628663
     37      C     2.64197399     2.98227437     0.38589204
     38      H     2.68391979     0.55891992     2.75471257
     39      H     1.61671884     2.35187386     4.05341054
     40      H     1.23773873     4.57366729     3.02035795
     41      H     1.82966092     4.95089809     0.65530661
     42      C    -0.62425278    -2.15788636    -2.94180141
     43      C    -0.92006279    -2.93658413    -4.23185631
     44      H    -1.91546541    -2.68265986    -4.59789195
     45      H    -0.88658540    -4.01156519    -4.05589828
     46      H    -0.19265281    -2.68466558    -5.00397949
     47      C    -0.85473313    -0.66012894    -3.20022665
     48      H    -0.22012992    -0.31406779    -4.01627477
     49      H    -1.89635345    -0.47318857    -3.46290064
     50      H    -0.60900677    -0.08669167    -2.30609257
     51      C    -1.57242153    -2.62953359    -1.82950798
     52      H    -1.43548224    -3.69047877    -1.62132832
     53      H    -2.60782198    -2.47170835    -2.13303881
     54      C    -2.30504267     2.64205274     1.25517115
     55      C    -3.16188843     3.59301523     0.71223604
     56      C    -3.15205105     4.90046551     1.17600909
     57      C    -2.29944950     5.26906406     2.20376918
     58      C    -1.42333193     4.33258997     2.73563381
     59      C    -1.40463277     3.03163785     2.25170326
     60      H    -3.86291005     3.33413824    -0.07253283
     61      H    -3.83076252     5.62612287     0.74084028
     62      H    -2.31291400     6.28243032     2.58882839
     63      H    -0.77445439     4.60902043     3.55785809
     64      H    -0.71839388     2.30600289     2.67407807
 
Total System Charge             0.00000
Bonding info available!
 

 dE(predicted):    -0.16813E-02, dE(actual):    -0.12576E-02, Trust radius:    0.800000, all in a.u.
 
----------------------------------------------------------------------
Geometry Convergence after Step   8       (Hartree/Angstrom,Angstrom)
----------------------------------------------------------------------
current energy                              -87.49495651 Hartree
energy change                      -0.00125762     0.00064000    F
constrained gradient max            0.01242312     0.00100000    F
constrained gradient rms            0.00194811     0.00066667    F
gradient max                        0.01242312
gradient rms                        0.00194811
cart. step max                      0.21197707     0.01000000    F
cart. step rms                      0.05677909     0.00666667    F
 
 
--------
Geometry
--------
Formula: C25H35N2O2
Atoms
  Index Symbol   x (angstrom)   y (angstrom)   z (angstrom)
      1      C    -2.39381376     1.23185113     0.84187680
      2      C    -1.04629646     0.58938683     0.88656366
      3      C    -0.79760221    -0.62711508     1.55721227
      4      O     0.26270162    -1.26070999     1.47765541
      5      H     1.19260131    -4.45425380    -3.16874855
      6      H    -3.05556815     0.68428925     1.52244537
      7      H    -0.25099459     1.03616581     0.30048098
      8      H    -1.64302324    -1.02203874     2.15872540
      9      H     5.49118045     0.96397697     1.00633475
     10      H     4.55041159    -0.34435801     1.75012981
     11      H     0.73413341    -4.29891896    -1.46151968
     12      H     5.27361758    -0.57614370     0.15187539
     13      C    -2.95569942     1.07239138    -0.58641014
     14      H    -2.36649804     1.65043102    -1.29638885
     15      H     2.36332187    -3.85741267    -1.98577155
     16      H    -1.38402675    -2.15853670    -0.90789385
     17      H    -3.99411094     1.39947283    -0.62559447
     18      H    -2.91985849     0.02107250    -0.87015348
     19      N     2.58257327    -0.38069718    -0.08142067
     20      C     2.22137668    -0.74189899    -1.34753998
     21      O     2.76728013    -0.34380455    -2.35567504
     22      N     1.15811847    -1.61640722    -1.34154433
     23      C     3.53499807     0.69521270     0.13233831
     24      H     2.00757815    -0.67103193     0.69883498
     25      C     0.87613959    -2.40502195    -2.53047777
     26      H     0.85812076    -1.97530805    -0.44534468
     27      H     3.80267268     1.08607404    -0.85734234
     28      C     1.31131348    -3.85122054    -2.26983256
     29      C     4.79600309     0.14820934     0.81032959
     30      H     2.84680159     3.21996194    -0.62527435
     31      H     1.49926033    -1.98530143    -3.33182125
     32      C     2.85999202     1.77067476     0.96090016
     33      C     2.49439304     1.51646974     2.28053036
     34      C     1.90383882     2.50750687     3.04829427
     35      C     1.65037291     3.75656770     2.49808287
     36      C     1.98146237     4.00817659     1.17345412
     37      C     2.58082675     3.01714916     0.40627305
     38      H     2.68015414     0.54263699     2.71942757
     39      H     1.64538261     2.30668826     4.08212578
     40      H     1.24333548     4.55070013     3.11156508
     41      H     1.77562297     4.97971580     0.73805183
     42      C    -0.60975910    -2.23302371    -2.93734589
     43      C    -0.89439577    -3.01240453    -4.22965870
     44      H    -1.89067700    -2.76693810    -4.59899725
     45      H    -0.85165345    -4.08736797    -4.05508414
     46      H    -0.16637299    -2.75315993    -4.99882054
     47      C    -0.84642388    -0.73596737    -3.19776225
     48      H    -0.21064629    -0.38724560    -4.01182757
     49      H    -1.88799185    -0.55457610    -3.46439325
     50      H    -0.60660681    -0.16099944    -2.30303878
     51      C    -1.56282101    -2.71004832    -1.83095842
     52      H    -1.43154293    -3.77336630    -1.63088791
     53      H    -2.59635786    -2.54564226    -2.13722166
     54      C    -2.30785171     2.68435971     1.28140042
     55      C    -3.11979138     3.66882033     0.72815651
     56      C    -3.09106447     4.96675916     1.21596619
     57      C    -2.26371427     5.29313464     2.27785277
     58      C    -1.44068901     4.32116871     2.83052690
     59      C    -1.44193518     3.02715388     2.32513441
     60      H    -3.79852329     3.43930230    -0.08481567
     61      H    -3.73258965     5.71920961     0.77072097
     62      H    -2.25824147     6.30087887     2.67684521
     63      H    -0.81427363     4.56024670     3.68176042
     64      H    -0.79591065     2.27715416     2.76771976
 
Total System Charge             0.00000
Bonding info available!
 

 dE(predicted):    -0.14541E-02, dE(actual):    -0.10538E-02, Trust radius:    0.800000, all in a.u.
 
----------------------------------------------------------------------
Geometry Convergence after Step   9       (Hartree/Angstrom,Angstrom)
----------------------------------------------------------------------
current energy                              -87.49601034 Hartree
energy change                      -0.00105383     0.00064000    F
constrained gradient max            0.01363431     0.00100000    F
constrained gradient rms            0.00206749     0.00066667    F
gradient max                        0.01363431
gradient rms                        0.00206749
cart. step max                      0.21160599     0.01000000    F
cart. step rms                      0.07025588     0.00666667    F
 
 
--------
Geometry
--------
Formula: C25H35N2O2
Atoms
  Index Symbol   x (angstrom)   y (angstrom)   z (angstrom)
      1      C    -2.39850997     1.29552238     0.80859998
      2      C    -1.06258384     0.62743899     0.88722390
      3      C    -0.86195984    -0.64526943     1.45817751
      4      O     0.22276711    -1.24141739     1.43202412
      5      H     1.17156922    -4.57503811    -3.11947065
      6      H    -3.09421614     0.73797679     1.44520019
      7      H    -0.22586961     1.11485115     0.39782955
      8      H    -1.74183972    -1.09826953     1.95764174
      9      H     5.44687714     1.11808442     0.83263766
     10      H     4.61038159    -0.23263866     1.62371656
     11      H     0.70736773    -4.38724647    -1.41714203
     12      H     5.25657029    -0.43120427    -0.01231578
     13      C    -2.90815837     1.19578518    -0.64429171
     14      H    -2.34321145     1.86203702    -1.29374901
     15      H     2.34992483    -3.99232439    -1.93689865
     16      H    -1.35684724    -2.20343741    -0.89854608
     17      H    -3.96605105     1.45459149    -0.68552526
     18      H    -2.79201700     0.17218486    -0.99837415
     19      N     2.55217000    -0.36673212    -0.10672494
     20      C     2.22408348    -0.79997792    -1.35982405
     21      O     2.76407718    -0.41853610    -2.37925659
     22      N     1.19967108    -1.71441374    -1.32964966
     23      C     3.45953761     0.75512080     0.06540569
     24      H     1.96556754    -0.62744986     0.67463006
     25      C     0.90268603    -2.51019805    -2.50780754
     26      H     0.89113208    -2.05515614    -0.42963182
     27      H     3.65774302     1.16095603    -0.93459365
     28      C     1.30003213    -3.96379196    -2.22743874
     29      C     4.78167639     0.26995297     0.67268527
     30      H     2.72819685     3.29404064    -0.60376628
     31      H     1.53835398    -2.11667950    -3.31235856
     32      C     2.79061360     1.79925879     0.93751101
     33      C     2.46932737     1.50903632     2.26220923
     34      C     1.90358779     2.47821837     3.07645889
     35      C     1.63725706     3.74392910     2.57214843
     36      C     1.92116325     4.02976390     1.24324305
     37      C     2.49510267     3.06113757     0.42955011
     38      H     2.67095868     0.52389510     2.66818778
     39      H     1.67648794     2.24778375     4.11169632
     40      H     1.23829386     4.51620225     3.21910175
     41      H     1.70430283     5.01315520     0.84138541
     42      C    -0.57624641    -2.30252175    -2.92573921
     43      C    -0.87069365    -3.08174047    -4.21616056
     44      H    -1.86003432    -2.81771341    -4.59150679
     45      H    -0.85097956    -4.15684635    -4.03771056
     46      H    -0.13438542    -2.84104610    -4.98359808
     47      C    -0.77095756    -0.80127612    -3.19789778
     48      H    -0.11869687    -0.47452936    -4.00812359
     49      H    -1.80480554    -0.59556525    -3.47666977
     50      H    -0.52545202    -0.22574498    -2.30506323
     51      C    -1.55111074    -2.74534339    -1.82420490
     52      H    -1.46323324    -3.81379249    -1.62706271
     53      H    -2.57611317    -2.53973056    -2.13474739
     54      C    -2.31166761     2.72348424     1.30848967
     55      C    -3.06106715     3.74988243     0.74050772
     56      C    -3.00693133     5.03596867     1.25737482
     57      C    -2.22211017     5.30815000     2.36662500
     58      C    -1.47458124     4.29138891     2.94371798
     59      C    -1.49982063     3.00950459     2.40940461
     60      H    -3.70400189     3.55733623    -0.11004140
     61      H    -3.59673445     5.82210459     0.79981806
     62      H    -2.19566657     6.30703695     2.78623885
     63      H    -0.88085544     4.48406651     3.82959778
     64      H    -0.91181155     2.22783580     2.87687820
 
Total System Charge             0.00000
Bonding info available!
 

 dE(predicted):    -0.80603E-03, dE(actual):    -0.91090E-03, Trust radius:    0.800000, all in a.u.
 
----------------------------------------------------------------------
Geometry Convergence after Step  10       (Hartree/Angstrom,Angstrom)
----------------------------------------------------------------------
current energy                              -87.49692124 Hartree
energy change                      -0.00091090     0.00064000    F
constrained gradient max            0.01373426     0.00100000    F
constrained gradient rms            0.00199551     0.00066667    F
gradient max                        0.01373426
gradient rms                        0.00199551
cart. step max                      0.14772215     0.01000000    F
cart. step rms                      0.04836956     0.00666667    F
 
 
--------
Geometry
--------
Formula: C25H35N2O2
Atoms
  Index Symbol   x (angstrom)   y (angstrom)   z (angstrom)
      1      C    -2.37693536     1.32140429     0.76786139
      2      C    -1.04748615     0.64836491     0.87814679
      3      C    -0.87571261    -0.64645139     1.40573017
      4      O     0.21116632    -1.24196176     1.41586492
      5      H     1.12684099    -4.64309843    -3.08513576
      6      H    -3.09866098     0.76738546     1.38319005
      7      H    -0.18467480     1.15737284     0.46056895
      8      H    -1.78453595    -1.13301414     1.80991959
      9      H     5.41258591     1.23188004     0.69144330
     10      H     4.66176894    -0.14808481     1.51702809
     11      H     0.66683874    -4.43649274    -1.38414520
     12      H     5.23448267    -0.32125676    -0.14979434
     13      C    -2.85454807     1.23794993    -0.69737354
     14      H    -2.29702871     1.93365488    -1.32199134
     15      H     2.31981798    -4.08704513    -1.90420460
     16      H    -1.33248242    -2.22061201    -0.87205340
     17      H    -3.91847235     1.46733402    -0.75301286
     18      H    -2.70040333     0.22674513    -1.07110245
     19      N     2.52998751    -0.35042741    -0.11986977
     20      C     2.21193125    -0.82141136    -1.36325430
     21      O     2.74452048    -0.45231198    -2.39151796
     22      N     1.23017918    -1.77815934    -1.30779649
     23      C     3.40311442     0.80236050     0.02046959
     24      H     1.94464313    -0.60319736     0.66485165
     25      C     0.91278658    -2.56999239    -2.48132770
     26      H     0.92542107    -2.11205397    -0.40388670
     27      H     3.54244009     1.22403786    -0.98379056
     28      C     1.27122333    -4.03177452    -2.19570334
     29      C     4.77009814     0.36165700     0.56029057
     30      H     2.65780986     3.35124040    -0.57141565
     31      H     1.55704453    -2.19599425    -3.28899128
     32      C     2.74731995     1.81948668     0.93134556
     33      C     2.45075551     1.49757550     2.25506896
     34      C     1.89399288     2.44588036     3.10049536
     35      C     1.62173751     3.72431387     2.63154498
     36      C     1.88644233     4.04210972     1.30652895
     37      C     2.44642516     3.09400746     0.46096796
     38      H     2.65738009     0.50220819     2.63296583
     39      H     1.68021590     2.18933043     4.13243335
     40      H     1.22094160     4.47671850     3.30033217
     41      H     1.66307910     5.03442408     0.93084100
     42      C    -0.56085799    -2.32812218    -2.90143935
     43      C    -0.87102188    -3.10260549    -4.19082405
     44      H    -1.85750796    -2.82359660    -4.56318733
     45      H    -0.86732581    -4.17812403    -4.01340023
     46      H    -0.13400712    -2.87284180    -4.96097553
     47      C    -0.72717412    -0.82356082    -3.17419620
     48      H    -0.06202215    -0.50711650    -3.97802891
     49      H    -1.75476437    -0.60108233    -3.46339862
     50      H    -0.48229093    -0.25080238    -2.27943724
     51      C    -1.54354475    -2.75174306    -1.80026605
     52      H    -1.48355832    -3.82351806    -1.61019499
     53      H    -2.56397202    -2.51675897    -2.10577721
     54      C    -2.30290291     2.73991210     1.29629635
     55      C    -2.99683978     3.79608089     0.71084319
     56      C    -2.94250708     5.06842934     1.26242477
     57      C    -2.20131929     5.30089020     2.41191574
     58      C    -1.51212558     4.25276149     3.00432053
     59      C    -1.54808116     2.98376403     2.44334711
     60      H    -3.59978826     3.63336619    -0.17441838
     61      H    -3.48652819     5.87965178     0.79222203
     62      H    -2.16316951     6.29264495     2.84750687
     63      H    -0.94981509     4.41419893     3.91658904
     64      H    -1.00266655     2.17612076     2.91858233
 
Total System Charge             0.00000
Bonding info available!
 

 dE(predicted):    -0.45420E-03, dE(actual):    -0.61192E-03, Trust radius:    0.800000, all in a.u.
 
----------------------------------------------------------------------
Geometry Convergence after Step  11       (Hartree/Angstrom,Angstrom)
----------------------------------------------------------------------
current energy                              -87.49753316 Hartree
energy change                      -0.00061192     0.00064000    T
constrained gradient max            0.00772220     0.00100000    F
constrained gradient rms            0.00136816     0.00066667    F
gradient max                        0.00772220
gradient rms                        0.00136816
cart. step max                      0.21154871     0.01000000    F
cart. step rms                      0.06673934     0.00666667    F
 
 
--------
Geometry
--------
Formula: C25H35N2O2
Atoms
  Index Symbol   x (angstrom)   y (angstrom)   z (angstrom)
      1      C    -2.36190921     1.32954208     0.77452551
      2      C    -1.03734862     0.65677336     0.89160797
      3      C    -0.88269690    -0.65714540     1.37395405
      4      O     0.20293299    -1.25648950     1.41392737
      5      H     1.02778987    -4.75963202    -2.99091562
      6      H    -3.10161723     0.78041739     1.38054252
      7      H    -0.15933914     1.18575087     0.53512077
      8      H    -1.80781039    -1.16351067     1.70848988
      9      H     5.34308981     1.38252196     0.49734425
     10      H     4.70707678    -0.01855581     1.38169791
     11      H     0.53568297    -4.48766193    -1.30861418
     12      H     5.18782074    -0.18861287    -0.31549898
     13      C    -2.83051386     1.25783405    -0.69491425
     14      H    -2.27017620     1.95846525    -1.31194937
     15      H     2.22135700    -4.25580611    -1.78756415
     16      H    -1.32879771    -2.14926116    -0.90294287
     17      H    -3.89373784     1.48558783    -0.75819490
     18      H    -2.66931340     0.25090766    -1.07594966
     19      N     2.50023478    -0.34352723    -0.13254344
     20      C     2.21042969    -0.88031745    -1.35726112
     21      O     2.70342556    -0.50039162    -2.40384092
     22      N     1.27045485    -1.87334622    -1.26893600
     23      C     3.31901342     0.85228758    -0.04607285
     24      H     1.91825868    -0.58684843     0.65797586
     25      C     0.93206607    -2.66555335    -2.43440991
     26      H     0.95636468    -2.18710341    -0.36083990
     27      H     3.38216325     1.27845150    -1.05741107
     28      C     1.18696837    -4.13946745    -2.11040352
     29      C     4.73583061     0.48183216     0.41399984
     30      H     2.54773973     3.40460624    -0.56817865
     31      H     1.62043197    -2.35103588    -3.23207041
     32      C     2.67877810     1.84269160     0.90071379
     33      C     2.42619547     1.49596210     2.22712309
     34      C     1.89504779     2.42800820     3.10633468
     35      C     1.60593921     3.71424412     2.66893247
     36      C     1.82949882     4.05687442     1.34330591
     37      C     2.36525073     3.12616805     0.46439555
     38      H     2.65309235     0.49623111     2.58131657
     39      H     1.71413698     2.15214494     4.13944031
     40      H     1.21323398     4.44937032     3.36091543
     41      H     1.59564509     5.05615375     0.99281241
     42      C    -0.51043323    -2.33937515    -2.90635738
     43      C    -0.82966764    -3.11881514    -4.19015938
     44      H    -1.78824395    -2.79092728    -4.59465930
     45      H    -0.89310799    -4.18937512    -3.99515788
     46      H    -0.06067044    -2.94558497    -4.94370971
     47      C    -0.57262853    -0.83432938    -3.21403375
     48      H     0.14952655    -0.57396976    -3.98827661
     49      H    -1.56960339    -0.55918702    -3.55997245
     50      H    -0.34064454    -0.25629704    -2.31937722
     51      C    -1.55078399    -2.67797239    -1.82990319
     52      H    -1.57128852    -3.74849991    -1.62493844
     53      H    -2.54395562    -2.37678167    -2.16650507
     54      C    -2.29920983     2.74444543     1.32349803
     55      C    -2.93270285     3.82558703     0.71548341
     56      C    -2.86987549     5.08789235     1.28640453
     57      C    -2.17944730     5.28756004     2.47363771
     58      C    -1.55083352     4.21504795     3.08982043
     59      C    -1.60379908     2.95292444     2.51341690
     60      H    -3.48674667     3.69073729    -0.20553329
     61      H    -3.36543258     5.92064180     0.80025450
     62      H    -2.13352994     6.27495122     2.91849854
     63      H    -1.01845179     4.35322576     4.02370811
     64      H    -1.10289993     2.12159223     2.99792297
 
Total System Charge             0.00000
Bonding info available!
 

 dE(predicted):    -0.52890E-03, dE(actual):    -0.53259E-03, Trust radius:    0.800000, all in a.u.
 
----------------------------------------------------------------------
Geometry Convergence after Step  12       (Hartree/Angstrom,Angstrom)
----------------------------------------------------------------------
current energy                              -87.49806574 Hartree
energy change                      -0.00053259     0.00064000    T
constrained gradient max            0.00570481     0.00100000    F
constrained gradient rms            0.00120791     0.00066667    F
gradient max                        0.00570481
gradient rms                        0.00120791
cart. step max                      0.18773482     0.01000000    F
cart. step rms                      0.06058058     0.00666667    F
 
 
--------
Geometry
--------
Formula: C25H35N2O2
Atoms
  Index Symbol   x (angstrom)   y (angstrom)   z (angstrom)
      1      C    -2.31928529     1.30844358     0.73784732
      2      C    -1.00144021     0.63946741     0.88742546
      3      C    -0.86532048    -0.68278896     1.35209123
      4      O     0.21735666    -1.28294999     1.43148288
      5      H     0.92818036    -4.82293358    -2.92220630
      6      H    -3.08623609     0.76034628     1.31562481
      7      H    -0.11014770     1.17867841     0.58465600
      8      H    -1.80308235    -1.19100185     1.64813539
      9      H     5.27629861     1.51079513     0.30960942
     10      H     4.74482605     0.09793782     1.24323245
     11      H     0.44218390    -4.51029349    -1.24564730
     12      H     5.12591118    -0.07293582    -0.47993562
     13      C    -2.74240992     1.24956491    -0.74636336
     14      H    -2.13471203     1.92464920    -1.34776738
     15      H     2.13876638    -4.36442429    -1.71836117
     16      H    -1.30960502    -2.10162525    -0.87402258
     17      H    -3.79241378     1.51687045    -0.85048309
     18      H    -2.60312687     0.23600996    -1.11860982
     19      N     2.46694700    -0.32086067    -0.14292685
     20      C     2.16997510    -0.88681643    -1.35380444
     21      O     2.63374011    -0.51073214    -2.41551944
     22      N     1.30020572    -1.93634072    -1.22851433
     23      C     3.24165279     0.90553778    -0.10147596
     24      H     1.90440862    -0.57089611     0.66001328
     25      C     0.93044568    -2.72179292    -2.38796211
     26      H     1.00021296    -2.24156638    -0.31356192
     27      H     3.22933781     1.33676068    -1.11350331
     28      C     1.11270899    -4.20140851    -2.04783546
     29      C     4.69748073     0.58875657     0.27119061
     30      H     2.47586491     3.47282353    -0.53916787
     31      H     1.63675349    -2.44789481    -3.18590971
     32      C     2.63079994     1.87182952     0.88554969
     33      C     2.40770773     1.49206681     2.20814590
     34      C     1.88463690     2.39767532     3.11885772
     35      C     1.58181067     3.69258058     2.71874314
     36      C     1.78814999     4.07265912     1.40070543
     37      C     2.31149073     3.16691663     0.48870996
     38      H     2.64360472     0.48415649     2.53174888
     39      H     1.71847919     2.09330056     4.14623942
     40      H     1.18633885     4.40392695     3.43340398
     41      H     1.54616926     5.08031139     1.08062293
     42      C    -0.49274243    -2.32899756    -2.87245363
     43      C    -0.83719562    -3.09345394    -4.15850283
     44      H    -1.77942450    -2.72550652    -4.56707543
     45      H    -0.94637371    -4.16062828    -3.96573394
     46      H    -0.05821173    -2.95100830    -4.90824278
     47      C    -0.48425151    -0.82349903    -3.18012595
     48      H     0.27727059    -0.59144655    -3.92492723
     49      H    -1.45621700    -0.51034972    -3.56336258
     50      H    -0.26642601    -0.25322348    -2.27715955
     51      C    -1.55524020    -2.61605354    -1.80309838
     52      H    -1.63247693    -3.68439139    -1.60071894
     53      H    -2.53008431    -2.26268685    -2.14284660
     54      C    -2.27208481     2.72275497     1.30135395
     55      C    -2.83158558     3.82630703     0.66338794
     56      C    -2.77578756     5.07840108     1.25645102
     57      C    -2.16950293     5.24521338     2.49371517
     58      C    -1.60620744     4.15144113     3.13561159
     59      C    -1.65729600     2.89896259     2.53982729
     60      H    -3.31670438     3.72051468    -0.29938663
     61      H    -3.21815857     5.92999190     0.75129000
     62      H    -2.13554136     6.22587213     2.95464055
     63      H    -1.13011881     4.26195091     4.10300141
     64      H    -1.21204490     2.04708292     3.04392345
 
Total System Charge             0.00000
Bonding info available!
 

 dE(predicted):    -0.40440E-03, dE(actual):    -0.51518E-03, Trust radius:    0.800000, all in a.u.
 
----------------------------------------------------------------------
Geometry Convergence after Step  13       (Hartree/Angstrom,Angstrom)
----------------------------------------------------------------------
current energy                              -87.49858093 Hartree
energy change                      -0.00051518     0.00064000    T
constrained gradient max            0.01031540     0.00100000    F
constrained gradient rms            0.00138262     0.00066667    F
gradient max                        0.01031540
gradient rms                        0.00138262
cart. step max                      0.11112418     0.01000000    F
cart. step rms                      0.03002291     0.00666667    F
 
 
--------
Geometry
--------
Formula: C25H35N2O2
Atoms
  Index Symbol   x (angstrom)   y (angstrom)   z (angstrom)
      1      C    -2.28933207     1.28576448     0.72696357
      2      C    -0.97264425     0.61995622     0.88708350
      3      C    -0.83898393    -0.69328375     1.37982688
      4      O     0.23722100    -1.30450080     1.46130901
      5      H     0.87812767    -4.83229725    -2.89414343
      6      H    -3.05992396     0.73513686     1.29560557
      7      H    -0.08257606     1.15144892     0.56959771
      8      H    -1.77967529    -1.18219474     1.70316678
      9      H     5.24424672     1.56363057     0.23079339
     10      H     4.75595504     0.15083934     1.18839194
     11      H     0.39302240    -4.50049501    -1.22118585
     12      H     5.08960668    -0.02684387    -0.54409901
     13      C    -2.69724906     1.22668502    -0.76128440
     14      H    -2.03567378     1.84547348    -1.36704015
     15      H     2.09375605    -4.39245321    -1.68855350
     16      H    -1.32385688    -2.10167226    -0.87583564
     17      H    -3.72437252     1.56277071    -0.88876790
     18      H    -2.62224550     0.19792396    -1.11048235
     19      N     2.45086992    -0.30795747    -0.14124659
     20      C     2.14002687    -0.87457386    -1.34814058
     21      O     2.57119705    -0.48117133    -2.41736805
     22      N     1.30421144    -1.94934773    -1.21158011
     23      C     3.20541089     0.93211101    -0.11694134
     24      H     1.90736679    -0.57454031     0.67102237
     25      C     0.92147440    -2.72954951    -2.37183027
     26      H     1.00938694    -2.24734667    -0.29370612
     27      H     3.15799610     1.36456187    -1.12724960
     28      C     1.07242386    -4.20970423    -2.02259503
     29      C     4.67558829     0.63466729     0.21513357
     30      H     2.45061469     3.50509134    -0.51696087
     31      H     1.63685839    -2.47385367    -3.16783304
     32      C     2.61097697     1.88820178     0.88907590
     33      C     2.39856485     1.49514108     2.20960024
     34      C     1.88078440     2.39090943     3.13313665
     35      C     1.57479363     3.68941881     2.74794208
     36      C     1.77913119     4.08591729     1.43450466
     37      C     2.29365193     3.18909032     0.50887398
     38      H     2.63746462     0.48425772     2.52111377
     39      H     1.71956481     2.07548055     4.15788763
     40      H     1.17914685     4.39188840     3.47153032
     41      H     1.53463386     5.09696536     1.12738142
     42      C    -0.49447618    -2.32028337    -2.86840162
     43      C    -0.82861822    -3.08138301    -4.15904740
     44      H    -1.76737533    -2.71209501    -4.57416833
     45      H    -0.93929267    -4.14900383    -3.96964149
     46      H    -0.04320128    -2.93688636    -4.90156608
     47      C    -0.48316167    -0.81411021    -3.17249198
     48      H     0.30799493    -0.57474149    -3.88297399
     49      H    -1.44081101    -0.50699784    -3.59504132
     50      H    -0.30938493    -0.24339643    -2.26057597
     51      C    -1.56628476    -2.61007726    -1.80906462
     52      H    -1.64844791    -3.67909391    -1.61227894
     53      H    -2.53724907    -2.25186448    -2.15427863
     54      C    -2.24243541     2.70447495     1.28610808
     55      C    -2.75908915     3.81551869     0.62654023
     56      C    -2.71923759     5.06689983     1.22716984
     57      C    -2.15980816     5.22756182     2.48711295
     58      C    -1.63220815     4.12615692     3.14515646
     59      C    -1.67385894     2.87696164     2.54710586
     60      H    -3.20558020     3.72082323    -0.35589971
     61      H    -3.12867623     5.92435199     0.70400021
     62      H    -2.13154250     6.20788484     2.94941713
     63      H    -1.19422545     4.23115758     4.13089288
     64      H    -1.26231152     2.01864627     3.06885512
 
Total System Charge             0.00000
Bonding info available!
 

 dE(predicted):    -0.30728E-03, dE(actual):    -0.41542E-03, Trust radius:    0.800000, all in a.u.
 
----------------------------------------------------------------------
Geometry Convergence after Step  14       (Hartree/Angstrom,Angstrom)
----------------------------------------------------------------------
current energy                              -87.49899635 Hartree
energy change                      -0.00041542     0.00064000    T
constrained gradient max            0.00973448     0.00100000    F
constrained gradient rms            0.00126200     0.00066667    F
gradient max                        0.00973448
gradient rms                        0.00126200
cart. step max                      0.19886312     0.01000000    F
cart. step rms                      0.04941887     0.00666667    F
 
 
--------
Geometry
--------
Formula: C25H35N2O2
Atoms
  Index Symbol   x (angstrom)   y (angstrom)   z (angstrom)
      1      C    -2.26478701     1.29384602     0.69193605
      2      C    -0.95629230     0.61343662     0.86798762
      3      C    -0.83027727    -0.69258690     1.38090469
      4      O     0.24220778    -1.30746625     1.46932175
      5      H     0.85305310    -4.87323183    -2.83948713
      6      H    -3.04702637     0.73127214     1.22501593
      7      H    -0.06312108     1.13487648     0.54389184
      8      H    -1.77594799    -1.16854930     1.71439467
      9      H     5.17311791     1.66385417     0.11434866
     10      H     4.75387944     0.24485991     1.09602863
     11      H     0.38265633    -4.50647385    -1.16960369
     12      H     5.03149079     0.06549442    -0.64635496
     13      C    -2.63387440     1.27800222    -0.80645618
     14      H    -1.90104541     1.83610930    -1.38895990
     15      H     2.08095453    -4.42767974    -1.64914078
     16      H    -1.31195044    -2.14015451    -0.85529547
     17      H    -3.62239072     1.70694113    -0.95981724
     18      H    -2.64489827     0.24698254    -1.15767650
     19      N     2.42257891    -0.28459405    -0.16144323
     20      C     2.11152217    -0.86763425    -1.35969606
     21      O     2.51246338    -0.46670129    -2.43774392
     22      N     1.32050533    -1.97186436    -1.20329097
     23      C     3.13915693     0.97863928    -0.15720607
     24      H     1.89749071    -0.56410224     0.65954744
     25      C     0.92523024    -2.76192457    -2.35380163
     26      H     1.01927366    -2.24602436    -0.28089529
     27      H     3.04382761     1.41331603    -1.16229150
     28      C     1.05985322    -4.23767657    -1.98012163
     29      C     4.62807166     0.72071451     0.12393641
     30      H     2.37245309     3.56003096    -0.48656620
     31      H     1.64190451    -2.52662874    -3.15434603
     32      C     2.55419486     1.90956439     0.87766266
     33      C     2.36367716     1.48550969     2.19116722
     34      C     1.86156567     2.35870219     3.14371451
     35      C     1.54985778     3.66609056     2.79607008
     36      C     1.73283090     4.09543725     1.48948509
     37      C     2.23086923     3.22007968     0.53364572
     38      H     2.60941825     0.46827364     2.47522018
     39      H     1.71728033     2.01885469     4.16315537
     40      H     1.16561718     4.34950221     3.54456557
     41      H     1.48462946     5.11405886     1.21226165
     42      C    -0.48933758    -2.34455433    -2.85154534
     43      C    -0.82223878    -3.09932387    -4.14670434
     44      H    -1.76150767    -2.72947823    -4.55979617
     45      H    -0.93077986    -4.16818342    -3.96339318
     46      H    -0.03660858    -2.94887500    -4.88770468
     47      C    -0.47584783    -0.83721027    -3.14832014
     48      H     0.34437003    -0.58849315    -3.82113435
     49      H    -1.41712768    -0.53575874    -3.61000256
     50      H    -0.34686905    -0.26946311    -2.22722240
     51      C    -1.56214910    -2.63684247    -1.79300117
     52      H    -1.65366019    -3.70680096    -1.60611831
     53      H    -2.53012785    -2.26734681    -2.13379542
     54      C    -2.20353944     2.69926711     1.28047865
     55      C    -2.63108331     3.83090571     0.59826755
     56      C    -2.59193556     5.07280563     1.21154076
     57      C    -2.11923077     5.20083448     2.50675077
     58      C    -1.67750764     4.07913775     3.19770401
     59      C    -1.71749063     2.82991888     2.58551845
     60      H    -3.00671708     3.76466000    -0.41568795
     61      H    -2.93176432     5.94835327     0.66874046
     62      H    -2.08746592     6.17743821     2.97642772
     63      H    -1.29800307     4.16343927     4.20964622
     64      H    -1.36513939     1.95646469     3.12530984
 
Total System Charge             0.00000
Bonding info available!
 
 Rebuilding optimization coordinates

 dE(predicted):    -0.32543E-03, dE(actual):    -0.29341E-03, Trust radius:    1.000000, all in a.u.
 
----------------------------------------------------------------------
Geometry Convergence after Step  15       (Hartree/Angstrom,Angstrom)
----------------------------------------------------------------------
current energy                              -87.49928975 Hartree
energy change                      -0.00029341     0.00064000    T
constrained gradient max            0.00989224     0.00100000    F
constrained gradient rms            0.00169978     0.00066667    F
gradient max                        0.00989224
gradient rms                        0.00169978
cart. step max                      0.16677463     0.01000000    F
cart. step rms                      0.03053286     0.00666667    F
 
 
--------
Geometry
--------
Formula: C25H35N2O2
Atoms
  Index Symbol   x (angstrom)   y (angstrom)   z (angstrom)
      1      C    -2.28633032     1.28106369     0.67566262
      2      C    -0.96966289     0.59934069     0.81878748
      3      C    -0.81801208    -0.67355862     1.40409493
      4      O     0.25269963    -1.29370771     1.46959695
      5      H     0.87470636    -4.85492693    -2.85076362
      6      H    -3.03748746     0.71595963     1.24079066
      7      H    -0.09855753     1.09342146     0.40414426
      8      H    -1.74737796    -1.11799365     1.81984173
      9      H     5.19805950     1.65580835     0.15115238
     10      H     4.75679581     0.23768019     1.12483900
     11      H     0.43536849    -4.49139365    -1.17142920
     12      H     5.05521510     0.05993322    -0.61399178
     13      C    -2.71153436     1.25095799    -0.80598263
     14      H    -1.96487888     1.74069193    -1.43030128
     15      H     2.12082405    -4.38867393    -1.68793598
     16      H    -1.29728351    -2.17013836    -0.83064964
     17      H    -3.67407998     1.74444469    -0.93327905
     18      H    -2.81167290     0.21360178    -1.12330479
[...]
     25      C      0    0.9841712234        1.015829
     26      C      1   -1.0625467064        3.062547
     27      H      0    0.0514025887        0.948597
     28      H      0   -0.0118586095        0.011859
     29      H      0    0.0528942352        0.947106
     30      H      0   -0.0115827775        0.011583
     31      H      0    0.0434508652        0.956549
     32      H      0   -0.0135874146        0.013587
     33      H      0    0.0515065984        0.948493
     34      H      0   -0.0107153784        0.010715
     35      H      0    0.0492361651        0.950764
     36      H      0   -0.0121564916        0.012156
     37      N      0    0.5614146046        1.438585
     38      N      1   -0.9362942367        3.936294
     39      C      0    1.0625334466        0.937467
     40      C      1   -0.4973065647        2.497307
     41      O      0    0.2807695142        1.719230
     42      O      1   -0.8708662620        4.870866
     43      N      0    0.5699415736        1.430058
     44      N      1   -0.9364196960        3.936420
     45      C      0    0.9691148455        1.030885
     46      C      1   -0.8427705420        2.842771
     47      H      0    0.2640971784        0.735903
     48      H      0   -0.0234801978        0.023480
     49      C      0    0.9600787701        1.039921
     50      C      1   -0.8415738418        2.841574
     51      H      0    0.2673540362        0.732646
     52      H      0   -0.0221406103        0.022141
     53      H      0    0.0780912794        0.921909
     54      H      0   -0.0200527426        0.020053
     55      C      0    0.9855289680        1.014471
     56      C      1   -1.0897535825        3.089754
     57      C      0    0.9839380003        1.016062
     58      C      1   -1.0827246708        3.082725
     59      H      0    0.0400653197        0.959935
     60      H      0   -0.0071728146        0.007173
     61      H      0    0.0726883345        0.927312
     62      H      0   -0.0188462000        0.018846
     63      C      0    0.9090554953        1.090945
     64      C      1   -0.9160987879        2.916099
     65      C      0    0.9400108099        1.059989
     66      C      1   -0.9796511493        2.979651
     67      C      0    0.9423371049        1.057663
     68      C      1   -0.9698844569        2.969884
     69      C      0    0.9427894518        1.057211
     70      C      1   -0.9747859027        2.974786
     71      C      0    0.9421836242        1.057816
     72      C      1   -0.9684634633        2.968463
     73      C      0    0.9397817342        1.060218
     74      C      1   -0.9786702838        2.978670
     75      H      0    0.0453402043        0.954660
     76      H      0   -0.0091622881        0.009162
     77      H      0    0.0364100917        0.963590
     78      H      0   -0.0085862231        0.008586
     79      H      0    0.0369935903        0.963006
     80      H      0   -0.0089449203        0.008945
     81      H      0    0.0377482106        0.962252
     82      H      0   -0.0084260754        0.008426
     83      C      0    0.9108155384        1.089184
     84      C      1   -0.8881813611        2.888181
     85      C      0    0.9847388871        1.015261
     86      C      1   -1.0862561293        3.086256
     87      H      0    0.0441716739        0.955828
     88      H      0   -0.0103624549        0.010362
     89      H      0    0.0416349124        0.958365
     90      H      0   -0.0112254239        0.011225
     91      H      0    0.0440402062        0.955960
     92      H      0   -0.0091508553        0.009151
     93      C      0    0.9843767449        1.015623
     94      C      1   -1.0805578824        3.080558
     95      H      0    0.0598917696        0.940108
     96      H      0   -0.0118789881        0.011879
     97      H      0    0.0344701027        0.965530
     98      H      0   -0.0103475123        0.010348
     99      H      0    0.0461012779        0.953899
    100      H      0   -0.0132407387        0.013241
    101      C      0    0.9856952496        1.014305
    102      C      1   -1.0873550267        3.087355
    103      H      0    0.0426363400        0.957364
    104      H      0   -0.0106805328        0.010681
    105      H      0    0.0400688954        0.959931
    106      H      0   -0.0105324321        0.010532
    107      C      0    0.9100844194        1.089916
    108      C      1   -0.9030451243        2.903045
    109      C      0    0.9401506984        1.059849
    110      C      1   -0.9765863574        2.976586
    111      C      0    0.9413732656        1.058627
    112      C      1   -0.9616934347        2.961693
    113      C      0    0.9417462401        1.058254
    114      C      1   -0.9706147555        2.970615
    115      C      0    0.9418187534        1.058181
    116      C      1   -0.9648113512        2.964811
    117      C      0    0.9403403632        1.059660
    118      C      1   -0.9793802798        2.979380
    119      H      0    0.0469450386        0.953055
    120      H      0   -0.0082423503        0.008242
    121      H      0    0.0441577691        0.955842
    122      H      0   -0.0083007129        0.008301
    123      H      0    0.0413522246        0.958648
    124      H      0   -0.0082765826        0.008277
    125      H      0    0.0408686511        0.959131
    126      H      0   -0.0082414453        0.008241
    127      H      0    0.0386628689        0.961337
    128      H      0   -0.0074650638        0.007465
                Total   -0.0000000002      157.000000
 
 
--------
Orbitals
--------
Index of HOMO                   79
Fermi Energy (hartree)           -0.40448136
Orbitals
   Index  Energy (hartree)       Energy (eV)        Occupation  Degeneracy
       1       -0.79173007      -21.54407125        2.00000000           1
       2       -0.78049827      -21.23843842        2.00000000           1
       3       -0.77439313      -21.07230936        2.00000000           1
       4       -0.75484024      -20.54024804        2.00000000           1
       5       -0.68589179      -18.66406535        2.00000000           1
       6       -0.67927305      -18.48396025        2.00000000           1
       7       -0.67281378      -18.30819443        2.00000000           1
       8       -0.66872833      -18.19702371        2.00000000           1
       9       -0.66520538      -18.10115950        2.00000000           1
      10       -0.66191127      -18.01152206        2.00000000           1
      11       -0.65605500      -17.85216489        2.00000000           1
      12       -0.65371613      -17.78852102        2.00000000           1
      13       -0.65044813      -17.69959410        2.00000000           1
      14       -0.64774841      -17.62613115        2.00000000           1
      15       -0.64371774      -17.51645090        2.00000000           1
      16       -0.63628909      -17.31430712        2.00000000           1
      17       -0.63602559      -17.30713677        2.00000000           1
      18       -0.63360628      -17.24130409        2.00000000           1
      19       -0.63220997      -17.20330863        2.00000000           1
      20       -0.62542075      -17.01856462        2.00000000           1
      21       -0.62409000      -16.98235300        2.00000000           1
      22       -0.62124224      -16.90486152        2.00000000           1
      23       -0.61609999      -16.76493382        2.00000000           1
      24       -0.61468222      -16.72635424        2.00000000           1
      25       -0.61272758      -16.67316572        2.00000000           1
      26       -0.60584684      -16.48593137        2.00000000           1
      27       -0.60163533      -16.37133029        2.00000000           1
      28       -0.59099114      -16.08168708        2.00000000           1
      29       -0.58792034      -15.99812634        2.00000000           1
      30       -0.58397711      -15.89082582        2.00000000           1
      31       -0.57519882      -15.65195617        2.00000000           1
      32       -0.57089370      -15.53480812        2.00000000           1
      33       -0.56807517      -15.45811182        2.00000000           1
      34       -0.56672101      -15.42126319        2.00000000           1
      35       -0.56243981      -15.30476584        2.00000000           1
      36       -0.55453910      -15.08977669        2.00000000           1
      37       -0.55258561      -15.03661941        2.00000000           1
      38       -0.54842808      -14.92348750        2.00000000           1
      39       -0.54696960      -14.88380003        2.00000000           1
      40       -0.54548812      -14.84348688        2.00000000           1
      41       -0.54488896      -14.82718293        2.00000000           1
      42       -0.54243617      -14.76043922        2.00000000           1
      43       -0.53830751      -14.64809253        2.00000000           1
      44       -0.53667146      -14.60357336        2.00000000           1
      45       -0.53565432      -14.57589568        2.00000000           1
      46       -0.53395017      -14.52952339        2.00000000           1
      47       -0.53171025      -14.46857208        2.00000000           1
      48       -0.53066990      -14.44026258        2.00000000           1
      49       -0.52659764      -14.32945085        2.00000000           1
      50       -0.52525371      -14.29288057        2.00000000           1
      51       -0.52403737      -14.25978249        2.00000000           1
      52       -0.51749030      -14.08162767        2.00000000           1
      53       -0.51576146      -14.03458334        2.00000000           1
      54       -0.51471069      -14.00599044        2.00000000           1
      55       -0.51085703      -13.90112721        2.00000000           1
      56       -0.50843456      -13.83520837        2.00000000           1
      57       -0.50739628      -13.80695517        2.00000000           1
      58       -0.50333681      -13.69649144        2.00000000           1
      59       -0.50309203      -13.68983081        2.00000000           1
      60       -0.50015803      -13.60999248        2.00000000           1
      61       -0.49597286      -13.49610821        2.00000000           1
      62       -0.48826000      -13.28623063        2.00000000           1
      63       -0.48764639      -13.26953344        2.00000000           1
      64       -0.47691587      -12.97754102        2.00000000           1
      65       -0.47409017      -12.90064991        2.00000000           1
      66       -0.47260913      -12.86034872        2.00000000           1
      67       -0.47083518      -12.81207722        2.00000000           1
      68       -0.46842593      -12.74651800        2.00000000           1
      69       -0.46607165      -12.68245501        2.00000000           1
      70       -0.46399576      -12.62596697        2.00000000           1
      71       -0.44791108      -12.18828061        2.00000000           1
      72       -0.44681987      -12.15858722        2.00000000           1
      73       -0.44161347      -12.01691383        2.00000000           1
      74       -0.43962126      -11.96270305        2.00000000           1
      75       -0.43774783      -11.91172455        2.00000000           1
      76       -0.43282880      -11.77787087        2.00000000           1
      77       -0.42624016      -11.59858496        2.00000000           1
      78       -0.40842444      -11.11379459        1.96897334           1
      79       -0.40454033      -11.00810250        1.03102666           1
      80       -0.27045578       -7.35947635        0.00000000           1
      81       -0.26995004       -7.34571424        0.00000000           1
      82       -0.26168504       -7.12081224        0.00000000           1
      83       -0.26138979       -7.11277817        0.00000000           1
      84       -0.23804850       -6.47762940        0.00000000           1
      85       -0.20157544       -5.48514670        0.00000000           1
      86       -0.15105412       -4.11039171        0.00000000           1
      87       -0.14551294       -3.95960862        0.00000000           1
      88       -0.13908296       -3.78463982        0.00000000           1
      89       -0.13832065       -3.76389649        0.00000000           1
      90       -0.13331859       -3.62778352        0.00000000           1
      91       -0.12682315       -3.45103356        0.00000000           1
      92       -0.12411701       -3.37739555        0.00000000           1
      93       -0.11893048       -3.23626309        0.00000000           1
      94       -0.11822377       -3.21703249        0.00000000           1
      95       -0.11422588       -3.10824442        0.00000000           1
      96       -0.11354272       -3.08965465        0.00000000           1
      97       -0.10580755       -2.87916996        0.00000000           1
      98       -0.10043603       -2.73300356        0.00000000           1
      99       -0.09767456       -2.65786013        0.00000000           1
     100       -0.09389912       -2.55512495        0.00000000           1
     101       -0.09083810       -2.47183040        0.00000000           1
     102       -0.08959784       -2.43808120        0.00000000           1
     103       -0.08556771       -2.32841593        0.00000000           1
     104       -0.08261181       -2.24798171        0.00000000           1
     105       -0.07987975       -2.17363853        0.00000000           1
     106       -0.07776400       -2.11606610        0.00000000           1
     107       -0.07427517       -2.02113035        0.00000000           1
     108       -0.07101748       -1.93248387        0.00000000           1
     109       -0.06742929       -1.83484430        0.00000000           1
     110       -0.06358733       -1.73029932        0.00000000           1
     111       -0.06231115       -1.69557279        0.00000000           1
     112       -0.05983267       -1.62812975        0.00000000           1
     113       -0.05647735       -1.53682695        0.00000000           1
     114       -0.05072051       -1.38017528        0.00000000           1
     115       -0.04954012       -1.34805530        0.00000000           1
     116       -0.04723458       -1.28531826        0.00000000           1
     117       -0.04095296       -1.11438680        0.00000000           1
     118       -0.03937739       -1.07151325        0.00000000           1
     119       -0.03604071       -0.98071751        0.00000000           1
     120       -0.03353236       -0.91246186        0.00000000           1
     121       -0.02900307       -0.78921363        0.00000000           1
     122       -0.02467893       -0.67154777        0.00000000           1
     123        0.04144134        1.12767617        0.00000000           1
     124        0.04776696        1.29980512        0.00000000           1
     125        0.05863455        1.59552733        0.00000000           1
     126        0.06446000        1.75404585        0.00000000           1
     127        0.07569188        2.05968096        0.00000000           1
     128        0.07684736        2.09112307        0.00000000           1
     129        0.08276812        2.25223527        0.00000000           1
     130        0.10538814        2.86775724        0.00000000           1
     131        0.10869257        2.95767535        0.00000000           1
     132        0.11584299        3.15224813        0.00000000           1
     133        0.12265677        3.33766060        0.00000000           1
     134        0.13856519        3.77055060        0.00000000           1
     135        0.20393473        5.54934637        0.00000000           1
     136        0.20728908        5.64062299        0.00000000           1
     137        0.21093891        5.73993977        0.00000000           1
     138        0.21658345        5.89353544        0.00000000           1
     139        0.21845308        5.94441082        0.00000000           1
     140        0.21970455        5.97846508        0.00000000           1
     141        0.22307770        6.07025304        0.00000000           1
     142        0.22568136        6.14110222        0.00000000           1
     143        0.23324998        6.34705502        0.00000000           1
     144        0.23531241        6.40317653        0.00000000           1
     145        0.24389272        6.63665848        0.00000000           1
     146        0.24591368        6.69165163        0.00000000           1
     147        0.25333221        6.89352016        0.00000000           1
     148        0.25391053        6.90925711        0.00000000           1
     149        0.25635623        6.97580794        0.00000000           1
     150        0.25874597        7.04083606        0.00000000           1
     151        0.26152425        7.11643696        0.00000000           1
     152        0.26272869        7.14921131        0.00000000           1
     153        0.27562692        7.50019008        0.00000000           1
     154        0.27831920        7.57345087        0.00000000           1
     155        0.28390356        7.72540907        0.00000000           1
     156        0.29022437        7.89740682        0.00000000           1
     157        0.29712732        8.08524583        0.00000000           1
     158        0.30523163        8.30577535        0.00000000           1
     159        0.31283000        8.51253752        0.00000000           1
     160        0.31930755        8.68880053        0.00000000           1
     161        0.33553937        9.13049082        0.00000000           1
     162        0.35183481        9.57391228        0.00000000           1
     163        0.36834841       10.02327028        0.00000000           1
     164        0.37098625       10.09504948        0.00000000           1
     165        0.38923933       10.59174111        0.00000000           1
     166        0.39265788       10.68476466        0.00000000           1
     167        0.39842174       10.84160721        0.00000000           1
     168        0.41032878       11.16561421        0.00000000           1
     169        0.41223134       11.21738553        0.00000000           1
     170        0.42771748       11.63878470        0.00000000           1
     171        0.43495157       11.83563443        0.00000000           1
     172        0.43734921       11.90087743        0.00000000           1
     173        0.43832002       11.92729452        0.00000000           1
     174        0.43985028       11.96893521        0.00000000           1
     175        0.44256390       12.04277646        0.00000000           1
     176        0.44731146       12.17196405        0.00000000           1
     177        0.45446320       12.36657292        0.00000000           1
     178        0.45661910       12.42523798        0.00000000           1
     179        0.46249589       12.58515354        0.00000000           1
     180        0.50996661       13.87689755        0.00000000           1
     181        0.54785230       14.90781952        0.00000000           1
     182        0.55451931       15.08923807        0.00000000           1
     183        0.61607313       16.76420292        0.00000000           1
     184        0.65231548       17.75040742        0.00000000           1
     185        0.65904831       17.93361687        0.00000000           1
     186        0.74507626       20.27455662        0.00000000           1
 

AMS application finished. Exiting.
NORMAL TERMINATION
     Total cpu time:      48.08
  Total system time:       6.12
 Total elapsed time:      65.05
NORMAL TERMINATION
