

 Parallel Execution: Process Information
 ==============================================================================
 Rank   Node Name                              NodeID   MyNodeRank  NodeMaster
    0   DESKTOP-1M8FOJT                           0          0          0
    1   DESKTOP-1M8FOJT                           0          1         -1
    2   DESKTOP-1M8FOJT                           0          2         -1
    3   DESKTOP-1M8FOJT                           0          3         -1
 ==============================================================================


May use up to 4096MB of RAM as shared memory on node 0

 *******************************************************************************
 *                                                                             *
 *  --------------------------------                                           *
 *   Amsterdam Modeling Suite (AMS)              2022.101                      *
 *  --------------------------------                                           *
 *                                               r100871 2022-01-28            *
 *                                                                             *
 *                                                                             *
 *                              =================                              *
 *                              |               |                              *
 *                              |     A M S     |                              *
 *                              |               |                              *
 *                              =================                              *
 *                                                                             *
 *                                                                             *
 *   Online information and documentation:  https://www.scm.com/support/       *
 *   E-mail:  support@scm.com   info@scm.com                                   *
 *                                                                             *
 *   Scientific publications using AMS results must be properly referenced     *
 *   See the User Manuals (or the web site) for recommended citations          *
 *   The terms and conditions of the End User License Agreement apply to       *
 *   the use of AMS, https://www.scm.com/license-terms/                        *
 *                                                                             *
 *********************  x86_64_windows_intel / intelmpi  ***********************
 
 Licensed to: Mr. Yuman Hordijk / SCM / Amsterdam / Netherlands 2022-01-24 11:07:43
 SCM User ID: u24430
  
 AMS 2022.101  RunTime: Feb01-2022 19:03:55  ShM Nodes: 1  Procs: 4

 AMS jobname: ams
 AMS jobid  : 1449149773

 Start   directory: D:/Users/Yuman/Desktop/MasterProject/manual_calculations/urea/tmp..8528.0.noindex/
 Results directory: D:/Users/Yuman/Desktop/MasterProject/manual_calculations/urea/LT_O.results/
 Scratch directory: Z:/SCMTMP/amstmp_ams_kid0.1449149773/


 Communication costs MPI_COMM_WORLD:      1.696 usec per message,   0.0040 usec per 8-byte item
 Communication costs for intra-node:      1.700 usec per message,   0.0031 usec per 8-byte item

 RNG seed: -573270194 1701635734 1982324642 -2030420658 -124715991 1520423518 -591785174 -1801029886



                      ************************************************************************
                      *  ADF 2022.101  RunTime: Feb01-2022 19:03:56  ShM Nodes: 1  Procs: 4  *
                      ************************************************************************
  
       *********************************
       * Potential Energy Surface Scan *
       *********************************
 
--------
Geometry
--------
Formula: C25H35N2O2
Atoms
  Index Symbol   x (angstrom)   y (angstrom)   z (angstrom)
      1      C    -2.56731174     1.06035327     1.82217524
      2      C    -1.18337688     0.53022345     1.61781623
      3      C    -0.68929244    -0.63745673     2.27504050
      4      O     0.40622229    -1.18035543     2.03519409
      5      H     1.14914175    -4.30314241    -3.64919507
      6      H    -2.94461977     0.66559063     2.77693099
      7      H    -0.52654405     1.02125791     0.90268730
      8      H    -1.35920468    -1.07845580     3.04341399
      9      H     5.64263718     0.45544419     1.44525389
     10      H     4.41318839    -0.68976533     2.02715494
     11      H     0.70747792    -4.22532701    -1.93641272
     12      H     5.37156655    -1.08548117     0.59792050
     13      C    -3.52768353     0.54066355     0.72918227
     14      H    -3.17321684     0.78171162    -0.27568482
     15      H     2.36205132    -3.85886879    -2.44499334
     16      H    -1.36262844    -1.85236208    -1.32600488
     17      H    -4.51451361     0.99331347     0.87024128
     18      H    -3.62435726    -0.54691494     0.79624622
     19      N     2.83247394    -0.58070068    -0.18801543
     20      C     2.50244123    -0.82641068    -1.50818638
     21      O     3.16743206    -0.43538947    -2.46837762
     22      N     1.32181700    -1.55299443    -1.63088254
     23      C     3.85622599     0.38946976     0.20496123
     24      H     2.12399394    -0.75918433     0.51678468
     25      C     0.98242480    -2.25672686    -2.87014200
     26      H     1.02032050    -2.02246654    -0.78504993
     27      H     4.36342354     0.66930985    -0.72375675
     28      C     1.30825593    -3.75055580    -2.71996585
     29      C     4.88195098    -0.26691692     1.13271971
     30      H     2.69363162     2.36525470    -1.20065558
     31      H     1.65551319    -1.83721544    -3.62535861
     32      C     3.17296617     1.63591281     0.76524565
     33      C     3.02878781     1.87988509     2.13382900
     34      C     2.30371188     2.98049337     2.59221105
     35      C     1.71883796     3.86258395     1.69014120
     36      C     1.87357200     3.64215507     0.32210651
     37      C     2.59024080     2.54073097    -0.13304069
     38      H     3.46547730     1.20325462     2.86077798
     39      H     2.19078223     3.14255332     3.66153042
     40      H     1.13979701     4.70893038     2.04772907
     41      H     1.42917374     4.33021945    -0.39267215
     42      C    -0.48128310    -1.92517972    -3.33016382
     43      C    -0.78275741    -2.63294319    -4.66500900
     44      H    -1.73976303    -2.28226998    -5.06784300
     45      H    -0.85646276    -3.71817204    -4.55081233
     46      H    -0.01022018    -2.41814013    -5.41237901
     47      C    -0.58934385    -0.40411851    -3.55110985
     48      H     0.11092002    -0.06849609    -4.32373548
     49      H    -1.60254388    -0.13745024    -3.87235235
     50      H    -0.36018863     0.14444399    -2.63395103
     51      C    -1.52518785    -2.35664024    -2.28318304
     52      H    -1.51330950    -3.43770741    -2.11103808
     53      H    -2.53310588    -2.09333641    -2.62429332
     54      C    -2.57411090     2.58457270     1.92681267
     55      C    -2.47987073     3.40443425     0.79699344
     56      C    -2.52277309     4.79077643     0.91552613
     57      C    -2.65751720     5.38564163     2.16746432
     58      C    -2.73808927     4.58179157     3.30097161
     59      C    -2.69075955     3.19452494     3.18017394
     60      H    -2.37730521     2.96750120    -0.19121931
     61      H    -2.45676475     5.40843056     0.02343461
     62      H    -2.70083033     6.46781104     2.25818681
     63      H    -2.84501753     5.03407599     4.28360833
     64      H    -2.75937560     2.57958931     4.07392213
 
Total System Charge             0.00000
Bonding info available!
 
Total number of PES points: 10

====> Coordinate 1
Number of sample points: 10
Description: Distance C(1)--C(13)
Range:     1.5450    2.5000 Angstrom

Optimization Method                    Quasi Newton
Optimization Coordinates               Delocalized Coordinates
Optimize lattice                       F
 
 ------------------------------------------------------
 Convergence criteria (Hartree,Angstrom)
 ------------------------------------------------------
 Maximum gradient               0.001000000000
 Maximum rms gradient           0.000666666667
 Maximum step allowed           0.010000000000
 Maximum rms step allowed       0.006666666667
 Maximum energy change allowe   0.000640000000
 Maximum stress energy allowe   0.000500000000
 
Initial model Hessian                  Automatic Hessian
 
------------------------------------
Quasi-Newton Optimizer Parameters
------------------------------------
Hessian Update Method                  BFGS
Maximum number of steps                  384
First GDIIS cycle                          0
Maximum GDIIS vectors                      0
Trust radius (bohr)                        0.200000
Trust radius varies                        T
Constraints converged at all steps         T
Use projector                              T
 
 Rigid motions settings for: old optimizer
 Atomic rotations (x,y,z):     T T T
 Atomic translations (x,y,z):  T T T
 Tolerance:                   1.000000000000000E-006
 
----------------
ADF Engine Input
----------------
 
 Basis
 Type TZ2P
 Core Small
 End
 SpinPolarization 1
 XC
 GGA OLYP
 End
 Unrestricted Yes
 

 Title: *** (NO TITLE) ***

 *** InputSystem ***



 ===========================
 A T T A C H E D   F I L E S
 ===========================
  



 ===============================
 M O D E L   P A R A M E T E R S
 ===============================
  
 DENSITY FUNCTIONAL POTENTIAL (scf)
    LDA:                               Exchange only                           == Not Default ==
    Gradient Corrections:              OPTX LYP                                == Not Default ==

 SPIN  (restricted / unrestr.)
    Molecule:                          UNrestricted                            == Not Default ==
    Fragments:                         Restricted                               

 OTHER ASPECTS
    Relativistic Corrections:          scalar (ZORA,MAPA)                       

    Nuclear Charge Density Model:      Point Charge Nuclei                      
    Core Treatment:                    Frozen Orbital(s)                        

    Hyperfine or Zeeman Interaction:   ---                                      


 Fragment File(s)
 ----------------
 C:
         file : D:/Users/Yuman/Desktop/MasterProject/manual_calculations/urea/LT_O.results/t21.4ADF671A.C
         jobid: 0
         title: Carbon (TZ2P, 1s frozen)
 O:
         file : D:/Users/Yuman/Desktop/MasterProject/manual_calculations/urea/LT_O.results/t21.61CB6C71.O
         jobid: 0
         title: Oxygen (TZ2P, 1s frozen)
 H:
         file : D:/Users/Yuman/Desktop/MasterProject/manual_calculations/urea/LT_O.results/t21.55EF34DC.H
         jobid: 0
         title: Hydrogen (TZ2P)
 N:
         file : D:/Users/Yuman/Desktop/MasterProject/manual_calculations/urea/LT_O.results/t21.60EAB59E.N
         jobid: 0
         title: Nitrogen (TZ2P, 1s frozen)



 ===============
 G E O M E T R Y  ***  3D  Molecule  ***
 ===============
  

 ATOMS
 =====                            X Y Z                    CHARGE
                                (Angstrom)             Nucl     +Core       At.Mass
                       --------------------------    ----------------       -------
    1  C              -2.5673    1.0604    1.8222      6.00      4.00       12.0000
    2  C              -1.1834    0.5302    1.6178      6.00      4.00       12.0000
    3  C              -0.6893   -0.6375    2.2750      6.00      4.00       12.0000
    4  O               0.4062   -1.1804    2.0352      8.00      6.00       15.9949
    5  H               1.1491   -4.3031   -3.6492      1.00      1.00        1.0078
    6  H              -2.9446    0.6656    2.7769      1.00      1.00        1.0078
    7  H              -0.5265    1.0213    0.9027      1.00      1.00        1.0078
    8  H              -1.3592   -1.0785    3.0434      1.00      1.00        1.0078
    9  H               5.6426    0.4554    1.4453      1.00      1.00        1.0078
   10  H               4.4132   -0.6898    2.0272      1.00      1.00        1.0078
   11  H               0.7075   -4.2253   -1.9364      1.00      1.00        1.0078
   12  H               5.3716   -1.0855    0.5979      1.00      1.00        1.0078
   13  C              -3.5277    0.5407    0.7292      6.00      4.00       12.0000
   14  H              -3.1732    0.7817   -0.2757      1.00      1.00        1.0078
   15  H               2.3621   -3.8589   -2.4450      1.00      1.00        1.0078
   16  H              -1.3626   -1.8524   -1.3260      1.00      1.00        1.0078
   17  H              -4.5145    0.9933    0.8702      1.00      1.00        1.0078
   18  H              -3.6244   -0.5469    0.7962      1.00      1.00        1.0078
   19  N               2.8325   -0.5807   -0.1880      7.00      5.00       14.0031
   20  C               2.5024   -0.8264   -1.5082      6.00      4.00       12.0000
   21  O               3.1674   -0.4354   -2.4684      8.00      6.00       15.9949
   22  N               1.3218   -1.5530   -1.6309      7.00      5.00       14.0031
   23  C               3.8562    0.3895    0.2050      6.00      4.00       12.0000
   24  H               2.1240   -0.7592    0.5168      1.00      1.00        1.0078
   25  C               0.9824   -2.2567   -2.8701      6.00      4.00       12.0000
   26  H               1.0203   -2.0225   -0.7850      1.00      1.00        1.0078
   27  H               4.3634    0.6693   -0.7238      1.00      1.00        1.0078
   28  C               1.3083   -3.7506   -2.7200      6.00      4.00       12.0000
   29  C               4.8820   -0.2669    1.1327      6.00      4.00       12.0000
   30  H               2.6936    2.3653   -1.2007      1.00      1.00        1.0078
   31  H               1.6555   -1.8372   -3.6254      1.00      1.00        1.0078
   32  C               3.1730    1.6359    0.7652      6.00      4.00       12.0000
   33  C               3.0288    1.8799    2.1338      6.00      4.00       12.0000
   34  C               2.3037    2.9805    2.5922      6.00      4.00       12.0000
   35  C               1.7188    3.8626    1.6901      6.00      4.00       12.0000
   36  C               1.8736    3.6422    0.3221      6.00      4.00       12.0000
   37  C               2.5902    2.5407   -0.1330      6.00      4.00       12.0000
   38  H               3.4655    1.2033    2.8608      1.00      1.00        1.0078
   39  H               2.1908    3.1426    3.6615      1.00      1.00        1.0078
   40  H               1.1398    4.7089    2.0477      1.00      1.00        1.0078
   41  H               1.4292    4.3302   -0.3927      1.00      1.00        1.0078
   42  C              -0.4813   -1.9252   -3.3302      6.00      4.00       12.0000
   43  C              -0.7828   -2.6329   -4.6650      6.00      4.00       12.0000
   44  H              -1.7398   -2.2823   -5.0678      1.00      1.00        1.0078
   45  H              -0.8565   -3.7182   -4.5508      1.00      1.00        1.0078
   46  H              -0.0102   -2.4181   -5.4124      1.00      1.00        1.0078
   47  C              -0.5893   -0.4041   -3.5511      6.00      4.00       12.0000
   48  H               0.1109   -0.0685   -4.3237      1.00      1.00        1.0078
   49  H              -1.6025   -0.1375   -3.8724      1.00      1.00        1.0078
   50  H              -0.3602    0.1444   -2.6340      1.00      1.00        1.0078
   51  C              -1.5252   -2.3566   -2.2832      6.00      4.00       12.0000
   52  H              -1.5133   -3.4377   -2.1110      1.00      1.00        1.0078
   53  H              -2.5331   -2.0933   -2.6243      1.00      1.00        1.0078
   54  C              -2.5741    2.5846    1.9268      6.00      4.00       12.0000
   55  C              -2.4799    3.4044    0.7970      6.00      4.00       12.0000
   56  C              -2.5228    4.7908    0.9155      6.00      4.00       12.0000
   57  C              -2.6575    5.3856    2.1675      6.00      4.00       12.0000
   58  C              -2.7381    4.5818    3.3010      6.00      4.00       12.0000
   59  C              -2.6908    3.1945    3.1802      6.00      4.00       12.0000
   60  H              -2.3773    2.9675   -0.1912      1.00      1.00        1.0078
   61  H              -2.4568    5.4084    0.0234      1.00      1.00        1.0078
   62  H              -2.7008    6.4678    2.2582      1.00      1.00        1.0078
   63  H              -2.8450    5.0341    4.2836      1.00      1.00        1.0078
   64  H              -2.7594    2.5796    4.0739      1.00      1.00        1.0078


 FRAGMENTS
 =========                                     Atoms in this Fragment     Cart. coord.s (Angstrom)
                                               -------------------------------------------------------
    1  C                                                 1  C           -2.5673    1.0604    1.8222
    2  C                                                 2  C           -1.1834    0.5302    1.6178
    3  C                                                 3  C           -0.6893   -0.6375    2.2750
    4  C                                                13  C           -3.5277    0.5407    0.7292
    5  C                                                20  C            2.5024   -0.8264   -1.5082
    6  C                                                23  C            3.8562    0.3895    0.2050
    7  C                                                25  C            0.9824   -2.2567   -2.8701
    8  C                                                28  C            1.3083   -3.7506   -2.7200
    9  C                                                29  C            4.8820   -0.2669    1.1327
   10  C                                                32  C            3.1730    1.6359    0.7652
   11  C                                                33  C            3.0288    1.8799    2.1338
   12  C                                                34  C            2.3037    2.9805    2.5922
   13  C                                                35  C            1.7188    3.8626    1.6901
   14  C                                                36  C            1.8736    3.6422    0.3221
   15  C                                                37  C            2.5902    2.5407   -0.1330
   16  C                                                42  C           -0.4813   -1.9252   -3.3302
   17  C                                                43  C           -0.7828   -2.6329   -4.6650
   18  C                                                47  C           -0.5893   -0.4041   -3.5511
   19  C                                                51  C           -1.5252   -2.3566   -2.2832
   20  C                                                54  C           -2.5741    2.5846    1.9268
   21  C                                                55  C           -2.4799    3.4044    0.7970
   22  C                                                56  C           -2.5228    4.7908    0.9155
   23  C                                                57  C           -2.6575    5.3856    2.1675
   24  C                                                58  C           -2.7381    4.5818    3.3010
   25  C                                                59  C           -2.6908    3.1945    3.1802
   26  O                                                 4  O            0.4062   -1.1804    2.0352
   27  O                                                21  O            3.1674   -0.4354   -2.4684
   28  H                                                 5  H            1.1491   -4.3031   -3.6492
   29  H                                                 6  H           -2.9446    0.6656    2.7769
   30  H                                                 7  H           -0.5265    1.0213    0.9027
   31  H                                                 8  H           -1.3592   -1.0785    3.0434
   32  H                                                 9  H            5.6426    0.4554    1.4453
   33  H                                                10  H            4.4132   -0.6898    2.0272
   34  H                                                11  H            0.7075   -4.2253   -1.9364
   35  H                                                12  H            5.3716   -1.0855    0.5979
   36  H                                                14  H           -3.1732    0.7817   -0.2757
   37  H                                                15  H            2.3621   -3.8589   -2.4450
   38  H                                                16  H           -1.3626   -1.8524   -1.3260
   39  H                                                17  H           -4.5145    0.9933    0.8702
   40  H                                                18  H           -3.6244   -0.5469    0.7962
   41  H                                                24  H            2.1240   -0.7592    0.5168
   42  H                                                26  H            1.0203   -2.0225   -0.7850
   43  H                                                27  H            4.3634    0.6693   -0.7238
   44  H                                                30  H            2.6936    2.3653   -1.2007
   45  H                                                31  H            1.6555   -1.8372   -3.6254
   46  H                                                38  H            3.4655    1.2033    2.8608
   47  H                                                39  H            2.1908    3.1426    3.6615
   48  H                                                40  H            1.1398    4.7089    2.0477
   49  H                                                41  H            1.4292    4.3302   -0.3927
   50  H                                                44  H           -1.7398   -2.2823   -5.0678
   51  H                                                45  H           -0.8565   -3.7182   -4.5508
   52  H                                                46  H           -0.0102   -2.4181   -5.4124
   53  H                                                48  H            0.1109   -0.0685   -4.3237
   54  H                                                49  H           -1.6025   -0.1375   -3.8724
   55  H                                                50  H           -0.3602    0.1444   -2.6340
   56  H                                                52  H           -1.5133   -3.4377   -2.1110
   57  H                                                53  H           -2.5331   -2.0933   -2.6243
   58  H                                                60  H           -2.3773    2.9675   -0.1912
   59  H                                                61  H           -2.4568    5.4084    0.0234
   60  H                                                62  H           -2.7008    6.4678    2.2582
   61  H                                                63  H           -2.8450    5.0341    4.2836
   62  H                                                64  H           -2.7594    2.5796    4.0739
   63  N                                                19  N            2.8325   -0.5807   -0.1880
   64  N                                                22  N            1.3218   -1.5530   -1.6309



 =====================================
 S Y M M E T R Y ,   E L E C T R O N S
 =====================================
  
 Symmetry: NOSYM

 Irreducible Representations, including subspecies
 -------------------------------------------------
 A


 Configuration of Valence Electrons
 ==================================
 ( determined in the SCF procedure )

 Total:   79 (Spin-A)  + 78 (Spin-B)

 Net Charge: 0 (Nuclei minus Electrons)
 Spin polar: 1 (Spin_A minus Spin_B electrons)

 Aufbau principle for MO occupations will be applied through SCF cycle no.     150
 Thereafter, the program will assign electrons to MOs that are spatially
 similar to the occupied MOs in a "reference" cycle ("KeepOrbitals").
 The reference cycle is always the PREVIOUS cycle: it will evolve with
 the SCF procedure.
1
 ***************************************************************************************************



                                      ****************************************
                                      *  B U I L D : (Fragments, Functions)  *
                                      ****************************************
  

 Total nr. of (C)SFOs (summation over all irreps) :  1081

 Specify PRINT SFO in the input file to get a full list

 Nr. of SFOs for ir.rep.           A :  1081



 ================================
 (Slater-type)  F U N C T I O N S  ***  (Basis and Fit)  ***
 ================================
  

 Atom Type    1  (C)
 ==============

 Valence Basis Sets:   9
 -----------------------
   1 S    5.400000
   2 S    1.280000
   2 S    2.100000
   2 S    4.600000
   2 P    0.820000
   2 P    1.480000
   2 P    2.940000
   3 D    2.200000
   4 F    3.300000

 Frozen Core Shells
 ------------------
    S:  1

 Atom Type    2  (O)
 ==============

 Valence Basis Sets:   9
 -----------------------
   1 S    7.360000
   2 S    1.720000
   2 S    2.880000
   2 S    7.580000
   2 P    1.120000
   2 P    2.080000
   2 P    4.080000
   3 D    2.000000
   4 F    3.000000

 Frozen Core Shells
 ------------------
    S:  1

 Atom Type    3  (H)
 ==============

 Valence Basis Sets:   5
 -----------------------
   1 S    0.690000
   1 S    0.920000
   1 S    1.580000
   2 P    1.250000
   3 D    2.500000

 Atom Type    4  (N)
 ==============

 Valence Basis Sets:   9
 -----------------------
   1 S    6.380000
   2 S    1.500000
   2 S    2.500000
   2 S    5.150000
   2 P    1.000000
   2 P    1.880000
   2 P    3.680000
   3 D    2.200000
   4 F    3.300000

 Frozen Core Shells
 ------------------
    S:  1


 BAS: List of all Elementary Cartesian Basis Functions
 =====================================================

 The numbering in the list below (to the right of the function characteristics) is referred
 to in print-outs of MO eigenvectors and Mulliken populations in the BAS representation
 (as contrasted to the SFO representation).

 Notes:
 1. The functions are characterized by a polynomial prefactor (powers of x,y,z and r) and
    an exponential decay factor alpha.
 2. Since the basis sets are specific for an atom TYPE, the individual functions occur on
    all atoms of that type.
 3. The word 'Core' in the left margin signals that it is a Core Function (CF) : not a
    degree of freedom in the valence set, but only used to ensure orthogonalization of
    the other valence basis functions on the frozen Core Orbitals.


 (power of) X  Y  Z  R     Alpha  on Atom
            ==========     =====     ==========

 C                                    1    2    3    4    5    6    7    8    9   10   11   12   13   14   15
                                     16   17   18   19   20   21   22   23   24   25
                                  ---------------------------------------------------------------------------
    Core    0  0  0  0     5.400      1   30   59   88  117  146  175  204  233  262  291  320  349  378  407
                                    436  465  494  523  552  581  610  639  668  697
            0  0  0  1     1.280      2   31   60   89  118  147  176  205  234  263  292  321  350  379  408
                                    437  466  495  524  553  582  611  640  669  698
            0  0  0  1     2.100      3   32   61   90  119  148  177  206  235  264  293  322  351  380  409
                                    438  467  496  525  554  583  612  641  670  699
            0  0  0  1     4.600      4   33   62   91  120  149  178  207  236  265  294  323  352  381  410
                                    439  468  497  526  555  584  613  642  671  700
            1  0  0  0     0.820      5   34   63   92  121  150  179  208  237  266  295  324  353  382  411
                                    440  469  498  527  556  585  614  643  672  701
            0  1  0  0     0.820      6   35   64   93  122  151  180  209  238  267  296  325  354  383  412
                                    441  470  499  528  557  586  615  644  673  702
            0  0  1  0     0.820      7   36   65   94  123  152  181  210  239  268  297  326  355  384  413
                                    442  471  500  529  558  587  616  645  674  703
            1  0  0  0     1.480      8   37   66   95  124  153  182  211  240  269  298  327  356  385  414
                                    443  472  501  530  559  588  617  646  675  704
            0  1  0  0     1.480      9   38   67   96  125  154  183  212  241  270  299  328  357  386  415
                                    444  473  502  531  560  589  618  647  676  705
            0  0  1  0     1.480     10   39   68   97  126  155  184  213  242  271  300  329  358  387  416
                                    445  474  503  532  561  590  619  648  677  706
            1  0  0  0     2.940     11   40   69   98  127  156  185  214  243  272  301  330  359  388  417
                                    446  475  504  533  562  591  620  649  678  707
            0  1  0  0     2.940     12   41   70   99  128  157  186  215  244  273  302  331  360  389  418
                                    447  476  505  534  563  592  621  650  679  708
            0  0  1  0     2.940     13   42   71  100  129  158  187  216  245  274  303  332  361  390  419
                                    448  477  506  535  564  593  622  651  680  709
            2  0  0  0     2.200     14   43   72  101  130  159  188  217  246  275  304  333  362  391  420
                                    449  478  507  536  565  594  623  652  681  710
            1  1  0  0     2.200     15   44   73  102  131  160  189  218  247  276  305  334  363  392  421
                                    450  479  508  537  566  595  624  653  682  711
            1  0  1  0     2.200     16   45   74  103  132  161  190  219  248  277  306  335  364  393  422
                                    451  480  509  538  567  596  625  654  683  712
            0  2  0  0     2.200     17   46   75  104  133  162  191  220  249  278  307  336  365  394  423
                                    452  481  510  539  568  597  626  655  684  713
            0  1  1  0     2.200     18   47   76  105  134  163  192  221  250  279  308  337  366  395  424
                                    453  482  511  540  569  598  627  656  685  714
            0  0  2  0     2.200     19   48   77  106  135  164  193  222  251  280  309  338  367  396  425
                                    454  483  512  541  570  599  628  657  686  715
            3  0  0  0     3.300     20   49   78  107  136  165  194  223  252  281  310  339  368  397  426
                                    455  484  513  542  571  600  629  658  687  716
            2  1  0  0     3.300     21   50   79  108  137  166  195  224  253  282  311  340  369  398  427
                                    456  485  514  543  572  601  630  659  688  717
            2  0  1  0     3.300     22   51   80  109  138  167  196  225  254  283  312  341  370  399  428
                                    457  486  515  544  573  602  631  660  689  718
            1  2  0  0     3.300     23   52   81  110  139  168  197  226  255  284  313  342  371  400  429
                                    458  487  516  545  574  603  632  661  690  719
            1  1  1  0     3.300     24   53   82  111  140  169  198  227  256  285  314  343  372  401  430
                                    459  488  517  546  575  604  633  662  691  720
            1  0  2  0     3.300     25   54   83  112  141  170  199  228  257  286  315  344  373  402  431
                                    460  489  518  547  576  605  634  663  692  721
            0  3  0  0     3.300     26   55   84  113  142  171  200  229  258  287  316  345  374  403  432
                                    461  490  519  548  577  606  635  664  693  722
            0  2  1  0     3.300     27   56   85  114  143  172  201  230  259  288  317  346  375  404  433
                                    462  491  520  549  578  607  636  665  694  723
            0  1  2  0     3.300     28   57   86  115  144  173  202  231  260  289  318  347  376  405  434
                                    463  492  521  550  579  608  637  666  695  724
            0  0  3  0     3.300     29   58   87  116  145  174  203  232  261  290  319  348  377  406  435
                                    464  493  522  551  580  609  638  667  696  725

 O                                   26   27
                                  ---------------------------------------------------------------------------
    Core    0  0  0  0     7.360    726  755
            0  0  0  1     1.720    727  756
            0  0  0  1     2.880    728  757
            0  0  0  1     7.580    729  758
            1  0  0  0     1.120    730  759
            0  1  0  0     1.120    731  760
            0  0  1  0     1.120    732  761
            1  0  0  0     2.080    733  762
            0  1  0  0     2.080    734  763
            0  0  1  0     2.080    735  764
            1  0  0  0     4.080    736  765
            0  1  0  0     4.080    737  766
            0  0  1  0     4.080    738  767
            2  0  0  0     2.000    739  768
            1  1  0  0     2.000    740  769
            1  0  1  0     2.000    741  770
            0  2  0  0     2.000    742  771
            0  1  1  0     2.000    743  772
            0  0  2  0     2.000    744  773
            3  0  0  0     3.000    745  774
            2  1  0  0     3.000    746  775
            2  0  1  0     3.000    747  776
            1  2  0  0     3.000    748  777
            1  1  1  0     3.000    749  778
            1  0  2  0     3.000    750  779
            0  3  0  0     3.000    751  780
            0  2  1  0     3.000    752  781
            0  1  2  0     3.000    753  782
            0  0  3  0     3.000    754  783

 H                                   28   29   30   31   32   33   34   35   36   37   38   39   40   41   42
                                     43   44   45   46   47   48   49   50   51   52   53   54   55   56   57
                                     58   59   60   61   62
                                  ---------------------------------------------------------------------------
            0  0  0  0     0.690    784  796  808  820  832  844  856  868  880  892  904  916  928  940  952
                                    964  976  988 1000 1012 1024 1036 1048 1060 1072 1084 1096 1108 1120 1132
                                   1144 1156 1168 1180 1192
            0  0  0  0     0.920    785  797  809  821  833  845  857  869  881  893  905  917  929  941  953
                                    965  977  989 1001 1013 1025 1037 1049 1061 1073 1085 1097 1109 1121 1133
                                   1145 1157 1169 1181 1193
            0  0  0  0     1.580    786  798  810  822  834  846  858  870  882  894  906  918  930  942  954
                                    966  978  990 1002 1014 1026 1038 1050 1062 1074 1086 1098 1110 1122 1134
                                   1146 1158 1170 1182 1194
            1  0  0  0     1.250    787  799  811  823  835  847  859  871  883  895  907  919  931  943  955
                                    967  979  991 1003 1015 1027 1039 1051 1063 1075 1087 1099 1111 1123 1135
                                   1147 1159 1171 1183 1195
            0  1  0  0     1.250    788  800  812  824  836  848  860  872  884  896  908  920  932  944  956
                                    968  980  992 1004 1016 1028 1040 1052 1064 1076 1088 1100 1112 1124 1136
                                   1148 1160 1172 1184 1196
            0  0  1  0     1.250    789  801  813  825  837  849  861  873  885  897  909  921  933  945  957
                                    969  981  993 1005 1017 1029 1041 1053 1065 1077 1089 1101 1113 1125 1137
                                   1149 1161 1173 1185 1197
            2  0  0  0     2.500    790  802  814  826  838  850  862  874  886  898  910  922  934  946  958
                                    970  982  994 1006 1018 1030 1042 1054 1066 1078 1090 1102 1114 1126 1138
                                   1150 1162 1174 1186 1198
            1  1  0  0     2.500    791  803  815  827  839  851  863  875  887  899  911  923  935  947  959
                                    971  983  995 1007 1019 1031 1043 1055 1067 1079 1091 1103 1115 1127 1139
                                   1151 1163 1175 1187 1199
            1  0  1  0     2.500    792  804  816  828  840  852  864  876  888  900  912  924  936  948  960
                                    972  984  996 1008 1020 1032 1044 1056 1068 1080 1092 1104 1116 1128 1140
                                   1152 1164 1176 1188 1200
            0  2  0  0     2.500    793  805  817  829  841  853  865  877  889  901  913  925  937  949  961
                                    973  985  997 1009 1021 1033 1045 1057 1069 1081 1093 1105 1117 1129 1141
                                   1153 1165 1177 1189 1201
            0  1  1  0     2.500    794  806  818  830  842  854  866  878  890  902  914  926  938  950  962
                                    974  986  998 1010 1022 1034 1046 1058 1070 1082 1094 1106 1118 1130 1142
                                   1154 1166 1178 1190 1202
            0  0  2  0     2.500    795  807  819  831  843  855  867  879  891  903  915  927  939  951  963
                                    975  987  999 1011 1023 1035 1047 1059 1071 1083 1095 1107 1119 1131 1143
                                   1155 1167 1179 1191 1203

 N                                   63   64
                                  ---------------------------------------------------------------------------
    Core    0  0  0  0     6.380   1204 1233
            0  0  0  1     1.500   1205 1234
            0  0  0  1     2.500   1206 1235
            0  0  0  1     5.150   1207 1236
            1  0  0  0     1.000   1208 1237
            0  1  0  0     1.000   1209 1238
            0  0  1  0     1.000   1210 1239
            1  0  0  0     1.880   1211 1240
            0  1  0  0     1.880   1212 1241
            0  0  1  0     1.880   1213 1242
            1  0  0  0     3.680   1214 1243
            0  1  0  0     3.680   1215 1244
            0  0  1  0     3.680   1216 1245
            2  0  0  0     2.200   1217 1246
            1  1  0  0     2.200   1218 1247
            1  0  1  0     2.200   1219 1248
            0  2  0  0     2.200   1220 1249
            0  1  1  0     2.200   1221 1250
            0  0  2  0     2.200   1222 1251
            3  0  0  0     3.300   1223 1252
            2  1  0  0     3.300   1224 1253
            2  0  1  0     3.300   1225 1254
            1  2  0  0     3.300   1226 1255
            1  1  1  0     3.300   1227 1256
            1  0  2  0     3.300   1228 1257
            0  3  0  0     3.300   1229 1258
            0  2  1  0     3.300   1230 1259
            0  1  2  0     3.300   1231 1260
            0  0  3  0     3.300   1232 1261

 Total number of charge fitting functions (nprimf)      4128
 Total number of Cartesian basis functions (naos)       1261
 Total number of Cartesian core functions  (ncos)         29

1
 ***************************************************************************************************



                                              ***********************
                                              *  T E C H N I C A L  *
                                              ***********************
  



 =============================================================
 P A R A L L E L I Z A T I O N  and  V E C T O R I Z A T I O N
 =============================================================
  
 Nr of parallel processes:                                4
 Maximum vector length in NumInt loops:                 128



 =====================
 S C F   U P D A T E S
 =====================
  
 Max. nr. of cycles:                               300
 Convergence criterion:                              0.0000010000
   secondary criterion:                              0.0010000000

 Mix parameter (when DIIS does not apply):           0.2000000000
 Mixed ADIIS+SDIIS will be used                  
    Max number of expansion vectors:                10
    Pure ADIIS when Max([F,P]) is above              0.1000000000
    Pure SDIIS when Max([F,P]) is below              0.0010000000
 Automatic ElectronSmearing (in case of problematic SCF convergence) disabled



 =================
 P R E C I S I O N  ***  (General: NumInt, NeglectFunctionTails, ...)  ***
 =================
  

 NumInt:           Target precision:                 4.0000000000
 -------           Initial precision:                4.0000000000
                   Min. precision (optimization):    4.0000000000

 Neglect Functions:          Basis functions:        0.1000000000E-05
 ------------------          Fit functions:          0.1000000000E-05



 ===========================
 L I N E A R   S C A L I N G
 ===========================
  

 Cut-off radii density fit:                        0.1000000000E-07
 Overlap cut-off criterion AO matrix elements:     0.1000000000E-05
 Cut-offs for Coulomb potential and fitted density:0.1000000000E-07
 Cut-off criterion for Coulomb multipole terms:    0.1000000000E-07
 Progressive Convergence parameter:                 0.000000000    
1
 ***************************************************************************************************



                                            ***************************
                                            *  C O M P U T A T I O N  *
                                            ***************************
  

 Number of elements of the density matrix on this node (used, total):    199817    795691



 ===========================================
 Numerical Integration : Fuzzy Cells (Becke)
 ===========================================
  
 Becke grid quality: NORMAL         
  
 Lebedev angular grid order:             min:  11 max:  23
 Nr. of radial points:                   min:  46 max:  52

 Total nr. of points:     404012
 Nr. of blocks:             3157
 Block length:               128
 Nr. of dummy points:         84


 Test of Precision of the Numerical Integration Grid
 ===================================================

 Integral of the Total Core Density:                  58.00001761650725
 Relative Error:                                       3.037E-07



 ========================
 Density Fitting (zlmFit)
 ========================
  
 ZlmFit Fit Quality: NORMAL         
  
 Max L-expansion:                        min:   6 max:   7
 Nr. of radial interpolation points:     min:  39 max:  48



 =====
 S C F  ***  ScaSCF  ***
 =====
  
 Initial density matrix is calculated as sum of fragments

 CYCLE    1
 SCF Error: norm([F,P])=      4.547290911156, max([F,P])=      0.110964566093
 ***** SPIN 1 *****
 orbitals (Q,E):
 ---------------
 A :70...89          ( 1.00    -0.4707)  ( 1.00    -0.4211)  ( 1.00    -0.4068)  ( 1.00    -0.4044)
                     ( 1.00    -0.4033)  ( 1.00    -0.4011)  ( 1.00    -0.3989)  ( 1.00    -0.3828)
                     ( 1.00    -0.3798)  ( 1.00    -0.3318)  ( 0.00    -0.2123)  ( 0.00    -0.2109)
                     ( 0.00    -0.2095)  ( 0.00    -0.2093)  ( 0.00    -0.1509)  ( 0.00    -0.1282)
                     ( 0.00    -0.0813)  ( 0.00    -0.0784)  ( 0.00    -0.0731)  ( 0.00    -0.0709)
 ***** SPIN 2 *****
 orbitals (Q,E):
 ---------------
 A :69...88          ( 1.00    -0.4806)  ( 1.00    -0.4707)  ( 1.00    -0.4211)  ( 1.00    -0.4068)
                     ( 1.00    -0.4044)  ( 1.00    -0.4033)  ( 1.00    -0.4011)  ( 1.00    -0.3989)
                     ( 1.00    -0.3828)  ( 1.00    -0.3798)  ( 0.00    -0.3318)  ( 0.00    -0.2123)
                     ( 0.00    -0.2109)  ( 0.00    -0.2095)  ( 0.00    -0.2093)  ( 0.00    -0.1509)
                     ( 0.00    -0.1282)  ( 0.00    -0.0813)  ( 0.00    -0.0784)  ( 0.00    -0.0731)
  
 Spin polar: 1 (Spin_A minus Spin_B electrons)

 CYCLE    2
  SDIIS (wt  0.000):  0.2556  0.7444
 A-DIIS (wt  1.000):  0.0000  1.0000
  DIIS coefficients:  0.0000  1.0000
 SCF Error: norm([F,P])=      2.153108160329, max([F,P])=      0.108819851903
 ***** SPIN 1 *****
 orbitals (Q,E):
 ---------------
 A :70...80          ( 1.00    -0.0992)  ( 1.00    -0.0965)  ( 1.00    -0.0951)  ( 1.00    -0.0882)
                     ( 1.00    -0.0810)  ( 1.00    -0.0756)  ( 1.00    -0.0714)  ( 1.00    -0.0335)
                     ( 1.00    -0.0323)  ( 1.00    -0.0046)  ( 0.00    -0.0018)
 ***** SPIN 2 *****
 orbitals (Q,E):
 ---------------
 A :69...79          ( 1.00    -0.1005)  ( 1.00    -0.0982)  ( 1.00    -0.0950)  ( 1.00    -0.0883)
                     ( 1.00    -0.0798)  ( 1.00    -0.0757)  ( 1.00    -0.0701)  ( 1.00    -0.0576)
                     ( 1.00    -0.0335)  ( 1.00    -0.0323)  ( 0.00    -0.0047)
  
 Spin polar: 1 (Spin_A minus Spin_B electrons)

 CYCLE    3
  SDIIS (wt  0.000):  0.0780  0.6295  0.2925
 A-DIIS (wt  1.000):  0.0000  0.7627  0.2373
  DIIS coefficients:  0.0000  0.7627  0.2373
 SCF Error: norm([F,P])=      3.992544427423, max([F,P])=      0.344358608915
 ***** SPIN 1 *****
 orbitals (Q,E):
 ---------------
 A :70...80          ( 1.00    -0.2390)  ( 1.00    -0.2276)  ( 1.00    -0.2209)  ( 1.00    -0.1907)
                     ( 1.00    -0.1756)  ( 1.00    -0.1700)  ( 1.00    -0.1668)  ( 1.00    -0.1610)
                     ( 1.00    -0.1347)  ( 1.00    -0.1081)  ( 0.00    -0.0300)
 ***** SPIN 2 *****
 orbitals (Q,E):
 ---------------
 A :69...79          ( 1.00    -0.2401)  ( 1.00    -0.2387)  ( 1.00    -0.2262)  ( 1.00    -0.2188)
                     ( 1.00    -0.1906)  ( 1.00    -0.1756)  ( 1.00    -0.1699)  ( 1.00    -0.1666)
                     ( 1.00    -0.1596)  ( 1.00    -0.1287)  ( 0.00    -0.0754)
  
 Spin polar: 1 (Spin_A minus Spin_B electrons)

 CYCLE    4
  SDIIS (wt  0.211):  0.4500  0.1576  0.3924
 A-DIIS (wt  0.789):  0.2797  0.0000  0.7203
  DIIS coefficients:  0.3157  0.0333  0.6511
 SCF Error: norm([F,P])=      1.371929678052, max([F,P])=      0.079105453849
 ***** SPIN 1 *****
 orbitals (Q,E):
 ---------------
 A :70...80          ( 1.00    -0.2725)  ( 1.00    -0.2706)  ( 1.00    -0.2641)  ( 1.00    -0.2598)
                     ( 1.00    -0.2520)  ( 1.00    -0.2433)  ( 1.00    -0.2098)  ( 1.00    -0.1753)
                     ( 1.00    -0.1077)  ( 1.00    -0.0951)  ( 0.00    -0.0757)
 ***** SPIN 2 *****
 orbitals (Q,E):
 ---------------
 A :69...79          ( 1.00    -0.2718)  ( 1.00    -0.2678)  ( 1.00    -0.2641)  ( 1.00    -0.2585)
                     ( 1.00    -0.2519)  ( 1.00    -0.2433)  ( 1.00    -0.2305)  ( 1.00    -0.2098)
                     ( 1.00    -0.1750)  ( 1.00    -0.1076)  ( 0.00    -0.0802)
  
 Spin polar: 1 (Spin_A minus Spin_B electrons)

 CYCLE    5
  SDIIS (wt  0.000):  0.3037  0.0371  0.5109  0.1484
 A-DIIS (wt  1.000):  0.1719  0.0000  0.6747  0.1534
  DIIS coefficients:  0.1719  0.0000  0.6747  0.1534
 SCF Error: norm([F,P])=      2.732094154895, max([F,P])=      0.364490881126
 ***** SPIN 1 *****
 orbitals (Q,E):
 ---------------
 A :70...80          ( 1.00    -0.3035)  ( 1.00    -0.2607)  ( 1.00    -0.2590)  ( 1.00    -0.2571)
                     ( 1.00    -0.2554)  ( 1.00    -0.2381)  ( 1.00    -0.2357)  ( 1.00    -0.2266)
                     ( 1.00    -0.2112)  ( 1.00    -0.2086)  ( 0.00    -0.0672)
 ***** SPIN 2 *****
 orbitals (Q,E):
 ---------------
 A :69...79          ( 1.00    -0.3125)  ( 1.00    -0.3035)  ( 1.00    -0.2607)  ( 1.00    -0.2587)
                     ( 1.00    -0.2568)  ( 1.00    -0.2539)  ( 1.00    -0.2381)  ( 1.00    -0.2357)
                     ( 1.00    -0.2261)  ( 1.00    -0.2022)  ( 0.00    -0.1657)
  
 Spin polar: 1 (Spin_A minus Spin_B electrons)

 CYCLE    6
  SDIIS (wt  0.764):  0.0640  0.0170  0.3304  0.0584  0.5303
 A-DIIS (wt  0.236):  0.0000  0.0000  0.1601  0.0000  0.8399
  DIIS coefficients:  0.0489  0.0130  0.2902  0.0446  0.6034
 SCF Error: norm([F,P])=      0.612639740737, max([F,P])=      0.024368046414
 ***** SPIN 1 *****
 orbitals (Q,E):
 ---------------
 A :70...80          ( 1.00    -0.2734)  ( 1.00    -0.2536)  ( 1.00    -0.2331)  ( 1.00    -0.2306)
                     ( 1.00    -0.2262)  ( 1.00    -0.2224)  ( 1.00    -0.2185)  ( 1.00    -0.2147)
                     ( 1.00    -0.2081)  ( 1.00    -0.1827)  ( 0.00    -0.0540)
 ***** SPIN 2 *****
 orbitals (Q,E):
 ---------------
 A :69...79          ( 1.00    -0.2781)  ( 1.00    -0.2734)  ( 1.00    -0.2456)  ( 1.00    -0.2326)
                     ( 1.00    -0.2278)  ( 1.00    -0.2249)  ( 1.00    -0.2224)  ( 1.00    -0.2143)
                     ( 1.00    -0.2079)  ( 1.00    -0.1827)  ( 0.00    -0.1768)
  
 Spin polar: 1 (Spin_A minus Spin_B electrons)

 CYCLE    7
  SDIIS (wt  0.764): -0.0222  0.0161  0.0895  0.0028  0.4612  0.4526
 A-DIIS (wt  0.236):  0.0000  0.0000  0.0000  0.0000  0.2121  0.7879
  DIIS coefficients: -0.0170  0.0123  0.0684  0.0021  0.4024  0.5317
 SCF Error: norm([F,P])=      0.330146204330, max([F,P])=      0.033596515885
 ***** SPIN 1 *****
 orbitals (Q,E):
 ---------------
 A :70...80          ( 1.00    -0.2745)  ( 1.00    -0.2430)  ( 1.00    -0.2422)  ( 1.00    -0.2270)
                     ( 1.00    -0.2230)  ( 1.00    -0.2189)  ( 1.00    -0.2157)  ( 1.00    -0.2077)
                     ( 1.00    -0.2002)  ( 1.00    -0.1929)  ( 0.00    -0.0566)
 ***** SPIN 2 *****
 orbitals (Q,E):
 ---------------
 A :69...79          ( 1.00    -0.2795)  ( 1.00    -0.2745)  ( 1.00    -0.2425)  ( 1.00    -0.2404)
                     ( 1.00    -0.2262)  ( 1.00    -0.2230)  ( 1.00    -0.2094)  ( 1.00    -0.2067)
                     ( 1.00    -0.1997)  ( 1.00    -0.1929)  ( 0.00    -0.1701)
  
 Spin polar: 1 (Spin_A minus Spin_B electrons)

 CYCLE    8
  SDIIS (wt  0.764): -0.0187  0.0046  0.0267 -0.0011  0.2505  0.4136  0.3244
 A-DIIS (wt  0.236):  0.0000  0.0000  0.0000  0.0000  0.0000  0.3159  0.6841
  DIIS coefficients: -0.0143  0.0036  0.0204 -0.0008  0.1913  0.3905  0.4093
 SCF Error: norm([F,P])=      0.206804722614, max([F,P])=      0.025429814737
 ***** SPIN 1 *****
 orbitals (Q,E):
 ---------------
 A :70...80          ( 1.00    -0.2726)  ( 1.00    -0.2424)  ( 1.00    -0.2415)  ( 1.00    -0.2321)
                     ( 1.00    -0.2246)  ( 1.00    -0.2236)  ( 1.00    -0.2163)  ( 1.00    -0.2064)
                     ( 1.00    -0.1987)  ( 1.00    -0.1919)  ( 0.00    -0.0543)
 ***** SPIN 2 *****
 orbitals (Q,E):
 ---------------
 A :69...79          ( 1.00    -0.2779)  ( 1.00    -0.2726)  ( 1.00    -0.2412)  ( 1.00    -0.2388)
                     ( 1.00    -0.2275)  ( 1.00    -0.2236)  ( 1.00    -0.2210)  ( 1.00    -0.2063)
                     ( 1.00    -0.1985)  ( 1.00    -0.1919)  ( 0.00    -0.1689)
  
 Spin polar: 1 (Spin_A minus Spin_B electrons)

 CYCLE    9
  SDIIS (wt  0.926): -0.0037  0.0009  0.0094 -0.0013  0.0741  0.2026  0.3221  0.3958
 A-DIIS (wt  0.074):  0.0000  0.0000  0.0000  0.0000  0.0000  0.0000  0.1988  0.8012
  DIIS coefficients: -0.0034  0.0008  0.0087 -0.0012  0.0687  0.1877  0.3130  0.4257
 SCF Error: norm([F,P])=      0.086005570083, max([F,P])=      0.008292373161
 ***** SPIN 1 *****
 orbitals (Q,E):
 ---------------
 A :70...80          ( 1.00    -0.2722)  ( 1.00    -0.2417)  ( 1.00    -0.2411)  ( 1.00    -0.2307)
                     ( 1.00    -0.2238)  ( 1.00    -0.2234)  ( 1.00    -0.2184)  ( 1.00    -0.2069)
                     ( 1.00    -0.2000)  ( 1.00    -0.1887)  ( 0.00    -0.0548)
 ***** SPIN 2 *****
 orbitals (Q,E):
 ---------------
 A :69...79          ( 1.00    -0.2776)  ( 1.00    -0.2722)  ( 1.00    -0.2410)  ( 1.00    -0.2385)
                     ( 1.00    -0.2267)  ( 1.00    -0.2235)  ( 1.00    -0.2188)  ( 1.00    -0.2068)
                     ( 1.00    -0.1999)  ( 1.00    -0.1887)  ( 0.00    -0.1703)
  
 Spin polar: 1 (Spin_A minus Spin_B electrons)

 CYCLE   10
  SDIIS (wt  0.997):  0.0000 -0.0006  0.0029  0.0002  0.0090  0.0611  0.1551  0.2947  0.4776
 A-DIIS (wt  0.003):  0.0000  0.0000  0.0000  0.0000  0.0000  0.0000  0.0000  0.0327  0.9673
  DIIS coefficients:  0.0000 -0.0006  0.0029  0.0002  0.0090  0.0609  0.1546  0.2939  0.4790
 SCF Error: norm([F,P])=      0.020916523890, max([F,P])=      0.001298506502
 ***** SPIN 1 *****
 orbitals (Q,E):
 ---------------
 A :70...80          ( 1.00    -0.2728)  ( 1.00    -0.2418)  ( 1.00    -0.2410)  ( 1.00    -0.2309)
                     ( 1.00    -0.2240)  ( 1.00    -0.2231)  ( 1.00    -0.2182)  ( 1.00    -0.2078)
                     ( 1.00    -0.2010)  ( 1.00    -0.1903)  ( 0.00    -0.0547)
 ***** SPIN 2 *****
 orbitals (Q,E):
 ---------------
 A :69...79          ( 1.00    -0.2780)  ( 1.00    -0.2728)  ( 1.00    -0.2409)  ( 1.00    -0.2385)
                     ( 1.00    -0.2269)  ( 1.00    -0.2232)  ( 1.00    -0.2190)  ( 1.00    -0.2078)
                     ( 1.00    -0.2010)  ( 1.00    -0.1903)  ( 0.00    -0.1698)
  
 Spin polar: 1 (Spin_A minus Spin_B electrons)

 CYCLE   11
  SDIIS (wt  1.000):  0.0004 -0.0002  0.0002  0.0001 -0.0040  0.0030  0.0294  0.0945  0.2527  0.6239
  DIIS coefficients:  0.0004 -0.0002  0.0002  0.0001 -0.0040  0.0030  0.0294  0.0945  0.2527  0.6239
 SCF Error: norm([F,P])=      0.005084630141, max([F,P])=      0.000188928576
 ***** SPIN 1 *****
 orbitals (Q,E):
 ---------------
 A :70...80          ( 1.00    -0.2728)  ( 1.00    -0.2417)  ( 1.00    -0.2410)  ( 1.00    -0.2308)
                     ( 1.00    -0.2239)  ( 1.00    -0.2232)  ( 1.00    -0.2182)  ( 1.00    -0.2078)
                     ( 1.00    -0.2010)  ( 1.00    -0.1903)  ( 0.00    -0.0546)
 ***** SPIN 2 *****
 orbitals (Q,E):
 ---------------
 A :69...79          ( 1.00    -0.2780)  ( 1.00    -0.2728)  ( 1.00    -0.2409)  ( 1.00    -0.2385)
                     ( 1.00    -0.2269)  ( 1.00    -0.2232)  ( 1.00    -0.2188)  ( 1.00    -0.2077)
                     ( 1.00    -0.2009)  ( 1.00    -0.1903)  ( 0.00    -0.1695)
  
 Spin polar: 1 (Spin_A minus Spin_B electrons)

 CYCLE   12
  SDIIS (wt  1.000):  0.0000 -0.0005  0.0000 -0.0032 -0.0067 -0.0068  0.0168  0.0919  0.4527  0.4558
  DIIS coefficients:  0.0000 -0.0005  0.0000 -0.0032 -0.0067 -0.0068  0.0168  0.0919  0.4527  0.4558
 SCF Error: norm([F,P])=      0.003596700008, max([F,P])=      0.000206044072
 ***** SPIN 1 *****
 orbitals (Q,E):
 ---------------
 A :70...80          ( 1.00    -0.2728)  ( 1.00    -0.2417)  ( 1.00    -0.2410)  ( 1.00    -0.2309)
                     ( 1.00    -0.2240)  ( 1.00    -0.2232)  ( 1.00    -0.2182)  ( 1.00    -0.2077)
                     ( 1.00    -0.2008)  ( 1.00    -0.1902)  ( 0.00    -0.0546)
 ***** SPIN 2 *****
 orbitals (Q,E):
 ---------------
 A :69...79          ( 1.00    -0.2780)  ( 1.00    -0.2728)  ( 1.00    -0.2409)  ( 1.00    -0.2384)
                     ( 1.00    -0.2268)  ( 1.00    -0.2232)  ( 1.00    -0.2188)  ( 1.00    -0.2076)
                     ( 1.00    -0.2008)  ( 1.00    -0.1902)  ( 0.00    -0.1694)
  
 Spin polar: 1 (Spin_A minus Spin_B electrons)

 CYCLE   13
  SDIIS (wt  1.000): -0.0005  0.0001 -0.0021 -0.0063 -0.0146 -0.0162 -0.0187  0.1115  0.3012  0.6456
  DIIS coefficients: -0.0005  0.0001 -0.0021 -0.0063 -0.0146 -0.0162 -0.0187  0.1115  0.3012  0.6456
 SCF Error: norm([F,P])=      0.001460845236, max([F,P])=      0.000118376502
 ***** SPIN 1 *****
 orbitals (Q,E):
 ---------------
 A :70...80          ( 1.00    -0.2728)  ( 1.00    -0.2417)  ( 1.00    -0.2410)  ( 1.00    -0.2309)
                     ( 1.00    -0.2240)  ( 1.00    -0.2232)  ( 1.00    -0.2182)  ( 1.00    -0.2077)
                     ( 1.00    -0.2009)  ( 1.00    -0.1902)  ( 0.00    -0.0545)
 ***** SPIN 2 *****
 orbitals (Q,E):
 ---------------
 A :69...79          ( 1.00    -0.2780)  ( 1.00    -0.2728)  ( 1.00    -0.2408)  ( 1.00    -0.2384)
                     ( 1.00    -0.2269)  ( 1.00    -0.2232)  ( 1.00    -0.2188)  ( 1.00    -0.2077)
                     ( 1.00    -0.2009)  ( 1.00    -0.1902)  ( 0.00    -0.1694)
  
 Spin polar: 1 (Spin_A minus Spin_B electrons)

 CYCLE   14
  SDIIS (wt  1.000):  0.0001 -0.0001 -0.0016 -0.0066 -0.0116 -0.0303 -0.0216  0.0970  0.3855  0.5893
  DIIS coefficients:  0.0001 -0.0001 -0.0016 -0.0066 -0.0116 -0.0303 -0.0216  0.0970  0.3855  0.5893
 SCF Error: norm([F,P])=      0.000631561106, max([F,P])=      0.000042983921
 ***** SPIN 1 *****
 orbitals (Q,E):
 ---------------
 A :70...80          ( 1.00    -0.2728)  ( 1.00    -0.2417)  ( 1.00    -0.2410)  ( 1.00    -0.2310)
                     ( 1.00    -0.2240)  ( 1.00    -0.2232)  ( 1.00    -0.2182)  ( 1.00    -0.2077)
                     ( 1.00    -0.2009)  ( 1.00    -0.1902)  ( 0.00    -0.0546)
 ***** SPIN 2 *****
 orbitals (Q,E):
 ---------------
 A :69...79          ( 1.00    -0.2780)  ( 1.00    -0.2728)  ( 1.00    -0.2408)  ( 1.00    -0.2384)
                     ( 1.00    -0.2269)  ( 1.00    -0.2232)  ( 1.00    -0.2189)  ( 1.00    -0.2077)
                     ( 1.00    -0.2009)  ( 1.00    -0.1902)  ( 0.00    -0.1694)
  
 Spin polar: 1 (Spin_A minus Spin_B electrons)

 CYCLE   15
  SDIIS (wt  1.000):  0.0001  0.0005  0.0009  0.0005 -0.0074 -0.0349 -0.0279  0.0089  0.3209  0.7384
  DIIS coefficients:  0.0001  0.0005  0.0009  0.0005 -0.0074 -0.0349 -0.0279  0.0089  0.3209  0.7384
 SCF Error: norm([F,P])=      0.000276271766, max([F,P])=      0.000016082410
 ***** SPIN 1 *****
 orbitals (Q,E):
 ---------------
 A :70...80          ( 1.00    -0.2728)  ( 1.00    -0.2417)  ( 1.00    -0.2410)  ( 1.00    -0.2310)
                     ( 1.00    -0.2240)  ( 1.00    -0.2232)  ( 1.00    -0.2183)  ( 1.00    -0.2077)
                     ( 1.00    -0.2008)  ( 1.00    -0.1902)  ( 0.00    -0.0546)
 ***** SPIN 2 *****
 orbitals (Q,E):
 ---------------
 A :69...79          ( 1.00    -0.2780)  ( 1.00    -0.2728)  ( 1.00    -0.2408)  ( 1.00    -0.2384)
                     ( 1.00    -0.2269)  ( 1.00    -0.2232)  ( 1.00    -0.2189)  ( 1.00    -0.2076)
                     ( 1.00    -0.2008)  ( 1.00    -0.1902)  ( 0.00    -0.1694)
  
 Spin polar: 1 (Spin_A minus Spin_B electrons)

 CYCLE   16
  SDIIS (wt  1.000): -0.0001 -0.0003 -0.0009 -0.0052 -0.0179 -0.0117  0.0109  0.1621  0.4306  0.4324
  DIIS coefficients: -0.0001 -0.0003 -0.0009 -0.0052 -0.0179 -0.0117  0.0109  0.1621  0.4306  0.4324
 SCF Error: norm([F,P])=      0.000157616949, max([F,P])=      0.000012216054
 ***** SPIN 1 *****
 orbitals (Q,E):
 ---------------
 A :70...80          ( 1.00    -0.2728)  ( 1.00    -0.2417)  ( 1.00    -0.2410)  ( 1.00    -0.2310)
                     ( 1.00    -0.2240)  ( 1.00    -0.2232)  ( 1.00    -0.2183)  ( 1.00    -0.2077)
                     ( 1.00    -0.2009)  ( 1.00    -0.1902)  ( 0.00    -0.0546)
 ***** SPIN 2 *****
 orbitals (Q,E):
 ---------------
 A :69...79          ( 1.00    -0.2780)  ( 1.00    -0.2728)  ( 1.00    -0.2408)  ( 1.00    -0.2384)
                     ( 1.00    -0.2269)  ( 1.00    -0.2232)  ( 1.00    -0.2189)  ( 1.00    -0.2077)
                     ( 1.00    -0.2009)  ( 1.00    -0.1902)  ( 0.00    -0.1694)
  
 Spin polar: 1 (Spin_A minus Spin_B electrons)

 CYCLE   17
  SDIIS (wt  1.000):  0.0000 -0.0002 -0.0021 -0.0085 -0.0059  0.0047  0.0658  0.1862  0.2283  0.5318
  DIIS coefficients:  0.0000 -0.0002 -0.0021 -0.0085 -0.0059  0.0047  0.0658  0.1862  0.2283  0.5318
 SCF Error: norm([F,P])=      0.000043765009, max([F,P])=      0.000002426112
 ***** SPIN 1 *****
 orbitals (Q,E):
 ---------------
 A :70...80          ( 1.00    -0.2728)  ( 1.00    -0.2417)  ( 1.00    -0.2410)  ( 1.00    -0.2310)
                     ( 1.00    -0.2240)  ( 1.00    -0.2232)  ( 1.00    -0.2182)  ( 1.00    -0.2077)
                     ( 1.00    -0.2009)  ( 1.00    -0.1902)  ( 0.00    -0.0546)
 ***** SPIN 2 *****
 orbitals (Q,E):
 ---------------
 A :69...79          ( 1.00    -0.2780)  ( 1.00    -0.2728)  ( 1.00    -0.2408)  ( 1.00    -0.2384)
                     ( 1.00    -0.2269)  ( 1.00    -0.2232)  ( 1.00    -0.2189)  ( 1.00    -0.2077)
                     ( 1.00    -0.2009)  ( 1.00    -0.1902)  ( 0.00    -0.1694)
  
 Spin polar: 1 (Spin_A minus Spin_B electrons)

 CYCLE   18
  SDIIS (wt  1.000): -0.0001 -0.0005 -0.0025 -0.0022 -0.0015  0.0082  0.0391  0.0732  0.4211  0.4654
  DIIS coefficients: -0.0001 -0.0005 -0.0025 -0.0022 -0.0015  0.0082  0.0391  0.0732  0.4211  0.4654
 SCF Error: norm([F,P])=      0.000035486052, max([F,P])=      0.000002486762
 ***** SPIN 1 *****
 orbitals (Q,E):
 ---------------
 A :70...80          ( 1.00    -0.2728)  ( 1.00    -0.2417)  ( 1.00    -0.2410)  ( 1.00    -0.2310)
                     ( 1.00    -0.2240)  ( 1.00    -0.2232)  ( 1.00    -0.2182)  ( 1.00    -0.2077)
                     ( 1.00    -0.2009)  ( 1.00    -0.1902)  ( 0.00    -0.0546)
 ***** SPIN 2 *****
 orbitals (Q,E):
 ---------------
 A :69...79          ( 1.00    -0.2780)  ( 1.00    -0.2728)  ( 1.00    -0.2408)  ( 1.00    -0.2384)
                     ( 1.00    -0.2269)  ( 1.00    -0.2232)  ( 1.00    -0.2189)  ( 1.00    -0.2077)
                     ( 1.00    -0.2009)  ( 1.00    -0.1902)  ( 0.00    -0.1694)
  
 Spin polar: 1 (Spin_A minus Spin_B electrons)

 CYCLE   19
  SDIIS (wt  1.000):  0.0002  0.0005  0.0000 -0.0026 -0.0110 -0.0174 -0.0045  0.1498  0.2644  0.6207
  DIIS coefficients:  0.0002  0.0005  0.0000 -0.0026 -0.0110 -0.0174 -0.0045  0.1498  0.2644  0.6207
 SCF Error: norm([F,P])=      0.000010686709, max([F,P])=      0.000000901195
 ***** SPIN 1 *****
 orbitals (Q,E):
 ---------------
 A :70...80          ( 1.00    -0.2728)  ( 1.00    -0.2417)  ( 1.00    -0.2410)  ( 1.00    -0.2310)
                     ( 1.00    -0.2240)  ( 1.00    -0.2232)  ( 1.00    -0.2183)  ( 1.00    -0.2077)
                     ( 1.00    -0.2009)  ( 1.00    -0.1902)  ( 0.00    -0.0546)
 ***** SPIN 2 *****
 orbitals (Q,E):
 ---------------
 A :69...79          ( 1.00    -0.2780)  ( 1.00    -0.2728)  ( 1.00    -0.2408)  ( 1.00    -0.2384)
                     ( 1.00    -0.2269)  ( 1.00    -0.2232)  ( 1.00    -0.2189)  ( 1.00    -0.2077)
                     ( 1.00    -0.2009)  ( 1.00    -0.1902)  ( 0.00    -0.1694)
  
 Spin polar: 1 (Spin_A minus Spin_B electrons)

 CYCLE   20
  SDIIS (wt  1.000):  0.0002  0.0005  0.0006 -0.0016 -0.0052 -0.0034  0.0040  0.0308  0.2870  0.6871
  DIIS coefficients:  0.0002  0.0005  0.0006 -0.0016 -0.0052 -0.0034  0.0040  0.0308  0.2870  0.6871
 SCF Error: norm([F,P])=      0.000004911245, max([F,P])=      0.000000484856
 ***** SPIN 1 *****
 orbitals (Q,E):
 ---------------
 A :70...80          ( 1.00    -0.2728)  ( 1.00    -0.2417)  ( 1.00    -0.2410)  ( 1.00    -0.2310)
                     ( 1.00    -0.2240)  ( 1.00    -0.2232)  ( 1.00    -0.2183)  ( 1.00    -0.2077)
                     ( 1.00    -0.2009)  ( 1.00    -0.1902)  ( 0.00    -0.0546)
 ***** SPIN 2 *****
 orbitals (Q,E):
 ---------------
 A :69...79          ( 1.00    -0.2780)  ( 1.00    -0.2728)  ( 1.00    -0.2408)  ( 1.00    -0.2384)
                     ( 1.00    -0.2269)  ( 1.00    -0.2232)  ( 1.00    -0.2189)  ( 1.00    -0.2077)
                     ( 1.00    -0.2009)  ( 1.00    -0.1902)  ( 0.00    -0.1694)
  
 Spin polar: 1 (Spin_A minus Spin_B electrons)

 SCF CONVERGED

 CYCLE   21
 *** Using FIT density in Focky
  SDIIS (wt  1.000):  0.0001  0.0002 -0.0010 -0.0040 -0.0047 -0.0223 -0.0155  0.1046  0.4670  0.4755
  DIIS coefficients:  0.0001  0.0002 -0.0010 -0.0040 -0.0047 -0.0223 -0.0155  0.1046  0.4670  0.4755
 SCF Error: norm([F,P])=      0.000003750919, max([F,P])=      0.000000238086
 ***** SPIN 1 *****
 orbitals (Q,E):
 ---------------
 A :70...89          ( 1.00    -0.2728)  ( 1.00    -0.2417)  ( 1.00    -0.2410)  ( 1.00    -0.2310)
                     ( 1.00    -0.2240)  ( 1.00    -0.2232)  ( 1.00    -0.2183)  ( 1.00    -0.2077)
                     ( 1.00    -0.2009)  ( 1.00    -0.1902)  ( 0.00    -0.0546)  ( 0.00    -0.0513)
                     ( 0.00    -0.0392)  ( 0.00    -0.0352)  ( 0.00    -0.0324)  ( 0.00    -0.0252)
                     ( 0.00    -0.0174)  ( 0.00    -0.0154)  ( 0.00    -0.0030)  ( 0.00     0.0022)
 ***** SPIN 2 *****
 orbitals (Q,E):
 ---------------
 A :69...88          ( 1.00    -0.2780)  ( 1.00    -0.2728)  ( 1.00    -0.2408)  ( 1.00    -0.2384)
                     ( 1.00    -0.2269)  ( 1.00    -0.2232)  ( 1.00    -0.2189)  ( 1.00    -0.2077)
                     ( 1.00    -0.2009)  ( 1.00    -0.1902)  ( 0.00    -0.1694)  ( 0.00    -0.0522)
                     ( 0.00    -0.0507)  ( 0.00    -0.0355)  ( 0.00    -0.0328)  ( 0.00    -0.0261)
                     ( 0.00    -0.0188)  ( 0.00    -0.0165)  ( 0.00    -0.0123)  ( 0.00    -0.0025)
  
 Spin polar: 1 (Spin_A minus Spin_B electrons)


 Fit test: (difference of exact and fit density, squared integrated, result summed over spins)
         SCF:                                          0.00045266065406

 Gross Charges per Atom (Z minus electrons)
 ==========================================
             0.0906    0.3270    0.6263   -0.5996   -0.2194   -0.1679   -0.0970   -0.2820   -0.2264   -0.2072
            -0.2203   -0.2288    0.5803   -0.1805   -0.2121   -0.1706   -0.2180   -0.2261   -0.1840    0.8189
            -0.7002   -0.1915    0.2991    0.0190    0.4203   -0.0665   -0.1541    0.5607    0.5555   -0.2415
            -0.1377    0.1264    0.2838    0.2374    0.2594    0.2299    0.2784   -0.2601   -0.2744   -0.2708
            -0.2758    0.1113    0.6269   -0.2348   -0.2306   -0.2398    0.6543   -0.2337   -0.2512   -0.2048
             0.6281   -0.2442   -0.2399    0.1761    0.3066    0.2491    0.2405    0.2411    0.2825   -0.2749
            -0.2649   -0.2598   -0.2621   -0.2765
 Net Total:  0.00000000



 =================================================================
 M U L T I P O L E   D E R I V E D   C H A R G E   A N A L Y S I S
 =================================================================

 See: M. Swart, P.Th. van Duijnen, J.G. Snijders, J.Comput.Chem., (2001), p. 79-88.

 ----------------------------------------------------- 
 MDC atomic charges (includes spinA + spinB electrons)
 ----------------------------------------------------- 

        Atom    Level:     MDC-m        MDC-d        MDC-q
 ---------------------------------------------------------
     1     C            0.114297     0.083588     0.167767
     2     C            0.132302     0.106808     0.039201
     3     C            0.263198     0.304091     0.294793
     4     O           -0.358758    -0.430402    -0.429438
     5     H           -0.069466    -0.055356    -0.069188
     6     H           -0.069315    -0.046416    -0.061561
     7     H           -0.042672    -0.001433     0.014068
     8     H           -0.064058    -0.035772    -0.005412
     9     H           -0.070109    -0.063791    -0.062913
    10     H           -0.069963    -0.061129    -0.037530
    11     H           -0.075829    -0.063952    -0.084809
    12     H           -0.065127    -0.053941    -0.018818
    13     C            0.221341     0.177578     0.155799
    14     H           -0.065597    -0.047628    -0.027608
    15     H           -0.066194    -0.041107    -0.038194
    16     H           -0.078568    -0.068070    -0.077767
    17     H           -0.062628    -0.042709    -0.048076
    18     H           -0.066884    -0.047156    -0.032957
    19     N           -0.104539    -0.206565    -0.420689
    20     C            0.307380     0.408559     0.565903
    21     O           -0.446284    -0.557360    -0.571319
    22     N           -0.101122    -0.206914    -0.367220
    23     C            0.189291     0.181868     0.210033
    24     H            0.026411     0.128231     0.204468
    25     C            0.180846     0.170862     0.181872
    26     H            0.022274     0.123467     0.183279
    27     H           -0.049365    -0.017073    -0.013586
    28     C            0.211555     0.176700     0.200220
    29     C            0.216190     0.164292     0.134446
    30     H           -0.054509    -0.020263     0.089114
    31     H           -0.054978    -0.017014    -0.002641
    32     C            0.011417     0.000094    -0.007709
    33     C            0.054781     0.027686    -0.049677
    34     C            0.058702     0.032960    -0.078420
    35     C            0.057455     0.031349    -0.056103
    36     C            0.058997     0.033365    -0.064893
    37     C            0.057978     0.033155    -0.071181
    38     H           -0.064348    -0.035162     0.048541
    39     H           -0.065214    -0.039890     0.077068
    40     H           -0.064807    -0.039807     0.044456
    41     H           -0.065077    -0.040756     0.050022
    42     C            0.066595     0.028009     0.068345
    43     C            0.209172     0.173784     0.178248
    44     H           -0.075344    -0.061931    -0.069037
    45     H           -0.075229    -0.062202    -0.066456
    46     H           -0.072647    -0.057652    -0.062573
    47     C            0.208558     0.174855     0.191215
    48     H           -0.069973    -0.051042    -0.052766
    49     H           -0.080864    -0.074159    -0.075493
    50     H           -0.076985    -0.069967    -0.076722
    51     C            0.205720     0.169087     0.172250
    52     H           -0.077008    -0.065384    -0.069989
    53     H           -0.076192    -0.062565    -0.056826
    54     C            0.013384    -0.003865     0.025297
    55     C            0.059271     0.034459    -0.104065
    56     C            0.067421     0.040033    -0.137213
    57     C            0.064186     0.036310    -0.134651
    58     C            0.064750     0.039673    -0.129017
    59     C            0.056709     0.033919    -0.162814
    60     H           -0.060988    -0.031857     0.091493
    61     H           -0.058632    -0.031649     0.128649
    62     H           -0.058535    -0.032540     0.129267
    63     H           -0.058871    -0.032323     0.121983
    64     H           -0.063499    -0.037980     0.127532

 -------------------------------- 
 MDC spin density (spinA - spinB)
 -------------------------------- 

        Atom    Level:     MDC-m        MDC-d        MDC-q
 ---------------------------------------------------------
     1     C            0.014019     0.023717    -0.006430
     2     C            0.545798     0.532601     0.657582
     3     C            0.047374     0.062995     0.089465
     4     O            0.283967     0.275861     0.255117
     5     H            0.000003     0.000001     0.000002
     6     H            0.006023     0.010761     0.004415
     7     H            0.014783     0.026287    -0.033102
     8     H           -0.001026    -0.006811    -0.037089
     9     H            0.000002    -0.000042    -0.000043
    10     H            0.000028     0.000197     0.000501
    11     H            0.000004    -0.000019    -0.000088
    12     H            0.000003     0.000005     0.000003
    13     C            0.039704     0.032659     0.044728
    14     H            0.001056    -0.000185    -0.002097
    15     H            0.000000    -0.000008    -0.000040
    16     H            0.000681     0.001250     0.001011
    17     H            0.008391     0.003940     0.003742
    18     H            0.001191    -0.000086    -0.008803
    19     N           -0.000157     0.000244     0.000030
    20     C           -0.000013    -0.000049     0.000089
    21     O            0.000055     0.000051     0.000076
    22     N            0.000461     0.000057     0.000523
    23     C           -0.000003     0.000030    -0.000199
    24     H           -0.000367     0.000966     0.000341
    25     C            0.000017    -0.000034     0.000075
    26     H            0.000332     0.000418    -0.000323
    27     H           -0.000008    -0.000005    -0.000013
    28     C            0.000030     0.000009     0.000009
    29     C            0.000016     0.000019    -0.000052
    30     H            0.000006    -0.000005    -0.000218
    31     H            0.000018     0.000014     0.000053
    32     C            0.000199     0.000213    -0.000108
    33     C            0.000105     0.000174     0.000385
    34     C            0.000638     0.000216    -0.000457
    35     C            0.000719     0.000674     0.000952
    36     C            0.000005    -0.000002    -0.000289
    37     C            0.000211     0.000201    -0.000141
    38     H            0.000036     0.000210     0.000825
    39     H            0.000025     0.000301     0.000779
    40     H            0.000013     0.000090     0.000031
    41     H            0.000000    -0.000027    -0.000185
    42     C            0.000067     0.000015     0.000093
    43     C            0.000094     0.000086     0.000101
    44     H            0.000004     0.000004     0.000013
    45     H            0.000004     0.000004     0.000024
    46     H            0.000015     0.000015     0.000026
    47     C            0.000083     0.000017     0.000172
    48     H            0.000016    -0.000034    -0.000012
    49     H           -0.000001     0.000006    -0.000010
    50     H            0.000084     0.000161     0.000352
    51     C            0.000520    -0.000102     0.000295
    52     H            0.000045    -0.000207    -0.000178
    53     H            0.000012     0.000031    -0.000144
    54     C            0.018635     0.017405     0.012348
    55     C            0.002688     0.002421     0.002576
    56     C            0.000985     0.000996    -0.000050
    57     C            0.004830     0.004519     0.006529
    58     C            0.000190     0.000596    -0.003077
    59     C            0.006205     0.005859     0.012194
    60     H            0.000346    -0.000065    -0.001335
    61     H            0.000066     0.000030    -0.000289
    62     H            0.000264     0.000478    -0.000522
    63     H            0.000257     0.000119     0.000269
    64     H            0.000254     0.000750    -0.000433



 ==========
 S**2 value  ***  see also R. Bulo et al., J.Am.Chem.Soc., 124 (2002) 13903-13910, note (29)  ***
 ==========
  
                                       exact      expectation value

 Total S2 (S squared)                  0.75000             0.75688



 =======================================================================
 Electrostatic potential at the Nuclei due to electrons and other nuclei
 =======================================================================
  
         Atom                  Potential
         ----                  ---------
     1)   C                  14.67069374
     2)   C                  14.67943672
     3)   C                  14.64078419
     4)   O                  22.32734502
     5)   H                   1.12864395
     6)   H                   1.09683669
     7)   H                   1.08080162
     8)   H                   1.09478791
     9)   H                   1.13008942
    10)   H                   1.13120703
    11)   H                   1.12803376
    12)   H                   1.13356204
    13)   C                  14.70493185
    14)   H                   1.10489986
    15)   H                   1.13147946
    16)   H                   1.12951457
    17)   H                   1.10348680
    18)   H                   1.10441231
    19)   N                  18.34169792
    20)   C                  14.62479624
    21)   O                  22.39101209
    22)   N                  18.34027135
    23)   C                  14.68146374
    24)   H                   1.04832840
    25)   C                  14.68703097
    26)   H                   1.04612673
    27)   H                   1.13074837
    28)   C                  14.73548568
    29)   C                  14.73722069
    30)   H                   1.12037290
    31)   H                   1.13576797
    32)   C                  14.71784470
    33)   C                  14.72755214
    34)   C                  14.72579290
    35)   C                  14.72738274
    36)   C                  14.72653074
    37)   C                  14.72995978
    38)   H                   1.11687428
    39)   H                   1.11538384
    40)   H                   1.11630076
    41)   H                   1.11594178
    42)   C                  14.69994526
    43)   C                  14.73717339
    44)   H                   1.13202086
    45)   H                   1.13271750
    46)   H                   1.13198238
    47)   C                  14.74349780
    48)   H                   1.13840254
    49)   H                   1.13581045
    50)   H                   1.13978858
    51)   C                  14.73504636
    52)   H                   1.12959165
    53)   H                   1.12861819
    54)   C                  14.69239536
    55)   C                  14.70884059
    56)   C                  14.70892488
    57)   C                  14.70997158
    58)   C                  14.70871905
    59)   C                  14.70805721
    60)   H                   1.09750840
    61)   H                   1.09973591
    62)   H                   1.09964677
    63)   H                   1.09915263
    64)   H                   1.09673837
 Mulliken charges used for AMS results%charges...
Bad geometry: added dihedral    23   19    4   33
 Using automatic Hessian for delocalized coordinates.
 *** PESPoint(1)_GOStep1 ***

 Energy gradients wrt nuclear displacements
 ==========================================

     Atom      Cartesian (a.u./angstrom)
                 X         Y         Z
 ----------------------------------------
     1 C    -0.003712 -0.002288 -0.005208
     2 C     0.001539  0.000488  0.000129
     3 C    -0.005961  0.002826 -0.000013
     4 O     0.010491 -0.005442 -0.001201
     5 H    -0.000550 -0.000098 -0.000786
     6 H    -0.002273 -0.000803  0.002132
     7 H     0.001125  0.001133  0.000439
     8 H     0.000325  0.001186 -0.001101
     9 H    -0.000567  0.001059 -0.000158
    10 H    -0.001528 -0.000372  0.000619
    11 H    -0.000962  0.000291  0.000766
    12 H    -0.000907 -0.000715 -0.000993
    13 C     0.002801  0.003399  0.003444
    14 H     0.001071  0.000129 -0.000318
    15 H     0.000989  0.000891  0.000559
    16 H     0.000840  0.001043  0.000628
    17 H    -0.000378  0.001662  0.000954
    18 H     0.000685 -0.000515  0.000669
    19 N    -0.000409  0.000741 -0.001234
    20 C     0.000901 -0.000964 -0.002010
    21 O     0.005374  0.003991 -0.007710
    22 N    -0.002858  0.006330  0.000830
    23 C     0.000988  0.000193  0.000786
    24 H    -0.002908  0.000539  0.004993
    25 C    -0.001379 -0.001508 -0.002231
    26 H    -0.001391 -0.003792  0.003814
    27 H     0.001474  0.000893 -0.001449
    28 C    -0.001657 -0.000091  0.000934
    29 C    -0.000248  0.000641  0.001144
    30 H    -0.000069 -0.001060  0.000298
    31 H     0.001650  0.000926 -0.001598
    32 C    -0.001618 -0.000422  0.000973
    33 C     0.000639  0.000357 -0.000653
    34 C    -0.000844  0.000242 -0.001633
    35 C     0.000512 -0.001724 -0.000563
    36 C     0.000353 -0.001820  0.001420
    37 C    -0.001272 -0.000928  0.000867
    38 H    -0.000696  0.000057 -0.000169
    39 H    -0.000462 -0.000099 -0.000509
    40 H    -0.000780 -0.001224 -0.000179
    41 H     0.000090 -0.000481  0.000738
    42 C    -0.000566  0.000096  0.000438
    43 C     0.000931 -0.000427  0.000823
    44 H    -0.001368  0.000812  0.000241
[...]
      9      H     5.27937590     0.72587779     1.46306065
     10      H     3.86547430    -0.08983023     2.15162477
     11      H     0.67159584    -4.54668640    -1.60212498
     12      H     4.92408996    -0.96031312     1.03597554
     13      C    -4.19595181     1.77187010     0.70859419
     14      H    -3.75525436     2.44853991    -0.02743267
     15      H     2.41499264    -4.32862062    -1.78793875
     16      H    -1.37506567    -2.07968175    -2.02371636
     17      H    -5.12938409     2.21558320     1.06744965
     18      H    -4.43265220     0.83390120     0.19775067
     19      N     2.59050253    -0.47385444    -0.27957735
     20      C     2.53183128    -1.11301034    -1.50295023
     21      O     3.41583614    -1.01241679    -2.35307517
     22      N     1.39119578    -1.87352110    -1.69193831
     23      C     3.65581166     0.47545787     0.03587387
     24      H     1.76948140    -0.47289006     0.30922990
     25      C     1.27416064    -2.80740480    -2.80903966
     26      H     0.82915338    -2.06344021    -0.87552233
     27      H     4.31124976     0.44381322    -0.83625695
     28      C     1.45536534    -4.24912912    -2.30643427
     29      C     4.47571057     0.01394671     1.24959542
     30      H     3.75669499     2.44384619    -1.83243535
     31      H     2.12859142    -2.57151001    -3.44786538
     32      C     3.11995992     1.90195277     0.15201520
     33      C     2.46763124     2.36594557     1.30167808
     34      C     1.96637876     3.66509063     1.36870059
     35      C     2.11108228     4.53094352     0.28514540
     36      C     2.75936248     4.08405256    -0.86540066
     37      C     3.25668998     2.78308326    -0.92842639
     38      H     2.34537349     1.71278970     2.16117115
     39      H     1.46471474     4.00241570     2.27275293
     40      H     1.72693023     5.54687530     0.33882427
     41      H     2.88206105     4.75016360    -1.71637589
     42      C    -0.00894159    -2.54045060    -3.67842711
     43      C    -0.00562450    -3.47659509    -4.90459603
     44      H    -0.81094196    -3.19947891    -5.59244957
     45      H    -0.15984351    -4.52379743    -4.63242315
     46      H     0.93705085    -3.40584338    -5.45793418
     47      C     0.03204917    -1.08547134    -4.18956240
     48      H     0.93246718    -0.89877253    -4.78279795
     49      H    -0.83638457    -0.88031440    -4.82411004
     50      H     0.02531125    -0.36915338    -3.36523870
     51      C    -1.30958708    -2.75624530    -2.88140300
     52      H    -1.40391170    -3.78245366    -2.51423811
     53      H    -2.18024708    -2.55823427    -3.51541266
     54      C    -2.95871547     2.74164263     2.75637476
     55      C    -2.57571143     3.96725890     2.19536961
     56      C    -2.31323275     5.06989168     3.00474772
     57      C    -2.41712831     4.96741827     4.39179704
     58      C    -2.78565428     3.75048011     4.96273026
     59      C    -3.04802761     2.64854257     4.15132954
     60      H    -2.48173803     4.07393285     1.11883515
     61      H    -2.02466827     6.01344399     2.54811983
     62      H    -2.21085089     5.82859028     5.02201625
     63      H    -2.87060063     3.65627253     6.04253199
     64      H    -3.33387233     1.70499825     4.61058908
 
Total System Charge             0.00000
Bonding info available!
 
 *** PESPoint(1)_GOStep38 ***

 Energy gradients wrt nuclear displacements
 ==========================================

     Atom      Cartesian (a.u./angstrom)
                 X         Y         Z
 ----------------------------------------
     1 C     0.000920 -0.000263  0.001183
     2 C    -0.000073 -0.000065 -0.000139
     3 C    -0.000195 -0.000021 -0.000591
     4 O     0.000961  0.000608  0.000480
     5 H     0.000016  0.000015 -0.000020
     6 H    -0.000005 -0.000100 -0.000080
     7 H    -0.000103 -0.000112 -0.000167
     8 H     0.000075  0.000035  0.000099
     9 H     0.000004  0.000014 -0.000015
    10 H     0.000010  0.000001 -0.000015
    11 H     0.000021  0.000012 -0.000016
    12 H     0.000010  0.000014 -0.000019
    13 C    -0.000898  0.000337 -0.001099
    14 H    -0.000011 -0.000007  0.000021
    15 H     0.000015  0.000016 -0.000027
    16 H    -0.000001  0.000009 -0.000013
    17 H    -0.000008 -0.000028  0.000022
    18 H     0.000002 -0.000019  0.000009
    19 N    -0.000441  0.000057 -0.000198
    20 C     0.000119 -0.000080  0.000107
    21 O    -0.000030  0.000053 -0.000030
    22 N     0.000071 -0.000077  0.000069
    23 C     0.000113 -0.000166  0.000133
    24 H    -0.000259 -0.000113  0.000086
    25 C    -0.000133  0.000138 -0.000122
    26 H     0.000112 -0.000037  0.000051
    27 H     0.000018  0.000040  0.000003
    28 C     0.000173  0.000004 -0.000044
    29 C    -0.000012  0.000004 -0.000008
    30 H    -0.000010  0.000023 -0.000003
    31 H    -0.000127  0.000172 -0.000122
    32 C    -0.000067  0.000044 -0.000046
    33 C    -0.000144 -0.000185  0.000127
    34 C    -0.000004 -0.000003  0.000056
    35 C    -0.000024  0.000001 -0.000003
    36 C    -0.000026  0.000014  0.000008
    37 C    -0.000061 -0.000004 -0.000027
    38 H     0.000084 -0.000054 -0.000031
    39 H     0.000008  0.000000  0.000014
    40 H    -0.000020  0.000004  0.000013
    41 H    -0.000018  0.000019  0.000008
    42 C    -0.000070 -0.000101  0.000106
    43 C     0.000011  0.000033 -0.000018
    44 H    -0.000005  0.000013 -0.000006
    45 H     0.000015  0.000013 -0.000019
    46 H     0.000000  0.000021 -0.000015
    47 C    -0.000003  0.000012  0.000009
    48 H    -0.000022  0.000011 -0.000029
    49 H    -0.000022  0.000018  0.000009
    50 H     0.000022  0.000010  0.000001
    51 C     0.000002 -0.000006 -0.000026
    52 H     0.000015  0.000008 -0.000002
    53 H     0.000001 -0.000004 -0.000008
    54 C     0.000024 -0.000080  0.000133
    55 C     0.000060 -0.000034  0.000026
    56 C    -0.000009 -0.000022  0.000019
    57 C    -0.000009 -0.000027  0.000026
    58 C     0.000005 -0.000028  0.000017
    59 C    -0.000075 -0.000008  0.000010
    60 H    -0.000002 -0.000018  0.000021
    61 H    -0.000013 -0.000018  0.000026
    62 H    -0.000003 -0.000027  0.000027
    63 H     0.000004 -0.000033  0.000022
    64 H     0.000014 -0.000032  0.000017
 ----------------------------------------
 Mulliken charges used for AMS results%charges...

 dE(predicted):    -0.11568E-04, dE(actual):    -0.65827E-05, Trust radius:    0.020000, all in a.u.
 Residual max backtransformation error   0.3854E-03


 Constraint values: difference between the actual and the fixed coord values, a.u.
 =================================================================================

 Index  Constr. value     Atom indices
 ------------- NON-BLOCK constraints -------------------
     1    0.44409E-15     1    13
 -------------------------------------------------------
 
----------------------------------------------------------------------
Geometry Convergence after Step  38       (Hartree/Angstrom,Angstrom)
----------------------------------------------------------------------
current energy                              -13.58784415 Hartree
energy change                      -0.00000658     0.00064000    T
constrained gradient max            0.00095067     0.00100000    T
constrained gradient rms            0.00012013     0.00066667    T
gradient max                        0.00116909
gradient rms                        0.00019390
cart. step max                      0.01262790     0.01000000    F
cart. step rms                      0.00421718     0.00666667    T
 
 
--------
Geometry
--------
Formula: C25H35N2O2
Atoms
  Index Symbol   x (angstrom)   y (angstrom)   z (angstrom)
      1      C    -3.24796042     1.50595007     1.90198755
      2      C    -1.94530541     0.92871144     1.45874828
      3      C    -1.43503497    -0.32639175     1.90635630
      4      O    -0.34862772    -0.80839313     1.54618240
      5      H     1.45988316    -4.97626106    -3.12029778
      6      H    -3.73780978     0.77373500     2.55404176
      7      H    -1.32277290     1.49704637     0.76926905
      8      H    -2.07690942    -0.89046490     2.61806581
      9      H     5.27697260     0.72861884     1.46371801
     10      H     3.86252837    -0.08625604     2.15213489
     11      H     0.66438453    -4.54620122    -1.60046023
     12      H     4.92255985    -0.95838230     1.03907976
     13      C    -4.19901126     1.77497041     0.71448794
     14      H    -3.75877116     2.45205401    -0.02142828
     15      H     2.40895971    -4.33349180    -1.78139731
     16      H    -1.37373673    -2.07429815    -2.03138157
     17      H    -5.13201760     2.21865477     1.07448953
     18      H    -4.43640039     0.83745077     0.20314932
     19      N     2.59027142    -0.47467185    -0.27981357
     20      C     2.53266686    -1.11518636    -1.50256942
     21      O     3.41778354    -1.01604015    -2.35170555
     22      N     1.39189984    -1.87529576    -1.69203336
     23      C     3.65500634     0.47541196     0.03522134
     24      H     1.76859375    -0.47276264     0.30803821
     25      C     1.27552232    -2.81046706    -2.80810447
     26      H     0.82828884    -2.06338496    -0.87627705
     27      H     4.31138875     0.44247311    -0.83614841
     28      C     1.45110595    -4.25193179    -2.30285314
     29      C     4.47371773     0.01612358     1.25058642
     30      H     3.75871478     2.44133281    -1.83554135
     31      H     2.13246327    -2.57794035    -3.44481399
     32      C     3.11869496     1.90196501     0.14851161
     33      C     2.46429163     2.36734053     1.29644733
     34      C     1.96279291     3.66651752     1.36092896
     35      C     2.10923374     4.53098607     0.27650633
     36      C     2.75952406     4.08267771    -0.87236296
     37      C     3.25713495     2.78169873    -0.93282904
     38      H     2.34063104     1.71527956     2.15657940
     39      H     1.45956810     4.00497544     2.26368765
     40      H     1.72487028     5.54694210     0.32822609
     41      H     2.88355539     4.74767858    -1.72401390
     42      C    -0.00432932    -2.54120494    -3.68162579
     43      C    -0.00018057    -3.47919478    -4.90636495
     44      H    -0.80274426    -3.20082746    -5.59693303
     45      H    -0.15818838    -4.52553227    -4.63303470
     46      H     0.94424884    -3.41197047    -5.45715603
     47      C     0.04217365    -1.08708265    -4.19476651
     48      H     0.94491675    -0.90362310    -4.78545082
     49      H    -0.82375667    -0.88054042    -4.83226617
     50      H     0.03476234    -0.36954458    -3.37151745
     51      C    -1.30782573    -2.75221064    -2.88796770
     52      H    -1.40610379    -3.77764928    -2.51967760
     53      H    -2.17615006    -2.55261525    -3.52467213
     54      C    -2.95980592     2.74270631     2.76207258
     55      C    -2.57825202     3.96913196     2.20185238
     56      C    -2.31469632     5.07088971     3.01208560
     57      C    -2.41603240     4.96671917     4.39919669
     58      C    -2.78311039     3.74897136     4.96933483
     59      C    -3.04657280     2.64792682     4.15707782
     60      H    -2.48630601     4.07716554     1.12527946
     61      H    -2.02730908     6.01509649     2.55606601
     62      H    -2.20893045     5.82721102     5.03006765
     63      H    -2.86605954     3.65342716     6.04917141
     64      H    -3.33127120     1.70373741     4.61571981
 
Total System Charge             0.00000
Bonding info available!
 
 *** PESPoint(1)_GOStep39 ***

 Energy gradients wrt nuclear displacements
 ==========================================

     Atom      Cartesian (a.u./angstrom)
                 X         Y         Z
 ----------------------------------------
     1 C     0.000896 -0.000253  0.001158
     2 C    -0.000072 -0.000057 -0.000136
     3 C    -0.000188 -0.000021 -0.000592
     4 O     0.000959  0.000600  0.000486
     5 H     0.000017  0.000013 -0.000020
     6 H    -0.000003 -0.000095 -0.000077
     7 H    -0.000101 -0.000108 -0.000165
     8 H     0.000068  0.000031  0.000096
     9 H     0.000004  0.000014 -0.000015
    10 H     0.000011  0.000001 -0.000016
    11 H     0.000021  0.000011 -0.000017
    12 H     0.000012  0.000015 -0.000019
    13 C    -0.000874  0.000327 -0.001065
    14 H    -0.000013 -0.000006  0.000023
    15 H     0.000013  0.000018 -0.000027
    16 H    -0.000002  0.000010 -0.000014
    17 H    -0.000008 -0.000031  0.000019
    18 H     0.000004 -0.000018  0.000008
    19 N    -0.000435  0.000052 -0.000189
    20 C     0.000104 -0.000075  0.000109
    21 O    -0.000025  0.000064 -0.000042
    22 N     0.000041 -0.000052  0.000044
    23 C     0.000111 -0.000167  0.000131
    24 H    -0.000252 -0.000119  0.000087
    25 C    -0.000104  0.000106 -0.000094
    26 H     0.000119 -0.000036  0.000052
    27 H     0.000019  0.000036  0.000004
    28 C     0.000169  0.000011 -0.000054
    29 C    -0.000013  0.000006 -0.000008
    30 H    -0.000011  0.000022 -0.000004
    31 H    -0.000120  0.000166 -0.000118
    32 C    -0.000070  0.000050 -0.000054
    33 C    -0.000145 -0.000191  0.000126
    34 C    -0.000001  0.000002  0.000054
    35 C    -0.000026  0.000001  0.000000
    36 C    -0.000025  0.000014  0.000008
    37 C    -0.000055 -0.000006 -0.000021
    38 H     0.000080 -0.000052 -0.000033
    39 H     0.000006 -0.000001  0.000013
    40 H    -0.000020  0.000005  0.000013
    41 H    -0.000019  0.000019  0.000008
    42 C    -0.000070 -0.000102  0.000107
    43 C     0.000002  0.000032 -0.000020
    44 H    -0.000001  0.000012 -0.000006
    45 H     0.000013  0.000013 -0.000017
    46 H     0.000000  0.000021 -0.000016
    47 C     0.000000  0.000018  0.000011
    48 H    -0.000021  0.000010 -0.000026
    49 H    -0.000020  0.000018  0.000013
    50 H     0.000021  0.000009 -0.000002
    51 C    -0.000003 -0.000004 -0.000025
    52 H     0.000013  0.000009  0.000001
    53 H     0.000003 -0.000008 -0.000005
    54 C     0.000022 -0.000083  0.000123
    55 C     0.000061 -0.000034  0.000025
    56 C    -0.000009 -0.000022  0.000018
    57 C    -0.000010 -0.000025  0.000025
    58 C     0.000004 -0.000033  0.000017
    59 C    -0.000073 -0.000005  0.000013
    60 H    -0.000002 -0.000017  0.000021
    61 H    -0.000014 -0.000019  0.000026
    62 H    -0.000003 -0.000028  0.000025
    63 H     0.000004 -0.000033  0.000019
    64 H     0.000013 -0.000031  0.000016
 ----------------------------------------
 Mulliken charges used for AMS results%charges...

 dE(predicted):    -0.11304E-04, dE(actual):    -0.61654E-05, Trust radius:    0.020000, all in a.u.
 Residual max backtransformation error   0.3406E-03


 Constraint values: difference between the actual and the fixed coord values, a.u.
 =================================================================================

 Index  Constr. value     Atom indices
 ------------- NON-BLOCK constraints -------------------
     1   -0.44409E-15     1    13
 -------------------------------------------------------
 
----------------------------------------------------------------------
Geometry Convergence after Step  39       (Hartree/Angstrom,Angstrom)
----------------------------------------------------------------------
current energy                              -13.58785032 Hartree
energy change                      -0.00000617     0.00064000    T
constrained gradient max            0.00094849     0.00100000    T
constrained gradient rms            0.00011878     0.00066667    T
gradient max                        0.00114375
gradient rms                        0.00018992
cart. step max                      0.01270493     0.01000000    F
cart. step rms                      0.00433347     0.00666667    T
 
 
--------
Geometry
--------
Formula: C25H35N2O2
Atoms
  Index Symbol   x (angstrom)   y (angstrom)   z (angstrom)
      1      C    -3.25024672     1.50800172     1.90699171
      2      C    -1.94824583     0.93074389     1.46185605
      3      C    -1.43962867    -0.32664478     1.90490541
      4      O    -0.35385286    -0.80879199     1.54300859
      5      H     1.45598030    -4.98018704    -3.11552562
      6      H    -3.73974015     0.77525373     2.55872135
      7      H    -1.32510877     1.50067294     0.77425180
      8      H    -2.08226824    -0.89239788     2.61458665
      9      H     5.27447595     0.73129426     1.46443935
     10      H     3.85940731    -0.08264834     2.15266722
     11      H     0.65713129    -4.54559258    -1.59875298
     12      H     4.92084665    -0.95650573     1.04227238
     13      C    -4.20230496     1.77834380     0.72060002
     14      H    -3.76253890     2.45588137    -0.01517893
     15      H     2.40286678    -4.33820899    -1.77466819
     16      H    -1.37251842    -2.06906137    -2.03944129
     17      H    -5.13483129     2.22201698     1.08186485
     18      H    -4.44046475     0.84132479     0.20870979
     19      N     2.58995014    -0.47544781    -0.28004482
     20      C     2.53347874    -1.11738859    -1.50215032
     21      O     3.41979007    -1.01981194    -2.35021819
     22      N     1.39255975    -1.87703636    -1.69212478
     23      C     3.65414882     0.47535866     0.03458342
     24      H     1.76757696    -0.47251969     0.30679962
     25      C     1.27689156    -2.81349227    -2.80716964
     26      H     0.82733575    -2.06326544    -0.87705503
     27      H     4.31149605     0.44108005    -0.83600602
     28      C     1.44684289    -4.25464179    -2.29917036
     29      C     4.47159949     0.01827628     1.25162750
     30      H     3.76075011     2.43868140    -1.83873526
     31      H     2.13637815    -2.58433612    -3.44168576
     32      C     3.11743807     1.90198410     0.14495176
     33      C     2.46098233     2.36883198     1.29112069
     34      C     1.95928663     3.66805602     1.35299637
     35      C     2.10750203     4.53106965     0.26765551
     36      C     2.75977006     4.08125298    -0.87951490
     37      C     3.25760722     2.78024575    -0.93734550
     38      H     2.33591247     1.71791009     2.15192171
     39      H     1.45453021     4.00772187     2.25444322
     40      H     1.72297230     5.54706525     0.31735458
     41      H     2.88516328     4.74508727    -1.73187668
     42      C     0.00039810    -2.54207796    -3.68500532
     43      C     0.00565795    -3.48202160    -4.90822609
     44      H    -0.79408638    -3.20257000    -5.60163259
     45      H    -0.15604932    -4.52747765    -4.63368276
     46      H     0.95189370    -3.41825311    -5.45632843
     47      C     0.05230777    -1.08887975    -4.20027949
     48      H     0.95740502    -0.90861049    -4.78831790
     49      H    -0.81105174    -0.88114052    -4.84085871
     50      H     0.04404127    -0.37003570    -3.37818203
     51      C    -1.30600107    -2.74836585    -2.89487673
     52      H    -1.40816189    -3.77301596    -2.52543228
     53      H    -2.17191589    -2.54731928    -3.53439913
     54      C    -2.96097308     2.74381880     2.76798670
     55      C    -2.58088183     3.97108273     2.20861184
     56      C    -2.31616351     5.07191066     3.01974806
     57      C    -2.41482840     4.96595794     4.40691528
     58      C    -2.78046299     3.74737887     4.97620156
     59      C    -3.04510513     2.64727919     4.16303947
     60      H    -2.49104031     4.08054211     1.13200643
     61      H    -2.02996227     6.01679322     2.56437711
     62      H    -2.20682507     5.82572305     5.03847683
     63      H    -2.86134371     3.65044048     6.05606990
     64      H    -3.32864550     1.70242500     4.62102694
 
Total System Charge             0.00000
Bonding info available!
 
 *** PESPoint(1)_GOStep40 ***
