

 Parallel Execution: Process Information
 ==============================================================================
 Rank   Node Name                              NodeID   MyNodeRank  NodeMaster
    0   DESKTOP-1M8FOJT                           0          0          0
    1   DESKTOP-1M8FOJT                           0          1         -1
    2   DESKTOP-1M8FOJT                           0          2         -1
    3   DESKTOP-1M8FOJT                           0          3         -1
 ==============================================================================


May use up to 4096MB of RAM as shared memory on node 0

 *******************************************************************************
 *                                                                             *
 *  --------------------------------                                           *
 *   Amsterdam Modeling Suite (AMS)              2022.101                      *
 *  --------------------------------                                           *
 *                                               r100871 2022-01-28            *
 *                                                                             *
 *                                                                             *
 *                              =================                              *
 *                              |               |                              *
 *                              |     A M S     |                              *
 *                              |               |                              *
 *                              =================                              *
 *                                                                             *
 *                                                                             *
 *   Online information and documentation:  https://www.scm.com/support/       *
 *   E-mail:  support@scm.com   info@scm.com                                   *
 *                                                                             *
 *   Scientific publications using AMS results must be properly referenced     *
 *   See the User Manuals (or the web site) for recommended citations          *
 *   The terms and conditions of the End User License Agreement apply to       *
 *   the use of AMS, https://www.scm.com/license-terms/                        *
 *                                                                             *
 *********************  x86_64_windows_intel / intelmpi  ***********************
 
 Licensed to: Mr. Yuman Hordijk / SCM / Amsterdam / Netherlands 2022-01-24 11:07:43
 SCM User ID: u24430
  
 AMS 2022.101  RunTime: Feb02-2022 09:25:48  ShM Nodes: 1  Procs: 4

 AMS jobname: ams
 AMS jobid  : 295934054

 Start   directory: D:/Users/Yuman/Desktop/MasterProject/manual_calculations/urea/tmp..13112.0.noindex/
 Results directory: D:/Users/Yuman/Desktop/MasterProject/manual_calculations/urea/LT_O.results/
 Scratch directory: Z:/SCMTMP/amstmp_ams_kid0.295934054/


 Communication costs MPI_COMM_WORLD:      1.293 usec per message,   0.0037 usec per 8-byte item
 Communication costs for intra-node:      0.991 usec per message,   0.0039 usec per 8-byte item

 RNG seed: -1723443534 -935292869 -1919748419 1655880128 1081837199 1891550125 -1718673880 -1076069674



                      ************************************************************************
                      *  ADF 2022.101  RunTime: Feb02-2022 09:25:49  ShM Nodes: 1  Procs: 4  *
                      ************************************************************************
  
       *********************************
       * Potential Energy Surface Scan *
       *********************************
 
--------
Geometry
--------
Formula: C25H35N2O2
Atoms
  Index Symbol   x (angstrom)   y (angstrom)   z (angstrom)
      1      C    -3.24796041     1.50595007     1.90198755
      2      C    -1.94530541     0.92871144     1.45874828
      3      C    -1.43503497    -0.32639175     1.90635630
      4      O    -0.34862772    -0.80839313     1.54618240
      5      H     1.45988316    -4.97626106    -3.12029778
      6      H    -3.73780978     0.77373500     2.55404176
      7      H    -1.32277290     1.49704637     0.76926905
      8      H    -2.07690942    -0.89046490     2.61806581
      9      H     5.27697260     0.72861884     1.46371801
     10      H     3.86252837    -0.08625604     2.15213489
     11      H     0.66438453    -4.54620122    -1.60046023
     12      H     4.92255984    -0.95838230     1.03907976
     13      C    -4.19901126     1.77497041     0.71448794
     14      H    -3.75877116     2.45205401    -0.02142828
     15      H     2.40895971    -4.33349180    -1.78139731
     16      H    -1.37373673    -2.07429815    -2.03138157
     17      H    -5.13201760     2.21865477     1.07448953
     18      H    -4.43640039     0.83745077     0.20314932
     19      N     2.59027142    -0.47467185    -0.27981357
     20      C     2.53266686    -1.11518636    -1.50256942
     21      O     3.41778354    -1.01604015    -2.35170555
     22      N     1.39189984    -1.87529576    -1.69203336
     23      C     3.65500634     0.47541196     0.03522134
     24      H     1.76859375    -0.47276264     0.30803821
     25      C     1.27552232    -2.81046706    -2.80810447
     26      H     0.82828884    -2.06338496    -0.87627705
     27      H     4.31138875     0.44247311    -0.83614841
     28      C     1.45110595    -4.25193179    -2.30285314
     29      C     4.47371773     0.01612358     1.25058642
     30      H     3.75871478     2.44133281    -1.83554135
     31      H     2.13246327    -2.57794035    -3.44481399
     32      C     3.11869496     1.90196501     0.14851161
     33      C     2.46429163     2.36734053     1.29644733
     34      C     1.96279290     3.66651752     1.36092896
     35      C     2.10923374     4.53098607     0.27650633
     36      C     2.75952406     4.08267771    -0.87236296
     37      C     3.25713495     2.78169873    -0.93282904
     38      H     2.34063104     1.71527956     2.15657940
     39      H     1.45956810     4.00497544     2.26368765
     40      H     1.72487028     5.54694210     0.32822609
     41      H     2.88355539     4.74767858    -1.72401390
     42      C    -0.00432932    -2.54120494    -3.68162579
     43      C    -0.00018057    -3.47919478    -4.90636495
     44      H    -0.80274426    -3.20082746    -5.59693303
     45      H    -0.15818838    -4.52553227    -4.63303470
     46      H     0.94424884    -3.41197047    -5.45715603
     47      C     0.04217365    -1.08708265    -4.19476651
     48      H     0.94491675    -0.90362310    -4.78545082
     49      H    -0.82375667    -0.88054042    -4.83226617
     50      H     0.03476234    -0.36954458    -3.37151745
     51      C    -1.30782573    -2.75221064    -2.88796770
     52      H    -1.40610379    -3.77764928    -2.51967760
     53      H    -2.17615006    -2.55261525    -3.52467213
     54      C    -2.95980592     2.74270631     2.76207258
     55      C    -2.57825202     3.96913196     2.20185237
     56      C    -2.31469632     5.07088971     3.01208560
     57      C    -2.41603240     4.96671917     4.39919669
     58      C    -2.78311039     3.74897136     4.96933483
     59      C    -3.04657280     2.64792682     4.15707781
     60      H    -2.48630601     4.07716554     1.12527946
     61      H    -2.02730908     6.01509649     2.55606601
     62      H    -2.20893045     5.82721102     5.03006765
     63      H    -2.86605954     3.65342716     6.04917141
     64      H    -3.33127120     1.70373741     4.61571980
 
Total System Charge             0.00000
Bonding info available!
 
Total number of PES points: 10

====> Coordinate 1
Number of sample points: 10
Description: Distance C(1)--C(13)
Range:     1.5450    2.5000 Angstrom

Optimization Method                    Quasi Newton
Optimization Coordinates               Delocalized Coordinates
Optimize lattice                       F
 
 ------------------------------------------------------
 Convergence criteria (Hartree,Angstrom)
 ------------------------------------------------------
 Maximum gradient               0.001000000000
 Maximum rms gradient           0.000666666667
 Maximum step allowed           0.010000000000
 Maximum rms step allowed       0.006666666667
 Maximum energy change allowe   0.000640000000
 Maximum stress energy allowe   0.000500000000
 
Initial model Hessian                  Automatic Hessian
 
------------------------------------
Quasi-Newton Optimizer Parameters
------------------------------------
Hessian Update Method                  BFGS
Maximum number of steps                  384
First GDIIS cycle                          0
Maximum GDIIS vectors                      0
Trust radius (bohr)                        0.200000
Trust radius varies                        T
Constraints converged at all steps         T
Use projector                              T
 
 Rigid motions settings for: old optimizer
 Atomic rotations (x,y,z):     T T T
 Atomic translations (x,y,z):  T T T
 Tolerance:                   1.000000000000000E-006
 
----------------
ADF Engine Input
----------------
 
 Basis
 Type TZP
 Core Small
 End
 SpinPolarization 1
 XC
 GGA OLYP
 End
 Unrestricted Yes
 

 Title: *** (NO TITLE) ***

 *** InputSystem ***



 ===========================
 A T T A C H E D   F I L E S
 ===========================
  



 ===============================
 M O D E L   P A R A M E T E R S
 ===============================
  
 DENSITY FUNCTIONAL POTENTIAL (scf)
    LDA:                               Exchange only                           == Not Default ==
    Gradient Corrections:              OPTX LYP                                == Not Default ==

 SPIN  (restricted / unrestr.)
    Molecule:                          UNrestricted                            == Not Default ==
    Fragments:                         Restricted                               

 OTHER ASPECTS
    Relativistic Corrections:          scalar (ZORA,MAPA)                       

    Nuclear Charge Density Model:      Point Charge Nuclei                      
    Core Treatment:                    Frozen Orbital(s)                        

    Hyperfine or Zeeman Interaction:   ---                                      


 Fragment File(s)
 ----------------
 C:
         file : D:/Users/Yuman/Desktop/MasterProject/manual_calculations/urea/LT_O.results/t21.16B30964.C
         jobid: 0
         title: Carbon (TZP, 1s frozen)
 O:
         file : D:/Users/Yuman/Desktop/MasterProject/manual_calculations/urea/LT_O.results/t21.45CA3FA7.O
         jobid: 0
         title: Oxygen (TZP, 1s frozen)
 H:
         file : D:/Users/Yuman/Desktop/MasterProject/manual_calculations/urea/LT_O.results/t21.27E999F0.H
         jobid: 0
         title: Hydrogen (TZP)
 N:
         file : D:/Users/Yuman/Desktop/MasterProject/manual_calculations/urea/LT_O.results/t21.37FFA14A.N
         jobid: 0
         title: Nitrogen (TZP, 1s frozen)



 ===============
 G E O M E T R Y  ***  3D  Molecule  ***
 ===============
  

 ATOMS
 =====                            X Y Z                    CHARGE
                                (Angstrom)             Nucl     +Core       At.Mass
                       --------------------------    ----------------       -------
    1  C              -3.2480    1.5060    1.9020      6.00      4.00       12.0000
    2  C              -1.9453    0.9287    1.4587      6.00      4.00       12.0000
    3  C              -1.4350   -0.3264    1.9064      6.00      4.00       12.0000
    4  O              -0.3486   -0.8084    1.5462      8.00      6.00       15.9949
    5  H               1.4599   -4.9763   -3.1203      1.00      1.00        1.0078
    6  H              -3.7378    0.7737    2.5540      1.00      1.00        1.0078
    7  H              -1.3228    1.4970    0.7693      1.00      1.00        1.0078
    8  H              -2.0769   -0.8905    2.6181      1.00      1.00        1.0078
    9  H               5.2770    0.7286    1.4637      1.00      1.00        1.0078
   10  H               3.8625   -0.0863    2.1521      1.00      1.00        1.0078
   11  H               0.6644   -4.5462   -1.6005      1.00      1.00        1.0078
   12  H               4.9226   -0.9584    1.0391      1.00      1.00        1.0078
   13  C              -4.1990    1.7750    0.7145      6.00      4.00       12.0000
   14  H              -3.7588    2.4521   -0.0214      1.00      1.00        1.0078
   15  H               2.4090   -4.3335   -1.7814      1.00      1.00        1.0078
   16  H              -1.3737   -2.0743   -2.0314      1.00      1.00        1.0078
   17  H              -5.1320    2.2187    1.0745      1.00      1.00        1.0078
   18  H              -4.4364    0.8375    0.2031      1.00      1.00        1.0078
   19  N               2.5903   -0.4747   -0.2798      7.00      5.00       14.0031
   20  C               2.5327   -1.1152   -1.5026      6.00      4.00       12.0000
   21  O               3.4178   -1.0160   -2.3517      8.00      6.00       15.9949
   22  N               1.3919   -1.8753   -1.6920      7.00      5.00       14.0031
   23  C               3.6550    0.4754    0.0352      6.00      4.00       12.0000
   24  H               1.7686   -0.4728    0.3080      1.00      1.00        1.0078
   25  C               1.2755   -2.8105   -2.8081      6.00      4.00       12.0000
   26  H               0.8283   -2.0634   -0.8763      1.00      1.00        1.0078
   27  H               4.3114    0.4425   -0.8361      1.00      1.00        1.0078
   28  C               1.4511   -4.2519   -2.3029      6.00      4.00       12.0000
   29  C               4.4737    0.0161    1.2506      6.00      4.00       12.0000
   30  H               3.7587    2.4413   -1.8355      1.00      1.00        1.0078
   31  H               2.1325   -2.5779   -3.4448      1.00      1.00        1.0078
   32  C               3.1187    1.9020    0.1485      6.00      4.00       12.0000
   33  C               2.4643    2.3673    1.2964      6.00      4.00       12.0000
   34  C               1.9628    3.6665    1.3609      6.00      4.00       12.0000
   35  C               2.1092    4.5310    0.2765      6.00      4.00       12.0000
   36  C               2.7595    4.0827   -0.8724      6.00      4.00       12.0000
   37  C               3.2571    2.7817   -0.9328      6.00      4.00       12.0000
   38  H               2.3406    1.7153    2.1566      1.00      1.00        1.0078
   39  H               1.4596    4.0050    2.2637      1.00      1.00        1.0078
   40  H               1.7249    5.5469    0.3282      1.00      1.00        1.0078
   41  H               2.8836    4.7477   -1.7240      1.00      1.00        1.0078
   42  C              -0.0043   -2.5412   -3.6816      6.00      4.00       12.0000
   43  C              -0.0002   -3.4792   -4.9064      6.00      4.00       12.0000
   44  H              -0.8027   -3.2008   -5.5969      1.00      1.00        1.0078
   45  H              -0.1582   -4.5255   -4.6330      1.00      1.00        1.0078
   46  H               0.9442   -3.4120   -5.4572      1.00      1.00        1.0078
   47  C               0.0422   -1.0871   -4.1948      6.00      4.00       12.0000
   48  H               0.9449   -0.9036   -4.7855      1.00      1.00        1.0078
   49  H              -0.8238   -0.8805   -4.8323      1.00      1.00        1.0078
   50  H               0.0348   -0.3695   -3.3715      1.00      1.00        1.0078
   51  C              -1.3078   -2.7522   -2.8880      6.00      4.00       12.0000
   52  H              -1.4061   -3.7776   -2.5197      1.00      1.00        1.0078
   53  H              -2.1762   -2.5526   -3.5247      1.00      1.00        1.0078
   54  C              -2.9598    2.7427    2.7621      6.00      4.00       12.0000
   55  C              -2.5783    3.9691    2.2019      6.00      4.00       12.0000
   56  C              -2.3147    5.0709    3.0121      6.00      4.00       12.0000
   57  C              -2.4160    4.9667    4.3992      6.00      4.00       12.0000
   58  C              -2.7831    3.7490    4.9693      6.00      4.00       12.0000
   59  C              -3.0466    2.6479    4.1571      6.00      4.00       12.0000
   60  H              -2.4863    4.0772    1.1253      1.00      1.00        1.0078
   61  H              -2.0273    6.0151    2.5561      1.00      1.00        1.0078
   62  H              -2.2089    5.8272    5.0301      1.00      1.00        1.0078
   63  H              -2.8661    3.6534    6.0492      1.00      1.00        1.0078
   64  H              -3.3313    1.7037    4.6157      1.00      1.00        1.0078


 FRAGMENTS
 =========                                     Atoms in this Fragment     Cart. coord.s (Angstrom)
                                               -------------------------------------------------------
    1  C                                                 1  C           -3.2480    1.5060    1.9020
    2  C                                                 2  C           -1.9453    0.9287    1.4587
    3  C                                                 3  C           -1.4350   -0.3264    1.9064
    4  C                                                13  C           -4.1990    1.7750    0.7145
    5  C                                                20  C            2.5327   -1.1152   -1.5026
    6  C                                                23  C            3.6550    0.4754    0.0352
    7  C                                                25  C            1.2755   -2.8105   -2.8081
    8  C                                                28  C            1.4511   -4.2519   -2.3029
    9  C                                                29  C            4.4737    0.0161    1.2506
   10  C                                                32  C            3.1187    1.9020    0.1485
   11  C                                                33  C            2.4643    2.3673    1.2964
   12  C                                                34  C            1.9628    3.6665    1.3609
   13  C                                                35  C            2.1092    4.5310    0.2765
   14  C                                                36  C            2.7595    4.0827   -0.8724
   15  C                                                37  C            3.2571    2.7817   -0.9328
   16  C                                                42  C           -0.0043   -2.5412   -3.6816
   17  C                                                43  C           -0.0002   -3.4792   -4.9064
   18  C                                                47  C            0.0422   -1.0871   -4.1948
   19  C                                                51  C           -1.3078   -2.7522   -2.8880
   20  C                                                54  C           -2.9598    2.7427    2.7621
   21  C                                                55  C           -2.5783    3.9691    2.2019
   22  C                                                56  C           -2.3147    5.0709    3.0121
   23  C                                                57  C           -2.4160    4.9667    4.3992
   24  C                                                58  C           -2.7831    3.7490    4.9693
   25  C                                                59  C           -3.0466    2.6479    4.1571
   26  O                                                 4  O           -0.3486   -0.8084    1.5462
   27  O                                                21  O            3.4178   -1.0160   -2.3517
   28  H                                                 5  H            1.4599   -4.9763   -3.1203
   29  H                                                 6  H           -3.7378    0.7737    2.5540
   30  H                                                 7  H           -1.3228    1.4970    0.7693
   31  H                                                 8  H           -2.0769   -0.8905    2.6181
   32  H                                                 9  H            5.2770    0.7286    1.4637
   33  H                                                10  H            3.8625   -0.0863    2.1521
   34  H                                                11  H            0.6644   -4.5462   -1.6005
   35  H                                                12  H            4.9226   -0.9584    1.0391
   36  H                                                14  H           -3.7588    2.4521   -0.0214
   37  H                                                15  H            2.4090   -4.3335   -1.7814
   38  H                                                16  H           -1.3737   -2.0743   -2.0314
   39  H                                                17  H           -5.1320    2.2187    1.0745
   40  H                                                18  H           -4.4364    0.8375    0.2031
   41  H                                                24  H            1.7686   -0.4728    0.3080
   42  H                                                26  H            0.8283   -2.0634   -0.8763
   43  H                                                27  H            4.3114    0.4425   -0.8361
   44  H                                                30  H            3.7587    2.4413   -1.8355
   45  H                                                31  H            2.1325   -2.5779   -3.4448
   46  H                                                38  H            2.3406    1.7153    2.1566
   47  H                                                39  H            1.4596    4.0050    2.2637
   48  H                                                40  H            1.7249    5.5469    0.3282
   49  H                                                41  H            2.8836    4.7477   -1.7240
   50  H                                                44  H           -0.8027   -3.2008   -5.5969
   51  H                                                45  H           -0.1582   -4.5255   -4.6330
   52  H                                                46  H            0.9442   -3.4120   -5.4572
   53  H                                                48  H            0.9449   -0.9036   -4.7855
   54  H                                                49  H           -0.8238   -0.8805   -4.8323
   55  H                                                50  H            0.0348   -0.3695   -3.3715
   56  H                                                52  H           -1.4061   -3.7776   -2.5197
   57  H                                                53  H           -2.1762   -2.5526   -3.5247
   58  H                                                60  H           -2.4863    4.0772    1.1253
   59  H                                                61  H           -2.0273    6.0151    2.5561
   60  H                                                62  H           -2.2089    5.8272    5.0301
   61  H                                                63  H           -2.8661    3.6534    6.0492
   62  H                                                64  H           -3.3313    1.7037    4.6157
   63  N                                                19  N            2.5903   -0.4747   -0.2798
   64  N                                                22  N            1.3919   -1.8753   -1.6920



 =====================================
 S Y M M E T R Y ,   E L E C T R O N S
 =====================================
  
 Symmetry: NOSYM

 Irreducible Representations, including subspecies
 -------------------------------------------------
 A


 Configuration of Valence Electrons
 ==================================
 ( determined in the SCF procedure )

 Total:   79 (Spin-A)  + 78 (Spin-B)

 Net Charge: 0 (Nuclei minus Electrons)
 Spin polar: 1 (Spin_A minus Spin_B electrons)

 Aufbau principle for MO occupations will be applied through SCF cycle no.     150
 Thereafter, the program will assign electrons to MOs that are spatially
 similar to the occupied MOs in a "reference" cycle ("KeepOrbitals").
 The reference cycle is always the PREVIOUS cycle: it will evolve with
 the SCF procedure.
1
 ***************************************************************************************************



                                      ****************************************
                                      *  B U I L D : (Fragments, Functions)  *
                                      ****************************************
  

 Total nr. of (C)SFOs (summation over all irreps) :   703

 Specify PRINT SFO in the input file to get a full list

 Nr. of SFOs for ir.rep.           A :   703



 ================================
 (Slater-type)  F U N C T I O N S  ***  (Basis and Fit)  ***
 ================================
  

 Atom Type    1  (C)
 ==============

 Valence Basis Sets:   8
 -----------------------
   1 S    5.400000
   2 S    1.280000
   2 S    2.100000
   2 S    4.600000
   2 P    0.820000
   2 P    1.480000
   2 P    2.940000
   3 D    2.200000

 Frozen Core Shells
 ------------------
    S:  1

 Atom Type    2  (O)
 ==============

 Valence Basis Sets:   8
 -----------------------
   1 S    7.360000
   2 S    1.720000
   2 S    2.880000
   2 S    7.580000
   2 P    1.120000
   2 P    2.080000
   2 P    4.080000
   3 D    2.000000

 Frozen Core Shells
 ------------------
    S:  1

 Atom Type    3  (H)
 ==============

 Valence Basis Sets:   4
 -----------------------
   1 S    0.690000
   1 S    0.920000
   1 S    1.580000
   2 P    1.250000

 Atom Type    4  (N)
 ==============

 Valence Basis Sets:   8
 -----------------------
   1 S    6.380000
   2 S    1.500000
   2 S    2.500000
   2 S    5.150000
   2 P    1.000000
   2 P    1.880000
   2 P    3.680000
   3 D    2.200000

 Frozen Core Shells
 ------------------
    S:  1


 BAS: List of all Elementary Cartesian Basis Functions
 =====================================================

 The numbering in the list below (to the right of the function characteristics) is referred
 to in print-outs of MO eigenvectors and Mulliken populations in the BAS representation
 (as contrasted to the SFO representation).

 Notes:
 1. The functions are characterized by a polynomial prefactor (powers of x,y,z and r) and
    an exponential decay factor alpha.
 2. Since the basis sets are specific for an atom TYPE, the individual functions occur on
    all atoms of that type.
 3. The word 'Core' in the left margin signals that it is a Core Function (CF) : not a
    degree of freedom in the valence set, but only used to ensure orthogonalization of
    the other valence basis functions on the frozen Core Orbitals.


 (power of) X  Y  Z  R     Alpha  on Atom
            ==========     =====     ==========

 C                                    1    2    3    4    5    6    7    8    9   10   11   12   13   14   15
                                     16   17   18   19   20   21   22   23   24   25
                                  ---------------------------------------------------------------------------
    Core    0  0  0  0     5.400      1   20   39   58   77   96  115  134  153  172  191  210  229  248  267
                                    286  305  324  343  362  381  400  419  438  457
            0  0  0  1     1.280      2   21   40   59   78   97  116  135  154  173  192  211  230  249  268
                                    287  306  325  344  363  382  401  420  439  458
            0  0  0  1     2.100      3   22   41   60   79   98  117  136  155  174  193  212  231  250  269
                                    288  307  326  345  364  383  402  421  440  459
            0  0  0  1     4.600      4   23   42   61   80   99  118  137  156  175  194  213  232  251  270
                                    289  308  327  346  365  384  403  422  441  460
            1  0  0  0     0.820      5   24   43   62   81  100  119  138  157  176  195  214  233  252  271
                                    290  309  328  347  366  385  404  423  442  461
            0  1  0  0     0.820      6   25   44   63   82  101  120  139  158  177  196  215  234  253  272
                                    291  310  329  348  367  386  405  424  443  462
            0  0  1  0     0.820      7   26   45   64   83  102  121  140  159  178  197  216  235  254  273
                                    292  311  330  349  368  387  406  425  444  463
            1  0  0  0     1.480      8   27   46   65   84  103  122  141  160  179  198  217  236  255  274
                                    293  312  331  350  369  388  407  426  445  464
            0  1  0  0     1.480      9   28   47   66   85  104  123  142  161  180  199  218  237  256  275
                                    294  313  332  351  370  389  408  427  446  465
            0  0  1  0     1.480     10   29   48   67   86  105  124  143  162  181  200  219  238  257  276
                                    295  314  333  352  371  390  409  428  447  466
            1  0  0  0     2.940     11   30   49   68   87  106  125  144  163  182  201  220  239  258  277
                                    296  315  334  353  372  391  410  429  448  467
            0  1  0  0     2.940     12   31   50   69   88  107  126  145  164  183  202  221  240  259  278
                                    297  316  335  354  373  392  411  430  449  468
            0  0  1  0     2.940     13   32   51   70   89  108  127  146  165  184  203  222  241  260  279
                                    298  317  336  355  374  393  412  431  450  469
            2  0  0  0     2.200     14   33   52   71   90  109  128  147  166  185  204  223  242  261  280
                                    299  318  337  356  375  394  413  432  451  470
            1  1  0  0     2.200     15   34   53   72   91  110  129  148  167  186  205  224  243  262  281
                                    300  319  338  357  376  395  414  433  452  471
            1  0  1  0     2.200     16   35   54   73   92  111  130  149  168  187  206  225  244  263  282
                                    301  320  339  358  377  396  415  434  453  472
            0  2  0  0     2.200     17   36   55   74   93  112  131  150  169  188  207  226  245  264  283
                                    302  321  340  359  378  397  416  435  454  473
            0  1  1  0     2.200     18   37   56   75   94  113  132  151  170  189  208  227  246  265  284
                                    303  322  341  360  379  398  417  436  455  474
            0  0  2  0     2.200     19   38   57   76   95  114  133  152  171  190  209  228  247  266  285
                                    304  323  342  361  380  399  418  437  456  475

 O                                   26   27
                                  ---------------------------------------------------------------------------
    Core    0  0  0  0     7.360    476  495
            0  0  0  1     1.720    477  496
            0  0  0  1     2.880    478  497
            0  0  0  1     7.580    479  498
            1  0  0  0     1.120    480  499
            0  1  0  0     1.120    481  500
            0  0  1  0     1.120    482  501
            1  0  0  0     2.080    483  502
            0  1  0  0     2.080    484  503
            0  0  1  0     2.080    485  504
            1  0  0  0     4.080    486  505
            0  1  0  0     4.080    487  506
            0  0  1  0     4.080    488  507
            2  0  0  0     2.000    489  508
            1  1  0  0     2.000    490  509
            1  0  1  0     2.000    491  510
            0  2  0  0     2.000    492  511
            0  1  1  0     2.000    493  512
            0  0  2  0     2.000    494  513

 H                                   28   29   30   31   32   33   34   35   36   37   38   39   40   41   42
                                     43   44   45   46   47   48   49   50   51   52   53   54   55   56   57
                                     58   59   60   61   62
                                  ---------------------------------------------------------------------------
            0  0  0  0     0.690    514  520  526  532  538  544  550  556  562  568  574  580  586  592  598
                                    604  610  616  622  628  634  640  646  652  658  664  670  676  682  688
                                    694  700  706  712  718
            0  0  0  0     0.920    515  521  527  533  539  545  551  557  563  569  575  581  587  593  599
                                    605  611  617  623  629  635  641  647  653  659  665  671  677  683  689
                                    695  701  707  713  719
            0  0  0  0     1.580    516  522  528  534  540  546  552  558  564  570  576  582  588  594  600
                                    606  612  618  624  630  636  642  648  654  660  666  672  678  684  690
                                    696  702  708  714  720
            1  0  0  0     1.250    517  523  529  535  541  547  553  559  565  571  577  583  589  595  601
                                    607  613  619  625  631  637  643  649  655  661  667  673  679  685  691
                                    697  703  709  715  721
            0  1  0  0     1.250    518  524  530  536  542  548  554  560  566  572  578  584  590  596  602
                                    608  614  620  626  632  638  644  650  656  662  668  674  680  686  692
                                    698  704  710  716  722
            0  0  1  0     1.250    519  525  531  537  543  549  555  561  567  573  579  585  591  597  603
                                    609  615  621  627  633  639  645  651  657  663  669  675  681  687  693
                                    699  705  711  717  723

 N                                   63   64
                                  ---------------------------------------------------------------------------
    Core    0  0  0  0     6.380    724  743
            0  0  0  1     1.500    725  744
            0  0  0  1     2.500    726  745
            0  0  0  1     5.150    727  746
            1  0  0  0     1.000    728  747
            0  1  0  0     1.000    729  748
            0  0  1  0     1.000    730  749
            1  0  0  0     1.880    731  750
            0  1  0  0     1.880    732  751
            0  0  1  0     1.880    733  752
            1  0  0  0     3.680    734  753
            0  1  0  0     3.680    735  754
            0  0  1  0     3.680    736  755
            2  0  0  0     2.200    737  756
            1  1  0  0     2.200    738  757
            1  0  1  0     2.200    739  758
            0  2  0  0     2.200    740  759
            0  1  1  0     2.200    741  760
            0  0  2  0     2.200    742  761

 Total number of charge fitting functions (nprimf)      4128
 Total number of Cartesian basis functions (naos)        761
 Total number of Cartesian core functions  (ncos)         29

1
 ***************************************************************************************************



                                              ***********************
                                              *  T E C H N I C A L  *
                                              ***********************
  



 =============================================================
 P A R A L L E L I Z A T I O N  and  V E C T O R I Z A T I O N
 =============================================================
  
 Nr of parallel processes:                                4
 Maximum vector length in NumInt loops:                 128



 =====================
 S C F   U P D A T E S
 =====================
  
 Max. nr. of cycles:                               300
 Convergence criterion:                              0.0000010000
   secondary criterion:                              0.0010000000

 Mix parameter (when DIIS does not apply):           0.2000000000
 Mixed ADIIS+SDIIS will be used                  
    Max number of expansion vectors:                10
    Pure ADIIS when Max([F,P]) is above              0.1000000000
    Pure SDIIS when Max([F,P]) is below              0.0010000000
 Automatic ElectronSmearing (in case of problematic SCF convergence) disabled



 =================
 P R E C I S I O N  ***  (General: NumInt, NeglectFunctionTails, ...)  ***
 =================
  

 NumInt:           Target precision:                 4.0000000000
 -------           Initial precision:                4.0000000000
                   Min. precision (optimization):    4.0000000000

 Neglect Functions:          Basis functions:        0.1000000000E-05
 ------------------          Fit functions:          0.1000000000E-05



 ===========================
 L I N E A R   S C A L I N G
 ===========================
  

 Cut-off radii density fit:                        0.1000000000E-07
 Overlap cut-off criterion AO matrix elements:     0.1000000000E-05
 Cut-offs for Coulomb potential and fitted density:0.1000000000E-07
 Cut-off criterion for Coulomb multipole terms:    0.1000000000E-07
 Progressive Convergence parameter:                 0.000000000    
1
 ***************************************************************************************************



                                            ***************************
                                            *  C O M P U T A T I O N  *
                                            ***************************
  

 Number of elements of the density matrix on this node (used, total):     72588    289941



 ===========================================
 Numerical Integration : Fuzzy Cells (Becke)
 ===========================================
  
 Becke grid quality: NORMAL         
  
 Lebedev angular grid order:             min:  11 max:  23
 Nr. of radial points:                   min:  46 max:  49

 Total nr. of points:     384173
 Nr. of blocks:             3002
 Block length:               128
 Nr. of dummy points:         83


 Test of Precision of the Numerical Integration Grid
 ===================================================

 Integral of the Total Core Density:                  57.99996633734878
 Relative Error:                                      -5.804E-07



 ========================
 Density Fitting (zlmFit)
 ========================
  
 ZlmFit Fit Quality: NORMAL         
  
 Max L-expansion:                        min:   5 max:   6
 Nr. of radial interpolation points:     min:  36 max:  48



 =====
 S C F  ***  ScaSCF  ***
 =====
  
 Initial density matrix is calculated as sum of fragments

 CYCLE    1
 SCF Error: norm([F,P])=      4.422665881945, max([F,P])=      0.112883037117
 ***** SPIN 1 *****
 orbitals (Q,E):
 ---------------
 A :70...89          ( 1.00    -0.4705)  ( 1.00    -0.4200)  ( 1.00    -0.4042)  ( 1.00    -0.4027)
                     ( 1.00    -0.4021)  ( 1.00    -0.3996)  ( 1.00    -0.3977)  ( 1.00    -0.3822)
                     ( 1.00    -0.3791)  ( 1.00    -0.3308)  ( 0.00    -0.2116)  ( 0.00    -0.2098)
                     ( 0.00    -0.2087)  ( 0.00    -0.2085)  ( 0.00    -0.1470)  ( 0.00    -0.1247)
                     ( 0.00    -0.0797)  ( 0.00    -0.0772)  ( 0.00    -0.0717)  ( 0.00    -0.0698)
 ***** SPIN 2 *****
 orbitals (Q,E):
 ---------------
 A :69...88          ( 1.00    -0.4815)  ( 1.00    -0.4705)  ( 1.00    -0.4200)  ( 1.00    -0.4042)
                     ( 1.00    -0.4027)  ( 1.00    -0.4021)  ( 1.00    -0.3996)  ( 1.00    -0.3977)
                     ( 1.00    -0.3822)  ( 1.00    -0.3791)  ( 0.00    -0.3308)  ( 0.00    -0.2116)
                     ( 0.00    -0.2098)  ( 0.00    -0.2087)  ( 0.00    -0.2085)  ( 0.00    -0.1470)
                     ( 0.00    -0.1247)  ( 0.00    -0.0797)  ( 0.00    -0.0772)  ( 0.00    -0.0717)
  
 Spin polar: 1 (Spin_A minus Spin_B electrons)

 CYCLE    2
  SDIIS (wt  0.000):  0.2575  0.7425
 A-DIIS (wt  1.000):  0.0000  1.0000
  DIIS coefficients:  0.0000  1.0000
 SCF Error: norm([F,P])=      2.119699091142, max([F,P])=      0.110086534935
 ***** SPIN 1 *****
 orbitals (Q,E):
 ---------------
 A :70...80          ( 1.00    -0.1083)  ( 1.00    -0.0963)  ( 1.00    -0.0944)  ( 1.00    -0.0859)
                     ( 1.00    -0.0836)  ( 1.00    -0.0786)  ( 1.00    -0.0736)  ( 1.00    -0.0314)
                     ( 1.00    -0.0235)  ( 1.00    -0.0072)  ( 0.00    -0.0021)
 ***** SPIN 2 *****
 orbitals (Q,E):
 ---------------
 A :69...79          ( 1.00    -0.1083)  ( 1.00    -0.1054)  ( 1.00    -0.0947)  ( 1.00    -0.0836)
                     ( 1.00    -0.0823)  ( 1.00    -0.0781)  ( 1.00    -0.0733)  ( 1.00    -0.0616)
                     ( 1.00    -0.0314)  ( 1.00    -0.0235)  ( 0.00    -0.0071)
  
 Spin polar: 1 (Spin_A minus Spin_B electrons)

 CYCLE    3
  SDIIS (wt  0.000):  0.0769  0.6311  0.2919
 A-DIIS (wt  1.000):  0.0000  0.7821  0.2179
  DIIS coefficients:  0.0000  0.7821  0.2179
 SCF Error: norm([F,P])=      3.968070398289, max([F,P])=      0.374189603758
 ***** SPIN 1 *****
 orbitals (Q,E):
 ---------------
 A :70...80          ( 1.00    -0.2357)  ( 1.00    -0.2173)  ( 1.00    -0.2113)  ( 1.00    -0.1856)
                     ( 1.00    -0.1737)  ( 1.00    -0.1710)  ( 1.00    -0.1544)  ( 1.00    -0.1497)
                     ( 1.00    -0.1249)  ( 1.00    -0.0992)  ( 0.00    -0.0298)
 ***** SPIN 2 *****
 orbitals (Q,E):
 ---------------
 A :69...79          ( 1.00    -0.2357)  ( 1.00    -0.2330)  ( 1.00    -0.2162)  ( 1.00    -0.2081)
                     ( 1.00    -0.1855)  ( 1.00    -0.1736)  ( 1.00    -0.1710)  ( 1.00    -0.1539)
                     ( 1.00    -0.1476)  ( 1.00    -0.1187)  ( 0.00    -0.0666)
  
 Spin polar: 1 (Spin_A minus Spin_B electrons)

 CYCLE    4
  SDIIS (wt  0.171):  0.4724  0.1617  0.3659
 A-DIIS (wt  0.829):  0.3327  0.0000  0.6673
  DIIS coefficients:  0.3565  0.0276  0.6159
 SCF Error: norm([F,P])=      1.502597939954, max([F,P])=      0.083120037539
 ***** SPIN 1 *****
 orbitals (Q,E):
 ---------------
 A :70...80          ( 1.00    -0.2674)  ( 1.00    -0.2668)  ( 1.00    -0.2661)  ( 1.00    -0.2578)
                     ( 1.00    -0.2446)  ( 1.00    -0.2359)  ( 1.00    -0.2000)  ( 1.00    -0.1646)
                     ( 1.00    -0.0944)  ( 1.00    -0.0928)  ( 0.00    -0.0765)
 ***** SPIN 2 *****
 orbitals (Q,E):
 ---------------
 A :69...79          ( 1.00    -0.2691)  ( 1.00    -0.2664)  ( 1.00    -0.2661)  ( 1.00    -0.2566)
                     ( 1.00    -0.2446)  ( 1.00    -0.2359)  ( 1.00    -0.2245)  ( 1.00    -0.2000)
                     ( 1.00    -0.1646)  ( 1.00    -0.0944)  ( 0.00    -0.0831)
  
 Spin polar: 1 (Spin_A minus Spin_B electrons)

 CYCLE    5
  SDIIS (wt  0.000):  0.3144  0.0191  0.5017  0.1648
 A-DIIS (wt  1.000):  0.2217  0.0000  0.6198  0.1584
  DIIS coefficients:  0.2217  0.0000  0.6198  0.1584
 SCF Error: norm([F,P])=      2.692639126675, max([F,P])=      0.371746883663
 ***** SPIN 1 *****
 orbitals (Q,E):
 ---------------
 A :70...80          ( 1.00    -0.3036)  ( 1.00    -0.2548)  ( 1.00    -0.2535)  ( 1.00    -0.2490)
                     ( 1.00    -0.2468)  ( 1.00    -0.2367)  ( 1.00    -0.2327)  ( 1.00    -0.2297)
                     ( 1.00    -0.2103)  ( 1.00    -0.2022)  ( 0.00    -0.0641)
 ***** SPIN 2 *****
 orbitals (Q,E):
 ---------------
 A :69...79          ( 1.00    -0.3116)  ( 1.00    -0.3036)  ( 1.00    -0.2547)  ( 1.00    -0.2535)
                     ( 1.00    -0.2479)  ( 1.00    -0.2435)  ( 1.00    -0.2367)  ( 1.00    -0.2327)
                     ( 1.00    -0.2297)  ( 1.00    -0.2024)  ( 0.00    -0.1608)
  
 Spin polar: 1 (Spin_A minus Spin_B electrons)

 CYCLE    6
  SDIIS (wt  0.806):  0.0553  0.0172  0.2663  0.0501  0.6111
 A-DIIS (wt  0.194):  0.0000  0.0000  0.0642  0.0000  0.9358
  DIIS coefficients:  0.0445  0.0139  0.2270  0.0404  0.6742
 SCF Error: norm([F,P])=      0.509672443965, max([F,P])=      0.020241351558
 ***** SPIN 1 *****
 orbitals (Q,E):
 ---------------
 A :70...80          ( 1.00    -0.2700)  ( 1.00    -0.2493)  ( 1.00    -0.2373)  ( 1.00    -0.2365)
                     ( 1.00    -0.2236)  ( 1.00    -0.2223)  ( 1.00    -0.2173)  ( 1.00    -0.2142)
                     ( 1.00    -0.2062)  ( 1.00    -0.1807)  ( 0.00    -0.0577)
 ***** SPIN 2 *****
 orbitals (Q,E):
 ---------------
 A :69...79          ( 1.00    -0.2748)  ( 1.00    -0.2700)  ( 1.00    -0.2417)  ( 1.00    -0.2366)
                     ( 1.00    -0.2304)  ( 1.00    -0.2235)  ( 1.00    -0.2222)  ( 1.00    -0.2142)
                     ( 1.00    -0.2062)  ( 1.00    -0.1807)  ( 0.00    -0.1765)
  
 Spin polar: 1 (Spin_A minus Spin_B electrons)

 CYCLE    7
  SDIIS (wt  0.806): -0.0221  0.0214  0.0410 -0.0049  0.4920  0.4726
 A-DIIS (wt  0.194):  0.0000  0.0000  0.0000  0.0000  0.2500  0.7500
  DIIS coefficients: -0.0178  0.0172  0.0330 -0.0039  0.4450  0.5265
 SCF Error: norm([F,P])=      0.301008354379, max([F,P])=      0.025939944210
 ***** SPIN 1 *****
 orbitals (Q,E):
 ---------------
 A :70...80          ( 1.00    -0.2714)  ( 1.00    -0.2476)  ( 1.00    -0.2464)  ( 1.00    -0.2239)
                     ( 1.00    -0.2222)  ( 1.00    -0.2206)  ( 1.00    -0.2168)  ( 1.00    -0.2026)
                     ( 1.00    -0.1966)  ( 1.00    -0.1904)  ( 0.00    -0.0613)
 ***** SPIN 2 *****
 orbitals (Q,E):
 ---------------
 A :69...79          ( 1.00    -0.2762)  ( 1.00    -0.2713)  ( 1.00    -0.2459)  ( 1.00    -0.2438)
                     ( 1.00    -0.2230)  ( 1.00    -0.2221)  ( 1.00    -0.2124)  ( 1.00    -0.2025)
                     ( 1.00    -0.1965)  ( 1.00    -0.1904)  ( 0.00    -0.1709)
  
 Spin polar: 1 (Spin_A minus Spin_B electrons)

 CYCLE    8
  SDIIS (wt  0.837): -0.0178  0.0076  0.0076 -0.0040  0.2673  0.3897  0.3496
 A-DIIS (wt  0.163):  0.0000  0.0000  0.0000  0.0000  0.0000  0.2213  0.7787
  DIIS coefficients: -0.0149  0.0063  0.0064 -0.0034  0.2237  0.3622  0.4197
 SCF Error: norm([F,P])=      0.148869842420, max([F,P])=      0.017176514215
 ***** SPIN 1 *****
 orbitals (Q,E):
 ---------------
 A :70...80          ( 1.00    -0.2690)  ( 1.00    -0.2460)  ( 1.00    -0.2447)  ( 1.00    -0.2321)
                     ( 1.00    -0.2229)  ( 1.00    -0.2221)  ( 1.00    -0.2154)  ( 1.00    -0.2011)
                     ( 1.00    -0.1954)  ( 1.00    -0.1871)  ( 0.00    -0.0590)
 ***** SPIN 2 *****
 orbitals (Q,E):
 ---------------
 A :69...79          ( 1.00    -0.2741)  ( 1.00    -0.2690)  ( 1.00    -0.2442)  ( 1.00    -0.2415)
                     ( 1.00    -0.2242)  ( 1.00    -0.2227)  ( 1.00    -0.2211)  ( 1.00    -0.2010)
                     ( 1.00    -0.1954)  ( 1.00    -0.1871)  ( 0.00    -0.1698)
  
 Spin polar: 1 (Spin_A minus Spin_B electrons)

 CYCLE    9
  SDIIS (wt  0.938): -0.0047  0.0027  0.0028 -0.0025  0.0918  0.1800  0.3307  0.3992
 A-DIIS (wt  0.062):  0.0000  0.0000  0.0000  0.0000  0.0000  0.0000  0.2284  0.7716
  DIIS coefficients: -0.0044  0.0025  0.0026 -0.0024  0.0861  0.1689  0.3243  0.4222
 SCF Error: norm([F,P])=      0.067658001114, max([F,P])=      0.007120084860
 ***** SPIN 1 *****
 orbitals (Q,E):
 ---------------
 A :70...80          ( 1.00    -0.2688)  ( 1.00    -0.2465)  ( 1.00    -0.2449)  ( 1.00    -0.2301)
                     ( 1.00    -0.2228)  ( 1.00    -0.2219)  ( 1.00    -0.2174)  ( 1.00    -0.2017)
                     ( 1.00    -0.1964)  ( 1.00    -0.1856)  ( 0.00    -0.0599)
 ***** SPIN 2 *****
 orbitals (Q,E):
 ---------------
 A :69...79          ( 1.00    -0.2741)  ( 1.00    -0.2688)  ( 1.00    -0.2444)  ( 1.00    -0.2421)
                     ( 1.00    -0.2233)  ( 1.00    -0.2225)  ( 1.00    -0.2194)  ( 1.00    -0.2016)
                     ( 1.00    -0.1964)  ( 1.00    -0.1856)  ( 0.00    -0.1711)
  
 Spin polar: 1 (Spin_A minus Spin_B electrons)

 CYCLE   10
  SDIIS (wt  0.997): -0.0014 -0.0003  0.0020  0.0001  0.0218  0.0606  0.1705  0.2965  0.4501
 A-DIIS (wt  0.003):  0.0000  0.0000  0.0000  0.0000  0.0000  0.0000  0.0000  0.0401  0.9599
  DIIS coefficients: -0.0014 -0.0003  0.0020  0.0001  0.0218  0.0604  0.1700  0.2957  0.4517
 SCF Error: norm([F,P])=      0.017704725799, max([F,P])=      0.001301559750
 ***** SPIN 1 *****
 orbitals (Q,E):
 ---------------
 A :70...80          ( 1.00    -0.2692)  ( 1.00    -0.2464)  ( 1.00    -0.2448)  ( 1.00    -0.2305)
                     ( 1.00    -0.2224)  ( 1.00    -0.2217)  ( 1.00    -0.2172)  ( 1.00    -0.2025)
                     ( 1.00    -0.1972)  ( 1.00    -0.1868)  ( 0.00    -0.0597)
 ***** SPIN 2 *****
 orbitals (Q,E):
 ---------------
 A :69...79          ( 1.00    -0.2743)  ( 1.00    -0.2692)  ( 1.00    -0.2443)  ( 1.00    -0.2420)
                     ( 1.00    -0.2232)  ( 1.00    -0.2222)  ( 1.00    -0.2196)  ( 1.00    -0.2024)
                     ( 1.00    -0.1972)  ( 1.00    -0.1868)  ( 0.00    -0.1706)
  
 Spin polar: 1 (Spin_A minus Spin_B electrons)

 CYCLE   11
  SDIIS (wt  1.000):  0.0000 -0.0004  0.0008  0.0002 -0.0001  0.0074  0.0435  0.1065  0.2458  0.5962
  DIIS coefficients:  0.0000 -0.0004  0.0008  0.0002 -0.0001  0.0074  0.0435  0.1065  0.2458  0.5962
 SCF Error: norm([F,P])=      0.004285842914, max([F,P])=      0.000195666626
 ***** SPIN 1 *****
 orbitals (Q,E):
 ---------------
 A :70...80          ( 1.00    -0.2693)  ( 1.00    -0.2464)  ( 1.00    -0.2447)  ( 1.00    -0.2304)
                     ( 1.00    -0.2225)  ( 1.00    -0.2218)  ( 1.00    -0.2172)  ( 1.00    -0.2025)
                     ( 1.00    -0.1972)  ( 1.00    -0.1869)  ( 0.00    -0.0596)
 ***** SPIN 2 *****
 orbitals (Q,E):
 ---------------
 A :69...79          ( 1.00    -0.2744)  ( 1.00    -0.2693)  ( 1.00    -0.2443)  ( 1.00    -0.2419)
                     ( 1.00    -0.2232)  ( 1.00    -0.2222)  ( 1.00    -0.2194)  ( 1.00    -0.2024)
                     ( 1.00    -0.1972)  ( 1.00    -0.1869)  ( 0.00    -0.1704)
  
 Spin polar: 1 (Spin_A minus Spin_B electrons)

 CYCLE   12
  SDIIS (wt  1.000): -0.0001  0.0000  0.0000 -0.0025 -0.0047 -0.0045  0.0145  0.0710  0.4199  0.5066
  DIIS coefficients: -0.0001  0.0000  0.0000 -0.0025 -0.0047 -0.0045  0.0145  0.0710  0.4199  0.5066
 SCF Error: norm([F,P])=      0.002789147144, max([F,P])=      0.000175862049
 ***** SPIN 1 *****
 orbitals (Q,E):
 ---------------
 A :70...80          ( 1.00    -0.2692)  ( 1.00    -0.2463)  ( 1.00    -0.2447)  ( 1.00    -0.2305)
                     ( 1.00    -0.2225)  ( 1.00    -0.2218)  ( 1.00    -0.2172)  ( 1.00    -0.2024)
                     ( 1.00    -0.1972)  ( 1.00    -0.1868)  ( 0.00    -0.0596)
 ***** SPIN 2 *****
 orbitals (Q,E):
 ---------------
 A :69...79          ( 1.00    -0.2743)  ( 1.00    -0.2692)  ( 1.00    -0.2443)  ( 1.00    -0.2419)
                     ( 1.00    -0.2232)  ( 1.00    -0.2223)  ( 1.00    -0.2195)  ( 1.00    -0.2024)
                     ( 1.00    -0.1972)  ( 1.00    -0.1867)  ( 0.00    -0.1703)
  
 Spin polar: 1 (Spin_A minus Spin_B electrons)

 CYCLE   13
  SDIIS (wt  1.000): -0.0003  0.0000 -0.0022 -0.0059 -0.0183 -0.0236 -0.0335  0.1022  0.3343  0.6472
  DIIS coefficients: -0.0003  0.0000 -0.0022 -0.0059 -0.0183 -0.0236 -0.0335  0.1022  0.3343  0.6472
 SCF Error: norm([F,P])=      0.001220359732, max([F,P])=      0.000094777852
 ***** SPIN 1 *****
 orbitals (Q,E):
 ---------------
 A :70...80          ( 1.00    -0.2692)  ( 1.00    -0.2463)  ( 1.00    -0.2447)  ( 1.00    -0.2306)
                     ( 1.00    -0.2225)  ( 1.00    -0.2218)  ( 1.00    -0.2172)  ( 1.00    -0.2025)
                     ( 1.00    -0.1972)  ( 1.00    -0.1868)  ( 0.00    -0.0595)
 ***** SPIN 2 *****
 orbitals (Q,E):
 ---------------
 A :69...79          ( 1.00    -0.2744)  ( 1.00    -0.2692)  ( 1.00    -0.2442)  ( 1.00    -0.2419)
                     ( 1.00    -0.2232)  ( 1.00    -0.2223)  ( 1.00    -0.2195)  ( 1.00    -0.2024)
                     ( 1.00    -0.1972)  ( 1.00    -0.1868)  ( 0.00    -0.1703)
  
 Spin polar: 1 (Spin_A minus Spin_B electrons)

 CYCLE   14
  SDIIS (wt  1.000):  0.0001 -0.0005 -0.0021 -0.0093 -0.0151 -0.0323 -0.0133  0.1103  0.3942  0.5680
  DIIS coefficients:  0.0001 -0.0005 -0.0021 -0.0093 -0.0151 -0.0323 -0.0133  0.1103  0.3942  0.5680
 SCF Error: norm([F,P])=      0.000542161177, max([F,P])=      0.000031416929
 ***** SPIN 1 *****
 orbitals (Q,E):
 ---------------
 A :70...80          ( 1.00    -0.2693)  ( 1.00    -0.2463)  ( 1.00    -0.2447)  ( 1.00    -0.2306)
                     ( 1.00    -0.2225)  ( 1.00    -0.2218)  ( 1.00    -0.2172)  ( 1.00    -0.2025)
                     ( 1.00    -0.1972)  ( 1.00    -0.1868)  ( 0.00    -0.0595)
 ***** SPIN 2 *****
 orbitals (Q,E):
 ---------------
 A :69...79          ( 1.00    -0.2744)  ( 1.00    -0.2693)  ( 1.00    -0.2442)  ( 1.00    -0.2419)
                     ( 1.00    -0.2232)  ( 1.00    -0.2223)  ( 1.00    -0.2195)  ( 1.00    -0.2024)
                     ( 1.00    -0.1972)  ( 1.00    -0.1868)  ( 0.00    -0.1703)
  
 Spin polar: 1 (Spin_A minus Spin_B electrons)

 CYCLE   15
  SDIIS (wt  1.000): -0.0001 -0.0001 -0.0005 -0.0009 -0.0066 -0.0211 -0.0132  0.0355  0.2887  0.7184
  DIIS coefficients: -0.0001 -0.0001 -0.0005 -0.0009 -0.0066 -0.0211 -0.0132  0.0355  0.2887  0.7184
 SCF Error: norm([F,P])=      0.000205864241, max([F,P])=      0.000009612654
 ***** SPIN 1 *****
 orbitals (Q,E):
 ---------------
 A :70...80          ( 1.00    -0.2692)  ( 1.00    -0.2463)  ( 1.00    -0.2447)  ( 1.00    -0.2306)
                     ( 1.00    -0.2225)  ( 1.00    -0.2218)  ( 1.00    -0.2172)  ( 1.00    -0.2025)
                     ( 1.00    -0.1972)  ( 1.00    -0.1868)  ( 0.00    -0.0595)
 ***** SPIN 2 *****
 orbitals (Q,E):
 ---------------
 A :69...79          ( 1.00    -0.2743)  ( 1.00    -0.2692)  ( 1.00    -0.2442)  ( 1.00    -0.2419)
                     ( 1.00    -0.2232)  ( 1.00    -0.2223)  ( 1.00    -0.2195)  ( 1.00    -0.2024)
                     ( 1.00    -0.1972)  ( 1.00    -0.1868)  ( 0.00    -0.1703)
  
 Spin polar: 1 (Spin_A minus Spin_B electrons)

 CYCLE   16
  SDIIS (wt  1.000):  0.0000 -0.0003 -0.0009 -0.0048 -0.0180 -0.0142  0.0175  0.1677  0.4737  0.3794
  DIIS coefficients:  0.0000 -0.0003 -0.0009 -0.0048 -0.0180 -0.0142  0.0175  0.1677  0.4737  0.3794
 SCF Error: norm([F,P])=      0.000158439734, max([F,P])=      0.000012937996
 ***** SPIN 1 *****
 orbitals (Q,E):
 ---------------
 A :70...80          ( 1.00    -0.2692)  ( 1.00    -0.2463)  ( 1.00    -0.2447)  ( 1.00    -0.2306)
                     ( 1.00    -0.2225)  ( 1.00    -0.2218)  ( 1.00    -0.2172)  ( 1.00    -0.2025)
                     ( 1.00    -0.1972)  ( 1.00    -0.1868)  ( 0.00    -0.0595)
 ***** SPIN 2 *****
 orbitals (Q,E):
 ---------------
 A :69...79          ( 1.00    -0.2744)  ( 1.00    -0.2692)  ( 1.00    -0.2442)  ( 1.00    -0.2419)
                     ( 1.00    -0.2232)  ( 1.00    -0.2223)  ( 1.00    -0.2195)  ( 1.00    -0.2024)
                     ( 1.00    -0.1972)  ( 1.00    -0.1868)  ( 0.00    -0.1703)
  
 Spin polar: 1 (Spin_A minus Spin_B electrons)

 CYCLE   17
  SDIIS (wt  1.000): -0.0001 -0.0004 -0.0021 -0.0089 -0.0077  0.0048  0.0733  0.2330  0.2229  0.4852
  DIIS coefficients: -0.0001 -0.0004 -0.0021 -0.0089 -0.0077  0.0048  0.0733  0.2330  0.2229  0.4852
 SCF Error: norm([F,P])=      0.000041221780, max([F,P])=      0.000002556091
 ***** SPIN 1 *****
 orbitals (Q,E):
 ---------------
 A :70...80          ( 1.00    -0.2692)  ( 1.00    -0.2463)  ( 1.00    -0.2447)  ( 1.00    -0.2306)
                     ( 1.00    -0.2225)  ( 1.00    -0.2218)  ( 1.00    -0.2172)  ( 1.00    -0.2025)
                     ( 1.00    -0.1972)  ( 1.00    -0.1868)  ( 0.00    -0.0595)
 ***** SPIN 2 *****
 orbitals (Q,E):
 ---------------
 A :69...79          ( 1.00    -0.2744)  ( 1.00    -0.2692)  ( 1.00    -0.2442)  ( 1.00    -0.2419)
                     ( 1.00    -0.2232)  ( 1.00    -0.2223)  ( 1.00    -0.2195)  ( 1.00    -0.2024)
                     ( 1.00    -0.1972)  ( 1.00    -0.1868)  ( 0.00    -0.1703)
  
 Spin polar: 1 (Spin_A minus Spin_B electrons)

 CYCLE   18
  SDIIS (wt  1.000): -0.0001 -0.0003 -0.0019 -0.0024 -0.0027  0.0118  0.0578  0.0676  0.3569  0.5133
  DIIS coefficients: -0.0001 -0.0003 -0.0019 -0.0024 -0.0027  0.0118  0.0578  0.0676  0.3569  0.5133
 SCF Error: norm([F,P])=      0.000024486739, max([F,P])=      0.000001662735
 ***** SPIN 1 *****
 orbitals (Q,E):
 ---------------
 A :70...80          ( 1.00    -0.2692)  ( 1.00    -0.2463)  ( 1.00    -0.2447)  ( 1.00    -0.2306)
                     ( 1.00    -0.2225)  ( 1.00    -0.2218)  ( 1.00    -0.2172)  ( 1.00    -0.2025)
                     ( 1.00    -0.1972)  ( 1.00    -0.1868)  ( 0.00    -0.0595)
 ***** SPIN 2 *****
 orbitals (Q,E):
 ---------------
 A :69...79          ( 1.00    -0.2744)  ( 1.00    -0.2692)  ( 1.00    -0.2442)  ( 1.00    -0.2419)
                     ( 1.00    -0.2232)  ( 1.00    -0.2223)  ( 1.00    -0.2195)  ( 1.00    -0.2024)
                     ( 1.00    -0.1972)  ( 1.00    -0.1868)  ( 0.00    -0.1703)
  
 Spin polar: 1 (Spin_A minus Spin_B electrons)

 CYCLE   19
  SDIIS (wt  1.000):  0.0001  0.0003  0.0004 -0.0007 -0.0060 -0.0149 -0.0027  0.0923  0.2578  0.6735
  DIIS coefficients:  0.0001  0.0003  0.0004 -0.0007 -0.0060 -0.0149 -0.0027  0.0923  0.2578  0.6735
 SCF Error: norm([F,P])=      0.000007350979, max([F,P])=      0.000000433631
 ***** SPIN 1 *****
 orbitals (Q,E):
 ---------------
 A :70...80          ( 1.00    -0.2692)  ( 1.00    -0.2463)  ( 1.00    -0.2447)  ( 1.00    -0.2306)
                     ( 1.00    -0.2225)  ( 1.00    -0.2218)  ( 1.00    -0.2172)  ( 1.00    -0.2025)
                     ( 1.00    -0.1972)  ( 1.00    -0.1868)  ( 0.00    -0.0595)
 ***** SPIN 2 *****
 orbitals (Q,E):
 ---------------
 A :69...79          ( 1.00    -0.2744)  ( 1.00    -0.2692)  ( 1.00    -0.2442)  ( 1.00    -0.2419)
                     ( 1.00    -0.2232)  ( 1.00    -0.2223)  ( 1.00    -0.2195)  ( 1.00    -0.2024)
                     ( 1.00    -0.1972)  ( 1.00    -0.1868)  ( 0.00    -0.1703)
  
 Spin polar: 1 (Spin_A minus Spin_B electrons)

 SCF CONVERGED

 CYCLE   20
 *** Using FIT density in Focky
  SDIIS (wt  1.000):  0.0001  0.0003  0.0000 -0.0035 -0.0118 -0.0083 -0.0019  0.0579  0.3949  0.5723
  DIIS coefficients:  0.0001  0.0003  0.0000 -0.0035 -0.0118 -0.0083 -0.0019  0.0579  0.3949  0.5723
 SCF Error: norm([F,P])=      0.000004010156, max([F,P])=      0.000000183238
 ***** SPIN 1 *****
 orbitals (Q,E):
 ---------------
 A :70...89          ( 1.00    -0.2692)  ( 1.00    -0.2463)  ( 1.00    -0.2447)  ( 1.00    -0.2306)
                     ( 1.00    -0.2225)  ( 1.00    -0.2218)  ( 1.00    -0.2172)  ( 1.00    -0.2025)
                     ( 1.00    -0.1972)  ( 1.00    -0.1868)  ( 0.00    -0.0595)  ( 0.00    -0.0558)
                     ( 0.00    -0.0355)  ( 0.00    -0.0343)  ( 0.00    -0.0331)  ( 0.00    -0.0267)
                     ( 0.00    -0.0200)  ( 0.00    -0.0156)  ( 0.00    -0.0046)  ( 0.00     0.0008)
 ***** SPIN 2 *****
 orbitals (Q,E):
 ---------------
 A :69...88          ( 1.00    -0.2744)  ( 1.00    -0.2692)  ( 1.00    -0.2442)  ( 1.00    -0.2419)
                     ( 1.00    -0.2232)  ( 1.00    -0.2223)  ( 1.00    -0.2195)  ( 1.00    -0.2024)
                     ( 1.00    -0.1972)  ( 1.00    -0.1868)  ( 0.00    -0.1703)  ( 0.00    -0.0559)
                     ( 0.00    -0.0553)  ( 0.00    -0.0351)  ( 0.00    -0.0332)  ( 0.00    -0.0269)
                     ( 0.00    -0.0205)  ( 0.00    -0.0178)  ( 0.00    -0.0101)  ( 0.00    -0.0043)
  
 Spin polar: 1 (Spin_A minus Spin_B electrons)


 Fit test: (difference of exact and fit density, squared integrated, result summed over spins)
         SCF:                                          0.00142822194659

 Gross Charges per Atom (Z minus electrons)
 ==========================================
             0.0718    0.2948    0.5962   -0.5782   -0.1705   -0.1406   -0.1218   -0.2470   -0.1749   -0.1651
            -0.1757   -0.1660    0.4327   -0.1486   -0.1651   -0.1695   -0.1621   -0.1678   -0.1932    0.8328
            -0.6865   -0.2016    0.2056    0.0141    0.3668   -0.0366   -0.1102    0.4295    0.4219   -0.2440
            -0.0967    0.1649    0.2714    0.2302    0.2193    0.2172    0.2549   -0.2543   -0.2543   -0.2518
            -0.2474    0.1104    0.5008   -0.1834   -0.1843   -0.1926    0.5123   -0.1817   -0.2005   -0.1722
             0.4838   -0.1897   -0.1812    0.1781    0.2804    0.2289    0.2301    0.2264    0.2632   -0.2521
            -0.2406   -0.2374   -0.2383   -0.2551
 Net Total:  0.00000000



 =================================================================
 M U L T I P O L E   D E R I V E D   C H A R G E   A N A L Y S I S
 =================================================================

 See: M. Swart, P.Th. van Duijnen, J.G. Snijders, J.Comput.Chem., (2001), p. 79-88.

 ----------------------------------------------------- 
 MDC atomic charges (includes spinA + spinB electrons)
 ----------------------------------------------------- 

        Atom    Level:     MDC-m        MDC-d        MDC-q
 ---------------------------------------------------------
     1     C            0.114209     0.082548     0.152973
     2     C            0.129089     0.105053     0.052413
     3     C            0.260746     0.295888     0.293421
     4     O           -0.364940    -0.426560    -0.433700
     5     H           -0.070517    -0.056110    -0.071484
     6     H           -0.069812    -0.045887    -0.052650
     7     H           -0.042467    -0.003286     0.008718
     8     H           -0.062883    -0.034135     0.002077
     9     H           -0.070475    -0.061342    -0.037350
    10     H           -0.073189    -0.067410    -0.030921
    11     H           -0.076590    -0.066621    -0.085069
    12     H           -0.065342    -0.049875     0.000598
    13     C            0.219158     0.171263    -0.011408
    14     H           -0.065990    -0.050144     0.006220
    15     H           -0.066327    -0.042187    -0.034793
    16     H           -0.077100    -0.066291    -0.078629
    17     H           -0.062865    -0.042379    -0.002207
    18     H           -0.065922    -0.046769     0.005324
    19     N           -0.102218    -0.148543    -0.324811
    20     C            0.305958     0.384395     0.544320
    21     O           -0.448986    -0.560735    -0.576686
    22     N           -0.096610    -0.157876    -0.332115
    23     C            0.188369     0.166216     0.202138
    24     H            0.028781     0.099159     0.165914
    25     C            0.181144     0.158352     0.167693
    26     H            0.025652     0.105386     0.180423
    27     H           -0.050078    -0.016772    -0.024072
    28     C            0.211116     0.174736     0.191519
    29     C            0.214141     0.163251     0.063202
    30     H           -0.055304    -0.024184     0.073347
    31     H           -0.054270    -0.018325    -0.011779
    32     C            0.013629     0.002607     0.023347
    33     C            0.054261     0.031281    -0.034682
    34     C            0.057243     0.033838    -0.081972
    35     C            0.053482     0.024208    -0.073468
    36     C            0.058798     0.028849    -0.043457
    37     C            0.059660     0.036829    -0.104183
    38     H           -0.063321    -0.034816     0.051550
    39     H           -0.065275    -0.041039     0.059788
    40     H           -0.065240    -0.039286     0.045859
    41     H           -0.062265    -0.035189     0.055533
    42     C            0.066777     0.026516     0.075879
    43     C            0.209033     0.173584     0.175357
    44     H           -0.075380    -0.061818    -0.066046
    45     H           -0.075798    -0.063207    -0.066162
    46     H           -0.072564    -0.056963    -0.062731
    47     C            0.208460     0.174050     0.184228
    48     H           -0.069393    -0.049679    -0.048399
    49     H           -0.080060    -0.071942    -0.071475
    50     H           -0.075091    -0.065330    -0.070906
    51     C            0.205169     0.168851     0.176779
    52     H           -0.077609    -0.065890    -0.068099
    53     H           -0.075876    -0.062158    -0.061828
    54     C            0.013508    -0.002568     0.013852
    55     C            0.059034     0.033573    -0.051732
    56     C            0.066979     0.037561    -0.077527
    57     C            0.064861     0.036105    -0.158093
    58     C            0.065071     0.038356    -0.065448
    59     C            0.056233     0.032976    -0.129190
    60     H           -0.059126    -0.030037     0.082995
    61     H           -0.056855    -0.028953     0.090553
    62     H           -0.056411    -0.028098     0.111411
    63     H           -0.056538    -0.028132     0.106066
    64     H           -0.061872    -0.034896     0.079576

 -------------------------------- 
 MDC spin density (spinA - spinB)
 -------------------------------- 

        Atom    Level:     MDC-m        MDC-d        MDC-q
 ---------------------------------------------------------
     1     C            0.012194     0.021620    -0.030023
     2     C            0.538748     0.521737     0.624498
     3     C            0.047622     0.064693     0.091191
     4     O            0.282359     0.273746     0.255453
     5     H            0.000001     0.000000     0.000004
     6     H            0.000861     0.003670     0.004853
     7     H            0.014370     0.025394    -0.018737
     8     H           -0.001063    -0.006147    -0.035785
     9     H            0.000001    -0.000030    -0.000063
    10     H            0.000023     0.000097     0.000213
    11     H            0.000001    -0.000021    -0.000080
    12     H            0.000001     0.000014    -0.000042
    13     C            0.025181     0.023436     0.053961
    14     H            0.000263     0.001098    -0.008836
    15     H            0.000000    -0.000012    -0.000048
    16     H            0.000136     0.000473     0.001110
    17     H            0.005200     0.000590    -0.007576
    18     H            0.002041     0.005781    -0.000845
    19     N           -0.000127     0.000214    -0.000021
    20     C           -0.000008    -0.000069     0.000104
    21     O            0.000470     0.000474     0.000523
    22     N            0.000212    -0.000106     0.000232
    23     C           -0.000003     0.000024    -0.000138
    24     H           -0.000218     0.001229     0.001194
    25     C            0.000006    -0.000055     0.000041
    26     H            0.000431     0.001080     0.000214
    27     H           -0.000003    -0.000003    -0.000011
    28     C            0.000001    -0.000019    -0.000020
    29     C            0.000014     0.000015     0.000107
    30     H            0.000003     0.000003    -0.000015
    31     H            0.000023     0.000021     0.000065
    32     C           -0.000020    -0.000065    -0.000236
    33     C            0.000074     0.000020    -0.000690
    34     C            0.000081     0.000067    -0.000490
    35     C            0.000014    -0.000052     0.000020
    36     C            0.000003    -0.000009    -0.000019
    37     C            0.000037     0.000031     0.000055
    38     H            0.000055     0.000211     0.000285
    39     H            0.000060     0.000012     0.000005
    40     H            0.000001    -0.000003    -0.000003
    41     H            0.000001     0.000005     0.000004
    42     C            0.000010    -0.000021     0.000000
    43     C            0.000009     0.000006     0.000014
    44     H            0.000001    -0.000001    -0.000008
    45     H            0.000001     0.000000     0.000017
    46     H            0.000002     0.000001     0.000005
    47     C            0.000007    -0.000018     0.000007
    48     H            0.000002    -0.000021    -0.000041
    49     H            0.000001     0.000010    -0.000012
    50     H            0.000026     0.000080     0.000305
    51     C            0.000063    -0.000096     0.000087
    52     H            0.000004    -0.000080    -0.000159
    53     H            0.000006     0.000053     0.000067
    54     C            0.034381     0.027028     0.037811
    55     C            0.010677     0.010076     0.014895
    56     C           -0.000692    -0.000353    -0.004915
    57     C            0.012929     0.012371     0.016000
    58     C           -0.000710    -0.000006    -0.004339
    59     C            0.012319     0.010828     0.016320
    60     H            0.000433    -0.000216    -0.004866
    61     H            0.000123    -0.000155    -0.000104
    62     H            0.000592     0.001158    -0.000807
    63     H            0.000307    -0.000050     0.001497
    64     H            0.000460     0.000241    -0.002229



 ==========
 S**2 value  ***  see also R. Bulo et al., J.Am.Chem.Soc., 124 (2002) 13903-13910, note (29)  ***
 ==========
  
                                       exact      expectation value

 Total S2 (S squared)                  0.75000             0.75663



 =======================================================================
 Electrostatic potential at the Nuclei due to electrons and other nuclei
 =======================================================================
  
         Atom                  Potential
         ----                  ---------
     1)   C                  14.66828897
     2)   C                  14.67707297
     3)   C                  14.63846350
     4)   O                  22.32485296
     5)   H                   1.13180211
     6)   H                   1.09596615
     7)   H                   1.07745300
     8)   H                   1.09263328
     9)   H                   1.13154901
    10)   H                   1.13171252
    11)   H                   1.13176121
    12)   H                   1.13448065
    13)   C                  14.70321100
    14)   H                   1.10232524
    15)   H                   1.13461645
    16)   H                   1.13275173
    17)   H                   1.10204302
    18)   H                   1.10245006
    19)   N                  18.34019369
    20)   C                  14.62621930
    21)   O                  22.39386142
    22)   N                  18.34080979
    23)   C                  14.68288183
    24)   H                   1.04551923
    25)   C                  14.68991272
    26)   H                   1.04558891
    27)   H                   1.13437425
    28)   C                  14.73854624
    29)   C                  14.73756538
    30)   H                   1.11911050
    31)   H                   1.13998085
    32)   C                  14.71584603
    33)   C                  14.72500733
    34)   C                  14.72310418
    35)   C                  14.72338089
    36)   C                  14.72411349
    37)   C                  14.72756042
    38)   H                   1.11410878
    39)   H                   1.11332136
    40)   H                   1.11231892
    41)   H                   1.11426763
    42)   C                  14.70282909
    43)   C                  14.73982334
    44)   H                   1.13493343
    45)   H                   1.13548159
    46)   H                   1.13457193
    47)   C                  14.74795172
    48)   H                   1.14280996
    49)   H                   1.14054346
    50)   H                   1.14459768
    51)   C                  14.73821646
    52)   H                   1.13336916
    53)   H                   1.13225372
    54)   C                  14.68421212
    55)   C                  14.70194360
    56)   C                  14.70278727
    57)   C                  14.70340823
    58)   C                  14.70268154
    59)   C                  14.70188275
    60)   H                   1.09184958
    61)   H                   1.09450328
    62)   H                   1.09438447
    63)   H                   1.09389439
    64)   H                   1.09130157
 Mulliken charges used for AMS results%charges...
Bad geometry: added dihedral    23   19    4   22
 Using automatic Hessian for delocalized coordinates.
 *** PESPoint(1)_GOStep1 ***

 Energy gradients wrt nuclear displacements
 ==========================================

     Atom      Cartesian (a.u./angstrom)
                 X         Y         Z
 ----------------------------------------
     1 C     0.001924 -0.000216  0.001217
     2 C     0.000117 -0.001506  0.001154
     3 C     0.007596 -0.002491 -0.004053
     4 O    -0.010931  0.005771  0.004656
     5 H     0.000093  0.000581  0.000757
     6 H     0.000411  0.000436 -0.000537
     7 H    -0.000831 -0.000498  0.000682
     8 H     0.000526  0.000659 -0.000653
     9 H    -0.000499 -0.000616 -0.000215
    10 H     0.000560 -0.000056 -0.000902
    11 H     0.000885  0.000247 -0.000732
    12 H    -0.000132  0.000799  0.000060
    13 C    -0.001545  0.000466 -0.001515
    14 H    -0.000346 -0.000597  0.000622
    15 H    -0.000695 -0.000066 -0.000699
    16 H     0.000115 -0.000639 -0.000959
    17 H     0.000923 -0.000488 -0.000378
    18 H     0.000284  0.000748  0.000492
    19 N    -0.001333  0.000168 -0.002603
    20 C     0.005175  0.001395 -0.004908
    21 O    -0.010051 -0.000511  0.009721
    22 N     0.002652 -0.000769  0.000308
    23 C    -0.000885 -0.000944 -0.000021
    24 H     0.002212 -0.000525 -0.000987
    25 C     0.000161  0.001254  0.000382
    26 H     0.000847  0.000450 -0.001846
    27 H    -0.000047  0.000208  0.000759
    28 C     0.000109 -0.000438  0.000010
    29 C     0.000090 -0.000108  0.000122
    30 H    -0.000416  0.000243  0.000788
    31 H    -0.000885 -0.000225  0.000184
    32 C    -0.000597  0.001746 -0.000107
    33 C     0.000064  0.001073 -0.000955
    34 C     0.000995 -0.000632 -0.001677
    35 C     0.000711 -0.001739 -0.000375
    36 C    -0.000297 -0.001088  0.001217
    37 C    -0.000826  0.000917  0.001400
    38 H     0.000345  0.000571 -0.001101
    39 H     0.000616 -0.000376 -0.000865
    40 H     0.000459 -0.001210 -0.000180
    41 H    -0.000093 -0.000839  0.001002
    42 C     0.000060 -0.000515  0.000105
    43 C    -0.000009 -0.000119 -0.000281
    44 H     0.000772 -0.000255  0.000631
    45 H     0.000287  0.000874 -0.000169
    46 H    -0.000634 -0.000013  0.000520
    47 C     0.000253  0.000467 -0.000045
    48 H    -0.000914 -0.000167  0.000592
    49 H     0.000866 -0.000165  0.000613
    50 H     0.000033 -0.000664 -0.000933
    51 C     0.000050  0.000005  0.000100
    52 H     0.000322  0.000852 -0.000306
    53 H     0.000835 -0.000175  0.000478
    54 C     0.000384  0.001255  0.001268
    55 C     0.000165  0.000233  0.001832
    56 C    -0.000558 -0.001639  0.000430
    57 C    -0.000249 -0.001179 -0.000896
    58 C     0.000149 -0.000085 -0.001938
    59 C     0.000603  0.001682 -0.000207
    60 H    -0.000091 -0.000253  0.000974
    61 H    -0.000278 -0.001064  0.000343
    62 H    -0.000113 -0.001087 -0.000784
    63 H     0.000201  0.000033 -0.001127
    64 H     0.000405  0.000824 -0.000467
 ----------------------------------------
 Mulliken charges used for AMS results%charges...
 Residual max backtransformation error   0.3608E-01
 Residual max backtransformation error   0.1834E-01


 Constraint values: difference between the actual and the fixed coord values, a.u.
 =================================================================================

 Index  Constr. value     Atom indices
 ------------- NON-BLOCK constraints -------------------
     1    0.00000E+00     1    13
 -------------------------------------------------------
 
----------------------------------------------------------------------
Geometry Convergence after Step   1       (Hartree/Angstrom,Angstrom)
----------------------------------------------------------------------
current energy                              -13.53920983 Hartree
energy change                     -13.53920983     0.00064000    F
constrained gradient max            0.01092712     0.00100000    F
constrained gradient rms            0.00178395     0.00066667    F
gradient max                        0.01092712
gradient rms                        0.00180233
cart. step max                      0.21036458     0.01000000    F
cart. step rms                      0.05515048     0.00666667    F
 
 
--------
Geometry
--------
Formula: C25H35N2O2
Atoms
  Index Symbol   x (angstrom)   y (angstrom)   z (angstrom)
      1      C    -3.21140717     1.45757798     1.88658412
      2      C    -1.88380008     0.90945224     1.47945862
      3      C    -1.35073799    -0.32741642     1.95359914
      4      O    -0.26324702    -0.80875964     1.58630745
      5      H     1.37717187    -4.96470536    -3.12564043
      6      H    -3.69408850     0.72278671     2.54146929
      7      H    -1.26765780     1.47804745     0.78394556
      8      H    -1.98627299    -0.89186675     2.67116174
      9      H     5.36050498     0.70767456     1.41618766
     10      H     3.95620219    -0.10962470     2.12291772
     11      H     0.62360952    -4.52133160    -1.58778652
     12      H     4.99877573    -0.97804834     0.99003791
     13      C    -4.14382649     1.67657075     0.67428821
     14      H    -3.70779497     2.35347704    -0.06469709
     15      H     2.36876203    -4.34747481    -1.80465103
     16      H    -1.36267306    -2.00104359    -1.95822427
     17      H    -5.09740109     2.09868716     1.00618795
     18      H    -4.34241631     0.72323597     0.17519476
     19      N     2.64631841    -0.48828919    -0.28965121
     20      C     2.56534196    -1.12711169    -1.51376875
     21      O     3.43944244    -1.03583197    -2.37993062
     22      N     1.40830273    -1.86854488    -1.68602482
     23      C     3.71647806     0.46086307     0.01146658
     24      H     1.83311436    -0.48326840     0.31088736
     25      C     1.24852687    -2.79596291    -2.80350195
     26      H     0.85814790    -2.05140102    -0.85927345
     27      H     4.35842350     0.43257072    -0.87098201
     28      C     1.40217036    -4.24278609    -2.30603697
     29      C     4.55375194    -0.00392798     1.21228150
     30      H     3.79091700     2.44510672    -1.84509901
     31      H     2.09637464    -2.57936235    -3.45816741
     32      C     3.18024623     1.88630328     0.14382310
     33      C     2.54148346     2.34098841     1.30581289
     34      C     2.03973755     3.63978088     1.38993983
     35      C     2.17149597     4.51544566     0.31175049
     36      C     2.80567728     4.07787652    -0.85120678
     37      C     3.30213429     2.77658443    -0.93180055
     38      H     2.42951332     1.68060888     2.16164536
     39      H     1.54817515     3.96910138     2.30283519
     40      H     1.78787260     5.53117884     0.37891484
     41      H     2.91743124     4.75133235    -1.69838360
     42      C    -0.04627022    -2.49378794    -3.64461935
     43      C    -0.09622625    -3.42676369    -4.87247921
     44      H    -0.90944850    -3.12601051    -5.54131740
     45      H    -0.27302059    -4.47028369    -4.59881099
     46      H     0.83521679    -3.38039297    -5.44746686
     47      C     0.02106406    -1.03890990    -4.15376127
     48      H     0.91293197    -0.87389579    -4.76658211
     49      H    -0.85591108    -0.80976771    -4.76856626
     50      H     0.05102501    -0.32472092    -3.32768211
     51      C    -1.33462304    -2.67670956    -2.81907644
     52      H    -1.44903373    -3.70127442    -2.45221194
     53      H    -2.21374612    -2.45319586    -3.43309146
     54      C    -2.98309094     2.71859869     2.72985448
     55      C    -2.62872884     3.94805407     2.15666554
     56      C    -2.43028894     5.07453688     2.95286163
     57      C    -2.57269291     4.99347915     4.33863609
[...]
     26      H     0.90652939    -1.99239492    -0.71540640
     27      H     4.20270375     0.71211711    -1.21523562
     28      C     1.31409755    -4.04576618    -2.39776852
     29      C     4.90199050    -0.12404697     0.62235925
     30      H     3.20142493     2.76815288    -1.66102554
     31      H     1.62322780    -2.26421631    -3.54287662
     32      C     3.37577527     1.93250680     0.31806159
     33      C     3.23474874     2.21160798     1.68471778
     34      C     2.83200267     3.47479901     2.12468257
     35      C     2.56560041     4.48908867     1.20388094
     36      C     2.69901552     4.22537271    -0.16106879
     37      C     3.09850258     2.96110323    -0.59507133
     38      H     3.44557139     1.44430590     2.42501244
     39      H     2.73565092     3.66771384     3.19176228
     40      H     2.26583648     5.47797805     1.54605303
     41      H     2.50097999     5.00852234    -0.89059392
     42      C    -0.51285864    -2.36849180    -3.29205212
     43      C    -0.71905809    -3.20155011    -4.57488154
     44      H    -1.67741497    -2.94716479    -5.04087926
     45      H    -0.73164451    -4.27756461    -4.37901057
     46      H     0.06721398    -3.00074235    -5.31156022
     47      C    -0.68518096    -0.87964581    -3.65755098
     48      H     0.05387896    -0.56515964    -4.40217109
     49      H    -1.68142624    -0.70283745    -4.07790426
     50      H    -0.56737283    -0.23487162    -2.78295708
     51      C    -1.58736715    -2.76050402    -2.25875887
     52      H    -1.54594164    -3.82386326    -2.00247922
     53      H    -2.58831511    -2.56269370    -2.65875444
     54      C    -2.71102164     2.60071844     2.55892408
     55      C    -1.81201347     3.65712401     2.31325521
     56      C    -2.14070769     4.96476008     2.65557035
     57      C    -3.37233036     5.25371072     3.25079337
     58      C    -4.27577152     4.21906889     3.50030326
     59      C    -3.95005376     2.91031803     3.15313815
     60      H    -0.85255034     3.46305190     1.84408653
     61      H    -1.43247139     5.76577110     2.45475583
     62      H    -3.62553132     6.27816418     3.51579032
     63      H    -5.23643111     4.43267375     3.96414711
     64      H    -4.66184733     2.11134691     3.35158889
 
Total System Charge             0.00000
Bonding info available!
 
 *** PESPoint(10)_GOStep13 ***

 Energy gradients wrt nuclear displacements
 ==========================================

     Atom      Cartesian (a.u./angstrom)
                 X         Y         Z
 ----------------------------------------
     1 C    -0.003815 -0.000041 -0.008176
     2 C     0.000061  0.000033 -0.000156
     3 C     0.000018 -0.000112  0.000145
     4 O    -0.000039  0.000027 -0.000085
     5 H     0.000013 -0.000043 -0.000006
     6 H     0.000035  0.000036 -0.000116
     7 H    -0.000006  0.000046  0.000024
     8 H    -0.000059  0.000029 -0.000053
     9 H    -0.000008 -0.000017  0.000028
    10 H    -0.000025 -0.000031 -0.000007
    11 H    -0.000021  0.000016 -0.000021
    12 H    -0.000012 -0.000017  0.000015
    13 C     0.003457  0.000453  0.008377
    14 H    -0.000014 -0.000027 -0.000230
    15 H    -0.000032 -0.000014  0.000023
    16 H    -0.000087 -0.000094  0.000056
    17 H    -0.000176  0.000006 -0.000343
    18 H     0.000594 -0.000090  0.000703
    19 N     0.000148 -0.000395  0.000025
    20 C     0.000199  0.000107  0.000090
    21 O    -0.000105 -0.000004  0.000081
    22 N    -0.000286  0.000175 -0.000154
    23 C    -0.000071  0.000083  0.000085
    24 H    -0.000059  0.000179 -0.000005
    25 C     0.000014 -0.000201  0.000034
    26 H     0.000017 -0.000025  0.000010
    27 H     0.000007 -0.000017  0.000001
    28 C     0.000042 -0.000017 -0.000021
    29 C     0.000015  0.000002  0.000039
    30 H     0.000012 -0.000019  0.000012
    31 H    -0.000018 -0.000047 -0.000050
    32 C     0.000005 -0.000001  0.000043
    33 C     0.000033 -0.000042  0.000025
    34 C    -0.000015 -0.000012  0.000004
    35 C    -0.000026 -0.000019  0.000017
    36 C     0.000042 -0.000037 -0.000015
    37 C    -0.000011  0.000020 -0.000002
    38 H    -0.000012 -0.000012  0.000010
    39 H     0.000008 -0.000008  0.000008
    40 H     0.000011 -0.000006  0.000000
    41 H     0.000013 -0.000015  0.000017
    42 C     0.000002  0.000088  0.000091
    43 C     0.000085 -0.000033  0.000017
    44 H     0.000010  0.000014 -0.000002
    45 H    -0.000004 -0.000001  0.000000
    46 H     0.000006 -0.000014 -0.000001
    47 C     0.000022 -0.000039 -0.000053
    48 H     0.000000 -0.000011 -0.000029
    49 H     0.000027  0.000014  0.000018
    50 H     0.000041  0.000013  0.000006
    51 C     0.000010 -0.000040 -0.000196
    52 H    -0.000064  0.000019 -0.000043
    53 H     0.000019  0.000040 -0.000019
    54 C     0.000022 -0.000053 -0.000001
    55 C    -0.000086  0.000086  0.000005
    56 C     0.000102 -0.000044  0.000138
    57 C    -0.000101  0.000031 -0.000240
    58 C     0.000064 -0.000015  0.000125
    59 C    -0.000094  0.000022 -0.000102
    60 H     0.000073 -0.000018 -0.000051
    61 H     0.000032  0.000012 -0.000014
    62 H     0.000007  0.000024 -0.000017
    63 H     0.000002  0.000022 -0.000015
    64 H    -0.000023  0.000034 -0.000047
 ----------------------------------------
 Mulliken charges used for AMS results%charges...

 dE(predicted):    -0.66794E-05, dE(actual):    -0.17467E-05, Trust radius:    0.020000, all in a.u.
 Residual max backtransformation error   0.1167E-01


 Constraint values: difference between the actual and the fixed coord values, a.u.
 =================================================================================

 Index  Constr. value     Atom indices
 ------------- NON-BLOCK constraints -------------------
     1    0.88818E-15     1    13
 -------------------------------------------------------
 
----------------------------------------------------------------------
Geometry Convergence after Step  13       (Hartree/Angstrom,Angstrom)
----------------------------------------------------------------------
current energy                              -13.49417032 Hartree
energy change                      -0.00000175     0.00064000    T
constrained gradient max            0.00071963     0.00100000    T
constrained gradient rms            0.00010675     0.00066667    T
gradient max                        0.00839525
gradient rms                        0.00092889
cart. step max                      0.01311895     0.01000000    F
cart. step rms                      0.00270162     0.00666667    T
 
 
--------
Geometry
--------
Formula: C25H35N2O2
Atoms
  Index Symbol   x (angstrom)   y (angstrom)   z (angstrom)
      1      C    -2.40546614     1.19503450     2.25252452
      2      C    -1.15998773     0.66226525     2.03203547
      3      C    -0.95464434    -0.76653330     1.93732847
      4      O     0.12765434    -1.31190942     1.69567879
      5      H     1.16579924    -4.72267624    -3.24185327
      6      H    -3.20853619     0.49023431     2.46704292
      7      H    -0.27935146     1.28564216     1.90403833
      8      H    -1.86183968    -1.39395800     2.10417729
      9      H     5.76565821     0.53619873     0.75147759
     10      H     4.54889505    -0.42348785     1.61543663
     11      H     0.73094251    -4.42755197    -1.55138495
     12      H     5.23356805    -1.02904317     0.10342696
     13      C    -3.43761653     1.18519465    -0.02444029
     14      H    -2.75686197     1.89853137    -0.47352091
     15      H     2.37062249    -4.09136007    -2.11927469
     16      H    -1.48903728    -2.18438411    -1.33253977
     17      H    -4.43203030     1.52466376     0.24252036
     18      H    -3.28946665     0.13387975    -0.23962768
     19      N     2.65348090    -0.31079995    -0.40621142
     20      C     2.38165871    -0.90116644    -1.62608735
     21      O     3.06319023    -0.69576519    -2.63662195
     22      N     1.25956099    -1.71499889    -1.61993263
     23      C     3.80742944     0.56197753    -0.20900662
     24      H     2.03840057    -0.48548492     0.37775450
     25      C     0.94762153    -2.59230813    -2.74707046
     26      H     0.90697154    -1.99200242    -0.71382217
     27      H     4.20488213     0.71052591    -1.21576545
     28      C     1.31304558    -4.04514323    -2.39691354
     29      C     4.90193925    -0.12530946     0.62291443
     30      H     3.21046683     2.76890299    -1.66354151
     31      H     1.62324236    -2.26330218    -3.54139110
     32      C     3.37996855     1.93387855     0.31622095
     33      C     3.23746056     2.21403776     1.68251375
     34      C     2.83685869     3.47834967     2.12120399
     35      C     2.57425775     4.49278912     1.19947283
     36      C     2.70916650     4.22805985    -0.16512387
     37      C     3.10638457     2.96261709    -0.59783805
     38      H     3.44528564     1.44661998     2.42354343
     39      H     2.73908258     3.67196710     3.18802557
     40      H     2.27614377     5.48250252     1.54068786
     41      H     2.51409894     5.01126211    -0.89539894
     42      C    -0.51298817    -2.36729902    -3.29113570
     43      C    -0.71875469    -3.19941631    -4.57466381
     44      H    -1.67699189    -2.94485649    -5.04080872
     45      H    -0.73121734    -4.27557846    -4.37957486
     46      H     0.06774998    -2.99793385    -5.31091010
     47      C    -0.68544244    -0.87824942    -3.65573137
     48      H     0.05419394    -0.56293359    -4.39942581
     49      H    -1.68136417    -0.70155590    -4.07692997
     50      H    -0.56873817    -0.23405402    -2.78058852
     51      C    -1.58792709    -2.75996616    -2.25851232
     52      H    -1.54621717    -3.82335653    -2.00242632
     53      H    -2.58875220    -2.56245454    -2.65899146
     54      C    -2.71437618     2.59824878     2.55961519
     55      C    -1.81557469     3.65464206     2.31308185
     56      C    -2.14419098     4.96242387     2.65504011
     57      C    -3.37503580     5.25143047     3.25179546
     58      C    -4.27868365     4.21694879     3.50124766
     59      C    -3.95304578     2.90808079     3.15444469
     60      H    -0.85643443     3.46055343     1.84334079
     61      H    -1.43613405     5.76339424     2.45352765
     62      H    -3.62801655     6.27594008     3.51676766
     63      H    -5.23913719     4.43065160     3.96546670
     64      H    -4.66469297     2.10915076     3.35361716
 
Total System Charge             0.00000
Bonding info available!
 
 *** PESPoint(10)_GOStep14 ***

 Energy gradients wrt nuclear displacements
 ==========================================

     Atom      Cartesian (a.u./angstrom)
                 X         Y         Z
 ----------------------------------------
     1 C    -0.003730 -0.000013 -0.008248
     2 C    -0.000083  0.000052 -0.000079
     3 C    -0.000180  0.000081 -0.000154
     4 O     0.000154 -0.000095  0.000024
     5 H    -0.000001 -0.000020 -0.000020
     6 H    -0.000032 -0.000003 -0.000072
     7 H    -0.000015  0.000001  0.000047
     8 H    -0.000032  0.000014  0.000056
     9 H    -0.000018 -0.000019  0.000021
    10 H    -0.000029 -0.000025  0.000018
    11 H    -0.000013  0.000000 -0.000018
    12 H    -0.000012 -0.000016  0.000018
    13 C     0.003380  0.000398  0.008229
    14 H    -0.000037 -0.000063 -0.000134
    15 H    -0.000023  0.000002  0.000024
    16 H    -0.000092 -0.000102  0.000014
    17 H    -0.000063 -0.000008 -0.000313
    18 H     0.000594 -0.000002  0.000734
    19 N     0.000143 -0.000344  0.000138
    20 C     0.000194 -0.000188  0.000071
    21 O    -0.000089  0.000052  0.000003
    22 N    -0.000095  0.000187 -0.000050
    23 C    -0.000113  0.000129 -0.000053
    24 H    -0.000073  0.000166 -0.000022
    25 C     0.000025  0.000036  0.000062
    26 H     0.000006 -0.000054  0.000018
    27 H     0.000028  0.000004 -0.000003
    28 C    -0.000031  0.000008  0.000032
    29 C    -0.000024 -0.000028  0.000040
    30 H     0.000020 -0.000012  0.000012
    31 H    -0.000003 -0.000014 -0.000026
    32 C     0.000071 -0.000020  0.000049
    33 C     0.000051 -0.000011  0.000014
    34 C    -0.000016  0.000002  0.000003
    35 C     0.000020 -0.000013  0.000014
    36 C     0.000026 -0.000017 -0.000002
    37 C    -0.000020 -0.000014  0.000018
    38 H    -0.000018 -0.000020  0.000014
    39 H    -0.000008 -0.000015  0.000007
    40 H     0.000017 -0.000015 -0.000001
    41 H     0.000023 -0.000010 -0.000001
    42 C     0.000039 -0.000048  0.000023
    43 C     0.000018  0.000003 -0.000011
    44 H     0.000009  0.000000 -0.000022
    45 H     0.000002 -0.000009  0.000014
    46 H     0.000008 -0.000006  0.000009
    47 C     0.000020 -0.000034 -0.000028
    48 H    -0.000001 -0.000008 -0.000025
    49 H     0.000017 -0.000002  0.000003
    50 H     0.000031 -0.000012 -0.000021
    51 C    -0.000012 -0.000016 -0.000167
    52 H    -0.000055  0.000018 -0.000044
    53 H     0.000006  0.000035 -0.000022
    54 C     0.000051 -0.000105 -0.000006
    55 C    -0.000004  0.000036  0.000035
    56 C    -0.000013  0.000034 -0.000072
    57 C     0.000044  0.000018  0.000048
    58 C    -0.000026  0.000008 -0.000075
    59 C    -0.000038  0.000029 -0.000046
    60 H     0.000010 -0.000001  0.000007
    61 H    -0.000004  0.000000 -0.000006
    62 H     0.000006  0.000024 -0.000031
    63 H     0.000000  0.000022 -0.000030
    64 H    -0.000009  0.000023 -0.000015
 ----------------------------------------
 Mulliken charges used for AMS results%charges...

 dE(predicted):    -0.34151E-05, dE(actual):     0.18926E-05, Trust radius:    0.020000, all in a.u.
 Residual max backtransformation error   0.1842E-01


 Constraint values: difference between the actual and the fixed coord values, a.u.
 =================================================================================

 Index  Constr. value     Atom indices
 ------------- NON-BLOCK constraints -------------------
     1    0.00000E+00     1    13
 -------------------------------------------------------
 
---------------------------------------------------------
Geometry Convergence after Step  14       ** CONVERGED **
---------------------------------------------------------
current energy                              -13.49416843 Hartree
energy change                       0.00000189     0.00064000    T
constrained gradient max            0.00075124     0.00100000    T
constrained gradient rms            0.00009831     0.00066667    T
gradient max                        0.00824730
gradient rms                        0.00092096
cart. step max                      0.00558670     0.01000000    T
cart. step rms                      0.00147734     0.00666667    T
 
Geometry optimization converged

Optimized geometry:
 
--------
Geometry
--------
Formula: C25H35N2O2
Atoms
  Index Symbol   x (angstrom)   y (angstrom)   z (angstrom)
      1      C    -2.40546614     1.19503450     2.25252452
      2      C    -1.15998773     0.66226525     2.03203547
      3      C    -0.95464434    -0.76653330     1.93732847
      4      O     0.12765434    -1.31190942     1.69567879
      5      H     1.16579924    -4.72267624    -3.24185327
      6      H    -3.20853619     0.49023431     2.46704292
      7      H    -0.27935146     1.28564216     1.90403833
      8      H    -1.86183968    -1.39395800     2.10417729
      9      H     5.76565821     0.53619873     0.75147759
     10      H     4.54889505    -0.42348785     1.61543663
     11      H     0.73094251    -4.42755197    -1.55138495
     12      H     5.23356805    -1.02904317     0.10342696
     13      C    -3.43761653     1.18519465    -0.02444029
     14      H    -2.75686197     1.89853137    -0.47352091
     15      H     2.37062249    -4.09136007    -2.11927469
     16      H    -1.48903728    -2.18438411    -1.33253977
     17      H    -4.43203030     1.52466376     0.24252036
     18      H    -3.28946665     0.13387975    -0.23962768
     19      N     2.65348090    -0.31079995    -0.40621142
     20      C     2.38165871    -0.90116644    -1.62608735
     21      O     3.06319023    -0.69576519    -2.63662195
     22      N     1.25956099    -1.71499889    -1.61993263
     23      C     3.80742944     0.56197753    -0.20900662
     24      H     2.03840057    -0.48548492     0.37775450
     25      C     0.94762153    -2.59230813    -2.74707046
     26      H     0.90697154    -1.99200242    -0.71382217
     27      H     4.20488213     0.71052591    -1.21576545
     28      C     1.31304558    -4.04514323    -2.39691354
     29      C     4.90193925    -0.12530946     0.62291443
     30      H     3.21046683     2.76890299    -1.66354151
     31      H     1.62324236    -2.26330218    -3.54139110
     32      C     3.37996855     1.93387855     0.31622095
     33      C     3.23746056     2.21403776     1.68251375
     34      C     2.83685869     3.47834967     2.12120399
     35      C     2.57425775     4.49278912     1.19947283
     36      C     2.70916650     4.22805985    -0.16512387
     37      C     3.10638457     2.96261709    -0.59783805
     38      H     3.44528564     1.44661998     2.42354343
     39      H     2.73908258     3.67196710     3.18802557
     40      H     2.27614377     5.48250252     1.54068786
     41      H     2.51409894     5.01126211    -0.89539894
     42      C    -0.51298817    -2.36729902    -3.29113570
     43      C    -0.71875469    -3.19941631    -4.57466381
     44      H    -1.67699189    -2.94485649    -5.04080872
     45      H    -0.73121734    -4.27557846    -4.37957486
     46      H     0.06774998    -2.99793385    -5.31091010
     47      C    -0.68544244    -0.87824942    -3.65573137
     48      H     0.05419394    -0.56293359    -4.39942581
     49      H    -1.68136417    -0.70155590    -4.07692997
     50      H    -0.56873817    -0.23405402    -2.78058852
     51      C    -1.58792709    -2.75996616    -2.25851232
     52      H    -1.54621717    -3.82335653    -2.00242632
     53      H    -2.58875220    -2.56245454    -2.65899146
     54      C    -2.71437618     2.59824878     2.55961519
     55      C    -1.81557469     3.65464206     2.31308185
     56      C    -2.14419098     4.96242387     2.65504011
     57      C    -3.37503580     5.25143047     3.25179546
     58      C    -4.27868365     4.21694879     3.50124766
     59      C    -3.95304578     2.90808079     3.15444469
     60      H    -0.85643443     3.46055343     1.84334079
     61      H    -1.43613405     5.76339424     2.45352765
     62      H    -3.62801655     6.27594008     3.51676766
     63      H    -5.23913719     4.43065160     3.96546670
     64      H    -4.66469297     2.10915076     3.35361716
 
Total System Charge             0.00000
Bonding info available!
 

   ==========================
    Potential Energy Surface
   ==========================

Scanned coordinates:

====> Coordinate 1
Number of sample points: 10
Description: Distance C(1)--C(13)
Range:     2.9196    4.7243 Bohr

Results of the scan:

      PESPoint#      Coordinate 1       Energy [Ha]
      ---------      ------------      ------------
            (1)        2.91962686      -13.54005036
            (2)        3.12014780      -13.53655844
            (3)        3.32066874      -13.52909275
            (4)        3.52118968      -13.52023046
            (5)        3.72171062      -13.51140424
            (6)        3.92223156      -13.50366442
            (7)        4.12275250      -13.49799774
            (8)        4.32327343      -13.49482036
            (9)        4.52379437      -13.49379936
           (10)        4.72431531      -13.49416843

AMS application finished. Exiting.
NORMAL TERMINATION
     Total cpu time:   67605.14
  Total system time:    1193.70
 Total elapsed time:   70945.82
