

 Parallel Execution: Process Information
 ==============================================================================
 Rank   Node Name                              NodeID   MyNodeRank  NodeMaster
    0   DESKTOP-1M8FOJT                           0          0          0
    1   DESKTOP-1M8FOJT                           0          1         -1
    2   DESKTOP-1M8FOJT                           0          2         -1
    3   DESKTOP-1M8FOJT                           0          3         -1
 ==============================================================================


May use up to 4096MB of RAM as shared memory on node 0

 *******************************************************************************
 *                                                                             *
 *  --------------------------------                                           *
 *   Amsterdam Modeling Suite (AMS)              2021.106                      *
 *  --------------------------------                                           *
 *                                               r99350 2021-12-03             *
 *                                                                             *
 *                                                                             *
 *                              =================                              *
 *                              |               |                              *
 *                              |     A M S     |                              *
 *                              |               |                              *
 *                              =================                              *
 *                                                                             *
 *                                                                             *
 *   Online information and documentation:  https://www.scm.com/support/       *
 *   E-mail:  support@scm.com   info@scm.com                                   *
 *                                                                             *
 *   Scientific publications using AMS results must be properly referenced     *
 *   See the User Manuals (or the web site) for recommended citations          *
 *   The terms and conditions of the End User License Agreement apply to       *
 *   the use of AMS, https://www.scm.com/license-terms/                        *
 *                                                                             *
 *********************  x86_64_windows_amdZen / intelmpi  **********************
 
 Licensed to: Mr. Yuman Hordijk / SCM / Amsterdam / Netherlands 2021-10-04 09:39:26
 SCM User ID: u24430
  
 AMS 2021.106  RunTime: Jan24-2022 17:24:22  ShM Nodes: 1  Procs: 4

 AMS jobname: ams
 AMS jobid  : 1310511165

 Start   directory: D:/Users/Yuman/Desktop/MasterProject/manual_calculations/urea/tmp..8608.0.noindex/
 Results directory: D:/Users/Yuman/Desktop/MasterProject/manual_calculations/urea/phenyl_tbutyl_cat_O.results/
 Scratch directory: Z:/SCMTMP/amstmp_ams_kid0.1310511165/


 Communication costs MPI_COMM_WORLD:      1.819 usec per message,   0.0115 usec per 8-byte item
 Communication costs for intra-node:      1.441 usec per message,   0.0038 usec per 8-byte item

 RNG seed: 1635166577 894679445 1694940057 -514624262 -1459272415 609739039 -2103147785 619763749



                      ************************************************************************
                      *  ADF 2021.106  RunTime: Jan24-2022 17:24:23  ShM Nodes: 1  Procs: 4  *
                      ************************************************************************
  
       ***************************
       *  GEOMETRY OPTIMIZATION  *
       ***************************

Optimization Method                    Quasi Newton
Optimization Coordinates               Delocalized Coordinates
Optimize lattice                       F
 
 ------------------------------------------------------
 Convergence criteria (Hartree,Angstrom)
 ------------------------------------------------------
 Maximum gradient               0.001000000000
 Maximum rms gradient           0.000666666667
 Maximum step allowed           0.010000000000
 Maximum rms step allowed       0.006666666667
 Maximum energy change allowe   0.000360000000
 Maximum stress energy allowe   0.000500000000
 
Initial model Hessian                  Automatic Hessian
 
------------------------------------
Quasi-Newton Optimizer Parameters
------------------------------------
Hessian Update Method                  BFGS
Maximum number of steps                  250
First GDIIS cycle                          0
Maximum GDIIS vectors                      0
Trust radius (bohr)                        0.200000
Trust radius varies                        T
Constraints converged at all steps         T
Use projector                              T
 
 Rigid motions settings for: old optimizer
 Atomic rotations (x,y,z):     T T T
 Atomic translations (x,y,z):  T T T
 Tolerance:                   1.000000000000000E-006
 
--------
Geometry
--------
Formula: C13H20N2O
Atoms
  Index Symbol   x (angstrom)   y (angstrom)   z (angstrom)
      1      N     1.03487785     0.69442751     1.49333523
      2      C     0.04930508     1.54886060     1.05164665
      3      O    -0.07018564     2.76552676     1.43091625
      4      N    -0.79352616     0.93431104     0.16794219
      5      C     2.22983451     1.24697986     2.12682318
      6      H     1.22369464    -0.09829457     0.89358880
      7      C    -2.05698718     1.54172840    -0.20927522
      8      H    -0.74617816    -0.07184648     0.10539924
      9      H     1.91692375     2.14770824     2.66705938
     10      H    -1.94168759     2.62273013    -0.06262520
     11      H     2.61538225     0.50821175     2.83639484
     12      H     2.35294378     3.44730752     0.54992993
     13      H    -2.23644019     1.34199993    -1.27187946
     14      C     3.26359120     1.57731181     1.07515287
     15      C     4.29769873     0.68730705     0.79726778
     16      C     5.22451597     0.97641627    -0.19513586
     17      C     5.12158563     2.15466474    -0.92149715
     18      C     4.08890658     3.04345973    -0.65235555
     19      C     3.16393099     2.75724165     0.34033724
     20      H     4.38344006    -0.23535162     1.36249092
     21      H     6.02882309     0.27867419    -0.40161554
     22      H     5.84558652     2.37982319    -1.69666132
     23      H     4.00473536     3.96457635    -1.21843857
     24      C    -3.24832644     1.02330802     0.62694470
     25      C    -4.49046304     1.83036871     0.22043378
     26      H    -5.36507622     1.48078406     0.76979180
     27      H    -4.34412760     2.88837053     0.43983957
     28      H    -4.68534849     1.72053169    -0.84724339
     29      C    -3.49276155    -0.46521657     0.33528565
     30      H    -3.68144580    -0.62123090    -0.72778293
     31      H    -4.35690841    -0.82184794     0.89665816
     32      H    -2.62708518    -1.06232265     0.62575070
     33      C    -2.97759093     1.21893557     2.12455717
     34      H    -2.72499124     2.25954527     2.33034092
     35      H    -3.85925293     0.94636823     2.70564344
     36      H    -2.14436937     0.59401741     2.44649120
 
Total System Charge             0.00000
Bonding info available!
 
 
----------------
ADF Engine Input
----------------
 
 Basis
 Type TZ2P
 Core None
 End
 XC
 GGA OLYP
 End
 

 Title: *** (NO TITLE) ***

 Using automatic Hessian for delocalized coordinates.
 *** GOStep1 ***

 Energy gradients wrt nuclear displacements
 ==========================================

     Atom      Cartesian (a.u./angstrom)
                 X         Y         Z
 ----------------------------------------
     1 N    -0.005075 -0.003272 -0.020840
     2 C     0.008706 -0.090288 -0.026670
     3 O    -0.011971  0.099738  0.030622
     4 N     0.009882 -0.014579  0.015878
     5 C    -0.000810 -0.002705  0.005338
     6 H     0.000183  0.000107 -0.000413
     7 C    -0.001289  0.000069 -0.006053
     8 H    -0.001540 -0.001412  0.001017
     9 H    -0.001482  0.007201  0.000530
    10 H    -0.000655  0.007013  0.003529
    11 H    -0.000735 -0.001646 -0.001935
    12 H    -0.000174 -0.000888  0.000033
    13 H     0.000589 -0.002163  0.001693
    14 C    -0.001345  0.001031 -0.015274
    15 C    -0.002056  0.002002 -0.001228
    16 C    -0.006280  0.006536  0.003241
    17 C    -0.006480 -0.000324  0.006295
    18 C     0.001072 -0.004867  0.003871
    19 C     0.003315 -0.008823 -0.000024
    20 H    -0.001186  0.003748 -0.002978
    21 H    -0.003751  0.002992  0.001065
    22 H    -0.003374 -0.000675  0.003227
    23 H     0.000233 -0.003991  0.002359
    24 C     0.011505 -0.001963  0.000573
    25 C    -0.006458  0.004004 -0.000314
    26 H     0.005917 -0.000275 -0.000623
    27 H     0.002590 -0.005708  0.000161
    28 H     0.004639 -0.001520  0.005714
    29 C    -0.001602 -0.008009  0.000775
    30 H     0.002258  0.004886  0.005219
    31 H     0.002469  0.005663 -0.001633
    32 H     0.000038  0.008426 -0.001735
    33 C     0.000551 -0.001851  0.004373
    34 H    -0.000214 -0.000972 -0.005104
    35 H     0.002941  0.002027 -0.004117
    36 H    -0.000412  0.000488 -0.006573
 ----------------------------------------
 Mulliken charges used for AMS results%charges...
 
----------------------------------------------------------------------
Geometry Convergence after Step   1       (Hartree/Angstrom,Angstrom)
----------------------------------------------------------------------
current energy                               -7.60069942 Hartree
energy change                      -7.60069942     0.00036000    F
constrained gradient max            0.09977047     0.00100000    F
constrained gradient rms            0.01444711     0.00066667    F
gradient max                        0.09977047
gradient rms                        0.01444711
cart. step max                      0.21220069     0.01000000    F
cart. step rms                      0.07764348     0.00666667    F
 
 
--------
Geometry
--------
Formula: C13H20N2O
Atoms
  Index Symbol   x (angstrom)   y (angstrom)   z (angstrom)
      1      N     1.08192800     0.76843859     1.50247358
      2      C     0.05398721     1.60051983     1.08764548
      3      O    -0.06310234     2.77562161     1.46865950
      4      N    -0.82453559     0.99159140     0.22013035
      5      C     2.31137555     1.31129399     2.09286895
      6      H     1.25503027    -0.02930039     0.90474137
      7      C    -2.12328463     1.55494049    -0.12695475
      8      H    -0.75098094    -0.01027048     0.12889518
      9      H     2.02205145     2.21313562     2.63864365
     10      H    -2.03461207     2.63232296     0.04031682
     11      H     2.69631454     0.56898722     2.79934894
     12      H     2.52505557     3.51933859     0.48936610
     13      H    -2.28676561     1.37539216    -1.19628816
     14      C     3.36386952     1.61824477     1.04369896
     15      C     4.37932441     0.69465715     0.77669700
     16      C     5.32694708     0.94263929    -0.21430323
     17      C     5.26855775     2.12007504    -0.95381770
     18      C     4.25946626     3.04639320    -0.69657710
     19      C     3.31353174     2.79925446     0.29438988
     20      H     4.43310524    -0.22745469     1.35055855
     21      H     6.11097708     0.21555118    -0.40791406
     22      H     6.00677041     2.31556294    -1.72640077
     23      H     4.20989945     3.96720629    -1.27095284
     24      C    -3.34662283     0.99734196     0.65359282
     25      C    -4.57936339     1.80485118     0.20773950
     26      H    -5.48002225     1.43377944     0.70240098
     27      H    -4.46152059     2.86102351     0.46131345
     28      H    -4.72785663     1.72668614    -0.87278499
     29      C    -3.56327770    -0.48903768     0.30812957
     30      H    -3.70299641    -0.62379233    -0.76801893
     31      H    -4.45010209    -0.87384150     0.81686480
     32      H    -2.71225359    -1.09952590     0.62119203
     33      C    -3.16040894     1.14898355     2.17368533
     34      H    -2.93439428     2.18381573     2.43597988
     35      H    -4.07145362     0.84669920     2.69579747
     36      H    -2.34161417     0.52426097     2.53439383
 
Total System Charge             0.00000
Bonding info available!
 
 *** GOStep2 ***

 Energy gradients wrt nuclear displacements
 ==========================================

     Atom      Cartesian (a.u./angstrom)
                 X         Y         Z
 ----------------------------------------
     1 N    -0.005708  0.007853 -0.004977
     2 C     0.003282 -0.038190 -0.011593
     3 O    -0.002058  0.021885  0.006738
     4 N     0.009307  0.005567  0.005655
     5 C     0.004297 -0.003588  0.007011
     6 H     0.001087  0.001956 -0.000326
     7 C    -0.005926 -0.003428 -0.004633
     8 H    -0.002174  0.001261  0.001383
     9 H    -0.001677  0.002922 -0.000684
    10 H     0.001496  0.002290  0.002817
    11 H     0.000207 -0.001763 -0.002492
    12 H     0.000406 -0.001348  0.000314
    13 H     0.000299 -0.003656  0.001636
    14 C    -0.000479  0.002204 -0.005246
    15 C    -0.000837 -0.000519  0.000283
    16 C    -0.001408  0.002782  0.000422
    17 C    -0.001630 -0.000085  0.001946
    18 C     0.000906 -0.001380  0.000714
    19 C    -0.000375 -0.001239  0.000142
    20 H    -0.000652  0.001782 -0.001594
    21 H    -0.001475  0.001485  0.000203
    22 H    -0.001327 -0.000227  0.001435
    23 H     0.000049 -0.001755  0.001008
    24 C     0.002662  0.002872 -0.001563
    25 C    -0.005273  0.002318  0.000626
    26 H     0.002851  0.000064 -0.000029
    27 H     0.001669 -0.002955  0.000216
    28 H     0.002560 -0.000981  0.002885
    29 C    -0.001142 -0.005668  0.000713
    30 H     0.001284  0.002686  0.002698
    31 H     0.001518  0.003313 -0.000633
    32 H    -0.000421  0.004370 -0.001076
    33 C    -0.001174 -0.001055  0.004559
    34 H     0.000078 -0.001707 -0.002970
    35 H     0.001334  0.000951 -0.002431
    36 H    -0.001555  0.000982 -0.003156
 ----------------------------------------
 Mulliken charges used for AMS results%charges...

 dE(predicted):    -0.85093E-02, dE(actual):    -0.72262E-02, Trust radius:    0.400000, all in a.u.
 
----------------------------------------------------------------------
Geometry Convergence after Step   2       (Hartree/Angstrom,Angstrom)
----------------------------------------------------------------------
current energy                               -7.60792566 Hartree
energy change                      -0.00722624     0.00036000    F
constrained gradient max            0.03816801     0.00100000    F
constrained gradient rms            0.00519887     0.00066667    F
gradient max                        0.03816801
gradient rms                        0.00519887
cart. step max                      0.21351280     0.01000000    F
cart. step rms                      0.08263136     0.00666667    F
 
 
--------
Geometry
--------
Formula: C13H20N2O
Atoms
  Index Symbol   x (angstrom)   y (angstrom)   z (angstrom)
      1      N     1.06328063     0.89904883     1.54804380
      2      C     0.03270381     1.73870291     1.14345162
      3      O    -0.09585740     2.89942684     1.54450250
      4      N    -0.83274167     1.13286557     0.25541807
      5      C     2.31561501     1.42848403     2.10290406
      6      H     1.21137732     0.08646086     0.96309079
      7      C    -2.15475476     1.65539567    -0.06612693
      8      H    -0.71651896     0.14047043     0.11375431
      9      H     2.06156641     2.35793045     2.61741327
     10      H    -2.12462503     2.72152439     0.17294929
     11      H     2.68287497     0.70406754     2.83701063
     12      H     2.61072190     3.56039866     0.39871752
     13      H    -2.30160276     1.54431930    -1.14744121
     14      C     3.37603402     1.65319535     1.03908319
     15      C     4.35587235     0.68012413     0.81016132
     16      C     5.30450670     0.84168671    -0.19899986
     17      C     5.28578580     1.98452929    -0.99468408
     18      C     4.31629065     2.96270101    -0.77317988
     19      C     3.36863352     2.80026642     0.23495880
     20      H     4.37957842    -0.21544268     1.42781056
     21      H     6.05805877     0.07505469    -0.36233160
     22      H     6.02433167     2.11367614    -1.78162115
     23      H     4.29861235     3.85776608    -1.38979320
     24      C    -3.35396650     0.97617739     0.65677361
     25      C    -4.62433769     1.74703736     0.24987698
     26      H    -5.51053930     1.29336254     0.70161186
     27      H    -4.57110243     2.78807169     0.57991514
     28      H    -4.75917875     1.74120377    -0.83620793
     29      C    -3.48653914    -0.49149112     0.19970011
     30      H    -3.60952048    -0.55727231    -0.88589966
     31      H    -4.35612856    -0.96234281     0.66586123
     32      H    -2.60876835    -1.08212304     0.47853206
     33      C    -3.18850802     1.02543396     2.18734644
     34      H    -3.02509180     2.04851729     2.53221834
     35      H    -4.08465511     0.63318640     2.67602257
     36      H    -2.33838372     0.42297173     2.51466881
 
Total System Charge             0.00000
Bonding info available!
 
 *** GOStep3 ***

 Energy gradients wrt nuclear displacements
 ==========================================

     Atom      Cartesian (a.u./angstrom)
                 X         Y         Z
 ----------------------------------------
     1 N    -0.006756  0.004594 -0.003848
     2 C     0.001958 -0.021128 -0.005679
     3 O    -0.001771  0.010731  0.003478
     4 N     0.007996  0.003704  0.004175
     5 C     0.003544 -0.001524  0.005391
     6 H     0.001055  0.000832 -0.000526
     7 C    -0.005241 -0.000772 -0.003884
     8 H    -0.001548 -0.000154  0.001181
     9 H    -0.000982  0.001519 -0.000404
    10 H     0.001204  0.001433  0.001765
    11 H    -0.000188 -0.001958 -0.002842
    12 H     0.000515 -0.001364  0.000241
    13 H     0.000606 -0.003755  0.001285
    14 C    -0.000065  0.001881 -0.003085
    15 C    -0.000432 -0.000227  0.000472
    16 C    -0.000726  0.001438  0.000160
    17 C    -0.000899  0.000022  0.000915
    18 C     0.000773 -0.001083  0.000417
    19 C    -0.000191  0.000906 -0.000117
    20 H    -0.000400  0.001007 -0.001155
    21 H    -0.000784  0.000893  0.000016
    22 H    -0.000659 -0.000134  0.000874
    23 H    -0.000028 -0.000987  0.000670
    24 C     0.001530  0.002279 -0.000718
    25 C    -0.003839  0.001665  0.000202
    26 H     0.002069  0.000212  0.000046
    27 H     0.001244 -0.001867 -0.000018
    28 H     0.001547 -0.000586  0.001647
    29 C    -0.000688 -0.004203  0.000272
    30 H     0.000730  0.001624  0.001707
    31 H     0.000866  0.002396 -0.000371
    32 H    -0.000329  0.003054 -0.000608
    33 C    -0.000416 -0.000560  0.004144
    34 H     0.000604 -0.001319 -0.002095
    35 H     0.000788  0.000750 -0.001774
    36 H    -0.001086  0.000679 -0.001932
 ----------------------------------------
 Mulliken charges used for AMS results%charges...

 dE(predicted):    -0.29052E-02, dE(actual):    -0.21639E-03, Trust radius:    0.046039, all in a.u.
 
----------------------------------------------------------------------
Geometry Convergence after Step   3       (Hartree/Angstrom,Angstrom)
----------------------------------------------------------------------
current energy                               -7.60814205 Hartree
energy change                      -0.00021639     0.00036000    T
constrained gradient max            0.02110709     0.00100000    F
constrained gradient rms            0.00313984     0.00066667    F
gradient max                        0.02110709
gradient rms                        0.00313984
cart. step max                      0.04868008     0.01000000    F
cart. step rms                      0.02047423     0.00666667    F
 
 
--------
Geometry
--------
Formula: C13H20N2O
Atoms
  Index Symbol   x (angstrom)   y (angstrom)   z (angstrom)
      1      N     1.06327988     0.93152229     1.56488386
      2      C     0.03104933     1.77725771     1.16266556
      3      O    -0.09559471     2.93147899     1.56790410
      4      N    -0.83515455     1.17252764     0.26828728
      5      C     2.32156909     1.45392325     2.11191560
      6      H     1.20577822     0.11618284     0.98222460
      7      C    -2.16184653     1.68298394    -0.05133273
      8      H    -0.71037007     0.18282847     0.11532356
      9      H     2.07793328     2.38780461     2.62196772
     10      H    -2.14812310     2.74554778     0.20072290
     11      H     2.68727825     0.73343805     2.85122684
     12      H     2.63021988     3.56796851     0.38407330
     13      H    -2.30476661     1.58709624    -1.13511444
     14      C     3.37986055     1.65836768     1.04101838
     15      C     4.35038702     0.67344869     0.81548250
     16      C     5.29545761     0.81546433    -0.20130171
     17      C     5.28303202     1.95126870    -1.00889085
     18      C     4.32351664     2.94147665    -0.79100389
     19      C     3.37979988     2.79774559     0.22469703
     20      H     4.36951901    -0.21679774     1.44219413
     21      H     6.04089550     0.03941082    -0.36112150
     22      H     6.01825458     2.06582686    -1.80192290
     23      H     4.31061323     3.83115790    -1.41650930
     24      C    -3.35487690     0.97250004     0.65593135
     25      C    -4.63591782     1.72952788     0.25363290
     26      H    -5.51867489     1.25500511     0.69267591
     27      H    -4.60385651     2.76716225     0.59966746
     28      H    -4.76727037     1.73978849    -0.83370685
     29      C    -3.46252308    -0.49084051     0.17414443
     30      H    -3.57994830    -0.54350486    -0.91372501
     31      H    -4.32705923    -0.98499638     0.62760850
     32      H    -2.57832597    -1.07642154     0.44725713
     33      C    -3.19789223     0.99961257     2.18876223
     34      H    -3.05369067     2.01937196     2.55429615
     35      H    -4.08989952     0.58450632     2.66796787
     36      H    -2.33962905     0.40574435     2.51360929
 
Total System Charge             0.00000
Bonding info available!
 
 *** GOStep4 ***

 Energy gradients wrt nuclear displacements
 ==========================================

     Atom      Cartesian (a.u./angstrom)
                 X         Y         Z
 ----------------------------------------
     1 N    -0.003555  0.003421 -0.002727
     2 C     0.000540 -0.007681 -0.000848
     3 O    -0.000188  0.001230  0.000387
     4 N     0.004351  0.002841  0.002042
     5 C     0.002916 -0.000767  0.005759
     6 H     0.001592  0.000481 -0.000351
     7 C    -0.004487  0.000748 -0.004161
     8 H    -0.001892 -0.000376  0.000917
     9 H    -0.001016  0.000376 -0.000274
    10 H     0.001396  0.000410  0.000725
    11 H     0.000286 -0.001777 -0.002441
    12 H    -0.000028 -0.000749  0.000219
    13 H     0.000281 -0.003485  0.000790
    14 C    -0.001448  0.001449 -0.002032
    15 C    -0.000189 -0.000546  0.000470
    16 C     0.000157  0.000365  0.000065
    17 C    -0.000182  0.000162  0.000128
    18 C     0.000465 -0.000196  0.000074
    19 C    -0.000362  0.001068  0.000058
    20 H    -0.000355  0.000265 -0.000670
    21 H    -0.000265  0.000364 -0.000093
    22 H    -0.000187  0.000003  0.000351
    23 H    -0.000046 -0.000329  0.000233
    24 C     0.001413  0.001892 -0.000309
    25 C    -0.002534  0.001085  0.000251
    26 H     0.001074  0.000063  0.000254
    27 H     0.000823 -0.000788  0.000019
    28 H     0.000892 -0.000265  0.000730
    29 C    -0.000505 -0.002945  0.000479
    30 H     0.000485  0.000975  0.000698
    31 H     0.000274  0.001331 -0.000171
    32 H     0.000116  0.001783 -0.000469
    33 C    -0.000402 -0.000487  0.003120
    34 H     0.000809 -0.000611 -0.001178
    35 H     0.000218  0.000495 -0.000989
    36 H    -0.000447  0.000197 -0.001056
 ----------------------------------------
 Mulliken charges used for AMS results%charges...

 dE(predicted):    -0.46874E-03, dE(actual):     0.15029E-04, Trust radius:    0.020000, all in a.u.
 
----------------------------------------------------------------------
Geometry Convergence after Step   4       (Hartree/Angstrom,Angstrom)
----------------------------------------------------------------------
current energy                               -7.60812702 Hartree
energy change                       0.00001503     0.00036000    T
constrained gradient max            0.00766085     0.00100000    F
constrained gradient rms            0.00166422     0.00066667    F
gradient max                        0.00766085
gradient rms                        0.00166422
cart. step max                      0.02152392     0.01000000    F
cart. step rms                      0.00909500     0.00666667    F
 
 
--------
Geometry
--------
Formula: C13H20N2O
Atoms
  Index Symbol   x (angstrom)   y (angstrom)   z (angstrom)
      1      N     1.06293054     0.94608767     1.57174259
      2      C     0.03003071     1.79460827     1.17154469
      3      O    -0.09672242     2.94745633     1.57910327
      4      N    -0.83564205     1.18968392     0.27488020
      5      C     2.32403087     1.46523488     2.11469278
      6      H     1.20247250     0.12976019     0.98976267
      7      C    -2.16443238     1.69425444    -0.04356930
      8      H    -0.70622745     0.20136453     0.11705724
      9      H     2.08539511     2.40103420     2.62317782
     10      H    -2.15824697     2.75525838     0.21432968
     11      H     2.68899839     0.74610854     2.85595101
     12      H     2.64005797     3.57197876     0.37708217
     13      H    -2.30540112     1.60506429    -1.12837502
     14      C     3.38159115     1.66106642     1.04102587
     15      C     4.34743681     0.67080041     0.81716472
     16      C     5.29096147     0.80399848    -0.20246588
     17      C     5.28206215     1.93655669    -1.01493535
     18      C     4.32759841     2.93226344    -0.79875055
     19      C     3.38550849     2.79704961     0.21977059
     20      H     4.36404283    -0.21715071     1.44760052
     21      H     6.03241981     0.02357177    -0.36063795
     22      H     6.01598767     2.04444653    -1.81032012
     23      H     4.31737622     3.81960527    -1.42791434
     24      C    -3.35531874     0.97051653     0.65599527
     25      C    -4.64044971     1.72163774     0.25495162
     26      H    -5.52187882     1.23824225     0.68776024
     27      H    -4.61751916     2.75745799     0.60805615
     28      H    -4.76951525     1.73895513    -0.83287728
     29      C    -3.45213028    -0.49043760     0.16326097
     30      H    -3.56647101    -0.53704873    -0.92553940
     31      H    -4.31476520    -0.99424952     0.61053285
     32      H    -2.56546201    -1.07388162     0.43445669
     33      C    -3.20306624     0.98778272     2.18951641
     34      H    -3.06733328     2.00583675     2.56394847
     35      H    -4.09358136     0.56298240     2.66372475
     36      H    -2.34171378     0.39748912     2.51380734
 
Total System Charge             0.00000
Bonding info available!
 
 *** GOStep5 ***

 Energy gradients wrt nuclear displacements
 ==========================================

     Atom      Cartesian (a.u./angstrom)
                 X         Y         Z
 ----------------------------------------
     1 N    -0.002525  0.002258 -0.002557
     2 C     0.000147 -0.004939  0.000097
     3 O    -0.000079  0.001024  0.000261
     4 N     0.003442  0.002218  0.001160
     5 C     0.002499 -0.000521  0.005598
     6 H     0.001798  0.000346 -0.000243
     7 C    -0.003809  0.001081 -0.003964
     8 H    -0.001984 -0.000439  0.000834
     9 H    -0.000997  0.000000 -0.000167
    10 H     0.001414  0.000161  0.000348
    11 H     0.000420 -0.001755 -0.002296
    12 H    -0.000174 -0.000554  0.000182
    13 H     0.000208 -0.003419  0.000611
    14 C    -0.001666  0.001389 -0.001780
    15 C    -0.000090 -0.000448  0.000329
    16 C     0.000237  0.000199  0.000083
    17 C    -0.000082  0.000157  0.000023
    18 C     0.000351 -0.000077  0.000085
    19 C    -0.000208  0.000961  0.000053
    20 H    -0.000340  0.000028 -0.000511
    21 H    -0.000124  0.000205 -0.000116
    22 H    -0.000052  0.000043  0.000199
    23 H    -0.000046 -0.000145  0.000103
    24 C     0.001165  0.001785 -0.000029
    25 C    -0.002029  0.000815  0.000326
    26 H     0.000691  0.000008  0.000313
    27 H     0.000657 -0.000423  0.000041
    28 H     0.000651 -0.000159  0.000411
    29 C    -0.000412 -0.002385  0.000515
    30 H     0.000406  0.000742  0.000341
    31 H     0.000060  0.000930 -0.000098
    32 H     0.000277  0.001305 -0.000426
    33 C    -0.000416 -0.000449  0.002565
    34 H     0.000856 -0.000360 -0.000845
    35 H    -0.000005  0.000396 -0.000699
    36 H    -0.000241  0.000021 -0.000750
 ----------------------------------------
 Mulliken charges used for AMS results%charges...

 dE(predicted):    -0.16452E-03, dE(actual):     0.66153E-04, Trust radius:    0.020000, all in a.u.
 
----------------------------------------------------------------------
Geometry Convergence after Step   5       (Hartree/Angstrom,Angstrom)
----------------------------------------------------------------------
current energy                               -7.60806087 Hartree
energy change                       0.00006615     0.00036000    T
constrained gradient max            0.00562000     0.00100000    F
constrained gradient rms            0.00137418     0.00066667    F
gradient max                        0.00562000
gradient rms                        0.00137418
cart. step max                      0.02207586     0.01000000    F
cart. step rms                      0.00895394     0.00666667    F
 
 
--------
Geometry
--------
Formula: C13H20N2O
Atoms
  Index Symbol   x (angstrom)   y (angstrom)   z (angstrom)
      1      N     1.06239611     0.95988440     1.57841372
      2      C     0.02892955     1.81004739     1.17971908
      3      O    -0.09828310     2.96156772     1.58944350
      4      N    -0.83594508     1.20554360     0.28104224
      5      C     2.32584458     1.47704241     2.11715008
      6      H     1.19937979     0.14232800     0.99761752
      7      C    -2.16661105     1.70515737    -0.03556307
      8      H    -0.70206453     0.21871572     0.11793994
      9      H     2.09153871     2.41515538     2.62320095
     10      H    -2.16740925     2.76445364     0.22898159
     11      H     2.69029859     0.76012613     2.86100565
     12      H     2.64816999     3.57510786     0.36836900
     13      H    -2.30602360     1.62348347    -1.12131112
     14      C     3.38275437     1.66413120     1.04092774
     15      C     4.34449817     0.66908264     0.81992416
     16      C     5.28651182     0.79330150    -0.20229834
     17      C     5.28055519     1.92179591    -1.02049885
     18      C     4.33053507     2.92243423    -0.80715837
     19      C     3.38999378     2.79596531     0.21393443
     20      H     4.35902941    -0.21592212     1.45476621
     21      H     6.02450894     0.00897322    -0.35796644
     22      H     6.01324340     2.02281572    -1.81804020
     23      H     4.32255679     3.80681384    -1.44066059
     24      C    -3.35527971     0.96861027     0.65607947
     25      C    -4.64403354     1.71471109     0.25713230
     26      H    -5.52403224     1.22276330     0.68368970
     27      H    -4.62933495     2.74825477     0.61785223
     28      H    -4.77101530     1.73965619    -0.83097997
     29      C    -3.44229895    -0.48928499     0.15176278
     30      H    -3.55400010    -0.52900904    -0.93777634
     31      H    -4.30304999    -1.00214434     0.59289894
     32      H    -2.55339496    -1.07092604     0.42050218
     33      C    -3.20704392     0.97507827     2.18996640
     34      H    -3.07908532     1.99099989     2.57347983
     35      H    -4.09596359     0.54090654     2.65913958
     36      H    -2.34285123     0.38776503     2.51282545
 
Total System Charge             0.00000
Bonding info available!
 
 *** GOStep6 ***

 Energy gradients wrt nuclear displacements
 ==========================================

     Atom      Cartesian (a.u./angstrom)
                 X         Y         Z
 ----------------------------------------
     1 N    -0.001934  0.001543 -0.002451
     2 C    -0.000187 -0.003040  0.000718
     3 O     0.000055  0.000492  0.000008
     4 N     0.002873  0.001935  0.000665
     5 C     0.002101 -0.000350  0.005314
     6 H     0.001918  0.000299 -0.000146
     7 C    -0.003140  0.001287 -0.003691
     8 H    -0.002011 -0.000460  0.000810
     9 H    -0.000963 -0.000223 -0.000012
    10 H     0.001374  0.000095  0.000028
    11 H     0.000534 -0.001719 -0.002178
    12 H    -0.000246 -0.000430  0.000129
    13 H     0.000140 -0.003349  0.000489
    14 C    -0.001704  0.001345 -0.001652
    15 C    -0.000040 -0.000311  0.000187
    16 C     0.000225  0.000147  0.000102
    17 C    -0.000063  0.000140  0.000003
    18 C     0.000273 -0.000050  0.000130
    19 C    -0.000046  0.000815  0.000053
    20 H    -0.000328 -0.000109 -0.000419
    21 H    -0.000052  0.000118 -0.000125
    22 H     0.000017  0.000068  0.000116
    23 H    -0.000044 -0.000048  0.000038
    24 C     0.000909  0.001665  0.000276
    25 C    -0.001603  0.000563  0.000381
    26 H     0.000446 -0.000014  0.000328
    27 H     0.000518 -0.000205  0.000046
    28 H     0.000468 -0.000082  0.000226
    29 C    -0.000332 -0.001899  0.000519
    30 H     0.000349  0.000568  0.000132
    31 H    -0.000059  0.000654 -0.000061
    32 H     0.000354  0.000964 -0.000398
    33 C    -0.000420 -0.000439  0.002066
    34 H     0.000872 -0.000214 -0.000603
    35 H    -0.000127  0.000342 -0.000495
    36 H    -0.000129 -0.000097 -0.000532
 ----------------------------------------
 Mulliken charges used for AMS results%charges...

 dE(predicted):    -0.14976E-03, dE(actual):     0.59578E-04, Trust radius:    0.020000, all in a.u.
 
----------------------------------------------------------------------
Geometry Convergence after Step   6       (Hartree/Angstrom,Angstrom)
----------------------------------------------------------------------
current energy                               -7.60800129 Hartree
energy change                       0.00005958     0.00036000    T
constrained gradient max            0.00533617     0.00100000    F
constrained gradient rms            0.00118886     0.00066667    F
gradient max                        0.00533617
gradient rms                        0.00118886
cart. step max                      0.02198149     0.01000000    F
cart. step rms                      0.00877622     0.00666667    F
 
 
--------
Geometry
--------
Formula: C13H20N2O
Atoms
  Index Symbol   x (angstrom)   y (angstrom)   z (angstrom)
      1      N     1.06194776     0.97296462     1.58515790
      2      C     0.02795421     1.82400630     1.18764301
      3      O    -0.10000195     2.97445117     1.59947343
      4      N    -0.83595268     1.22020163     0.28710167
      5      C     2.32746994     1.48898670     2.11958956
      6      H     1.19665278     0.15400426     1.00586601
      7      C    -2.16840001     1.71544552    -0.02734506
      8      H    -0.69772449     0.23493889     0.11848856
      9      H     2.09700407     2.42964920     2.62260006
     10      H    -2.17569218     2.77289180     0.24430691
     11      H     2.69160118     0.77485983     2.86643993
     12      H     2.65482280     3.57746471     0.35888796
     13      H    -2.30638822     1.64173416    -1.11395759
     14      C     3.38363293     1.66732387     1.04086608
     15      C     4.34178543     0.66798129     0.82330596
     16      C     5.28215589     0.78330715    -0.20149645
     17      C     5.27845184     1.90726815    -1.02593205
     18      C     4.33234132     2.91234364    -0.81599044
     19      C     3.39345961     2.79458124     0.20766730
     20      H     4.35475863    -0.21366660     1.46294307
     21      H     6.01712539    -0.00449129    -0.35426257
     22      H     6.00979887     2.00142544    -1.82559823
     23      H     4.32608603     3.79337616    -1.45422733
     24      C    -3.35494476     0.96675591     0.65609567
     25      C    -4.64682800     1.70865088     0.25953950
     26      H    -5.52545994     1.20862458     0.67978151
     27      H    -4.63954380     2.73961688     0.62810314
     28      H    -4.77169666     1.74147402    -0.82871115
     29      C    -3.43307235    -0.48765485     0.14000259
     30      H    -3.54229398    -0.52005073    -0.95012799
     31      H    -4.29209189    -1.00889932     0.57498222
     32      H    -2.54221497    -1.06777277     0.40615078
     33      C    -3.21045305     0.96199582     2.19015074
     34      H    -3.08966619     1.97550422     2.58268159
     35      H    -4.09785806     0.51892505     2.65414252
     36      H    -2.34374163     0.37716793     2.51119260
 
Total System Charge             0.00000
Bonding info available!
 
 *** GOStep7 ***

 Energy gradients wrt nuclear displacements
 ==========================================

     Atom      Cartesian (a.u./angstrom)
                 X         Y         Z
 ----------------------------------------
     1 N    -0.001606  0.001087 -0.002387
     2 C    -0.000393 -0.002076  0.001014
     3 O     0.000141  0.000320 -0.000116
     4 N     0.002546  0.001801  0.000334
     5 C     0.001747 -0.000209  0.004988
     6 H     0.001997  0.000274 -0.000076
     7 C    -0.002564  0.001392 -0.003349
     8 H    -0.002007 -0.000466  0.000808
     9 H    -0.000918 -0.000364  0.000162
    10 H     0.001302  0.000108 -0.000245
    11 H     0.000630 -0.001664 -0.002081
    12 H    -0.000275 -0.000361  0.000077
    13 H     0.000080 -0.003273  0.000403
    14 C    -0.001681  0.001284 -0.001558
    15 C    -0.000010 -0.000203  0.000084
    16 C     0.000212  0.000122  0.000107
    17 C    -0.000059  0.000124 -0.000010
    18 C     0.000221 -0.000044  0.000163
    19 C     0.000067  0.000684  0.000074
    20 H    -0.000316 -0.000180 -0.000372
    21 H    -0.000015  0.000075 -0.000128
    22 H     0.000049  0.000083  0.000071
    23 H    -0.000042  0.000003  0.000007
    24 C     0.000650  0.001568  0.000558
    25 C    -0.001260  0.000359  0.000429
    26 H     0.000294 -0.000006  0.000319
    27 H     0.000408 -0.000083  0.000041
    28 H     0.000337 -0.000022  0.000127
    29 C    -0.000265 -0.001514  0.000506
    30 H     0.000307  0.000434  0.000026
    31 H    -0.000107  0.000467 -0.000042
    32 H     0.000368  0.000727 -0.000382
    33 C    -0.000427 -0.000439  0.001617
    34 H     0.000858 -0.000145 -0.000429
    35 H    -0.000181  0.000309 -0.000362
    36 H    -0.000086 -0.000173 -0.000378
 ----------------------------------------
 Mulliken charges used for AMS results%charges...

 dE(predicted):    -0.14165E-03, dE(actual):     0.51962E-04, Trust radius:    0.020000, all in a.u.
 
----------------------------------------------------------------------
Geometry Convergence after Step   7       (Hartree/Angstrom,Angstrom)
----------------------------------------------------------------------
current energy                               -7.60794933 Hartree
energy change                       0.00005196     0.00036000    T
constrained gradient max            0.00501079     0.00100000    F
constrained gradient rms            0.00107411     0.00066667    F
gradient max                        0.00501079
gradient rms                        0.00107411
cart. step max                      0.02185360     0.01000000    F
cart. step rms                      0.00868893     0.00666667    F
 
 
--------
Geometry
--------
Formula: C13H20N2O
Atoms
  Index Symbol   x (angstrom)   y (angstrom)   z (angstrom)
      1      N     1.06143411     0.98563629     1.59186991
      2      C     0.02694362     1.83705301     1.19529614
      3      O    -0.10197831     2.98650449     1.60919754
      4      N    -0.83587281     1.23412658     0.29293747
      5      C     2.32885317     1.50101214     2.12201601
      6      H     1.19404647     0.16517490     1.01426755
      7      C    -2.17004479     1.72538728    -0.01915601
      8      H    -0.69337925     0.25049543     0.11865092
      9      H     2.10191432     2.44436226     2.62157462
     10      H    -2.18351391     2.78083392     0.25994788
     11      H     2.69270608     0.79000021     2.87209558
     12      H     2.66052367     3.57938571     0.34899544
     13      H    -2.30674988     1.65994871    -1.10654746
     14      C     3.38421270     1.67060428     1.04086717
     15      C     4.33904589     0.66722724     0.82715058
     16      C     5.27771432     0.77367747    -0.20018029
     17      C     5.27590091     1.89281438    -1.03114145
     18      C     4.33341168     2.90207025    -0.82498004
     19      C     3.39622210     2.79303522     0.20119603
     20      H     4.35071929    -0.21080352     1.47181031
     21      H     6.00989138    -0.01735173    -0.34978388
     22      H     6.00586510     1.98007258    -1.83287567
     23      H     4.32862134     3.77950642    -1.46818882
     24      C    -3.35431031     0.96495476     0.65600664
     25      C    -4.64917624     1.70301220     0.26223789
     26      H    -5.52632051     1.19511374     0.67628531
     27      H    -4.64880844     2.73118223     0.63877229
     28      H    -4.77210800     1.74382845    -0.82601387
     29      C    -3.42409141    -0.48565406     0.12803543
     30      H    -3.53112828    -0.51038846    -0.96255507
     31      H    -4.28135562    -1.01490667     0.55696806
     32      H    -2.53133864    -1.06430335     0.39135966
     33      C    -3.21305026     0.94877325     2.19007822
     34      H    -3.09904524     1.95970442     2.59145372
     35      H    -4.09884363     0.49707145     2.64898810
     36      H    -2.34388674     0.36622398     2.50887550
 
Total System Charge             0.00000
Bonding info available!
 
 *** GOStep8 ***

 Energy gradients wrt nuclear displacements
 ==========================================

     Atom      Cartesian (a.u./angstrom)
                 X         Y         Z
 ----------------------------------------
     1 N    -0.001450  0.000824 -0.002336
     2 C    -0.000519 -0.001565  0.001156
     3 O     0.000203  0.000212 -0.000210
     4 N     0.002346  0.001750  0.000111
     5 C     0.001446 -0.000087  0.004664
     6 H     0.002046  0.000261 -0.000030
     7 C    -0.002099  0.001445 -0.002954
     8 H    -0.001985 -0.000472  0.000818
     9 H    -0.000859 -0.000458  0.000331
    10 H     0.001207  0.000155 -0.000474
    11 H     0.000706 -0.001607 -0.001997
    12 H    -0.000276 -0.000319  0.000025
    13 H     0.000024 -0.003197  0.000343
    14 C    -0.001625  0.001211 -0.001476
    15 C     0.000010 -0.000126  0.000013
    16 C     0.000200  0.000102  0.000112
    17 C    -0.000054  0.000121 -0.000026
    18 C     0.000186 -0.000025  0.000176
    19 C     0.000132  0.000595  0.000095
    20 H    -0.000301 -0.000217 -0.000349
    21 H    -0.000002  0.000053 -0.000127
    22 H     0.000059  0.000099  0.000048
    23 H    -0.000042  0.000029 -0.000005
    24 C     0.000450  0.001489  0.000794
    25 C    -0.000980  0.000177  0.000439
    26 H     0.000192  0.000003  0.000297
    27 H     0.000318 -0.000014  0.000033
    28 H     0.000242  0.000018  0.000083
    29 C    -0.000219 -0.001215  0.000484
    30 H     0.000267  0.000327 -0.000018
    31 H    -0.000114  0.000340 -0.000035
    32 H     0.000350  0.000565 -0.000369
    33 C    -0.000415 -0.000437  0.001233
    34 H     0.000834 -0.000113 -0.000312
    35 H    -0.000197  0.000299 -0.000267
    36 H    -0.000082 -0.000222 -0.000268
 ----------------------------------------
 Mulliken charges used for AMS results%charges...

 dE(predicted):    -0.13628E-03, dE(actual):     0.46472E-04, Trust radius:    0.020000, all in a.u.
 
----------------------------------------------------------------------
Geometry Convergence after Step   8       (Hartree/Angstrom,Angstrom)
----------------------------------------------------------------------
current energy                               -7.60790285 Hartree
energy change                       0.00004647     0.00036000    T
constrained gradient max            0.00468789     0.00100000    F
constrained gradient rms            0.00099389     0.00066667    F
gradient max                        0.00468789
gradient rms                        0.00099389
cart. step max                      0.02183629     0.01000000    F
cart. step rms                      0.00866360     0.00666667    F
 
 
--------
Geometry
--------
Formula: C13H20N2O
Atoms
  Index Symbol   x (angstrom)   y (angstrom)   z (angstrom)
      1      N     1.06091445     0.99795553     1.59863489
      2      C     0.02593191     1.84939060     1.20277690
      3      O    -0.10413364     2.99791108     1.61870422
      4      N    -0.83568952     1.24744158     0.29857630
      5      C     2.33005176     1.51313036     2.12452392
      6      H     1.19162731     0.17591274     1.02288619
      7      C    -2.17152312     1.73504728    -0.01105071
      8      H    -0.68902064     0.26550045     0.11850167
      9      H     2.10631725     2.45926943     2.62025318
     10      H    -2.19083933     2.78834178     0.27578394
     11      H     2.69371365     0.80553916     2.87802751
     12      H     2.66526401     3.58087958     0.33873157
     13      H    -2.30707107     1.67813468    -1.09913810
     14      C     3.38449470     1.67398007     1.04096446
     15      C     4.33626600     0.66680705     0.83144567
     16      C     5.27314297     0.76435174    -0.19840704
     17      C     5.27283564     1.87835489    -1.03620226
     18      C     4.33369247     2.89155542    -0.83416137
     19      C     3.39827235     2.79131219     0.19453736
     20      H     4.34690483    -0.20734344     1.48137691
     21      H     6.00275686    -0.02968874    -0.34461167
     22      H     6.00134881     1.95864820    -1.83999181
     23      H     4.33008663     3.76514281    -1.48259903
     24      C    -3.35337566     0.96321520     0.65579008
     25      C    -4.65111824     1.69779370     0.26521037
     26      H    -5.52667490     1.18220527     0.67316973
     27      H    -4.65720293     2.72296137     0.64987478
     28      H    -4.77230856     1.74676419    -0.82292310
     29      C    -3.41523459    -0.48330983     0.11581094
     30      H    -3.52033011    -0.50006076    -0.97513400
     31      H    -4.27072163    -1.02030049     0.53875997
     32      H    -2.52061024    -1.06053469     0.37609159
     33      C    -3.21493446     0.93537467     2.18977612
     34      H    -3.10738189     1.94355634     2.59993890
     35      H    -4.09905832     0.47523516     2.64362517
     36      H    -2.34336888     0.35491087     2.50595814
 
Total System Charge             0.00000
Bonding info available!
 
 *** GOStep9 ***

 Energy gradients wrt nuclear displacements
 ==========================================

     Atom      Cartesian (a.u./angstrom)
                 X         Y         Z
 ----------------------------------------
     1 N    -0.001368  0.000677 -0.002293
     2 C    -0.000588 -0.001327  0.001216
     3 O     0.000245  0.000162 -0.000277
     4 N     0.002198  0.001727 -0.000052
     5 C     0.001189  0.000016  0.004364
     6 H     0.002081  0.000250  0.000003
     7 C    -0.001739  0.001466 -0.002546
     8 H    -0.001957 -0.000479  0.000828
     9 H    -0.000793 -0.000524  0.000492
    10 H     0.001107  0.000210 -0.000672
    11 H     0.000769 -0.001547 -0.001920
    12 H    -0.000265 -0.000290 -0.000024
    13 H    -0.000030 -0.003120  0.000297
    14 C    -0.001573  0.001143 -0.001412
    15 C     0.000017 -0.000080 -0.000027
    16 C     0.000189  0.000112  0.000109
    17 C    -0.000039  0.000092 -0.000038
    18 C     0.000166 -0.000002  0.000168
    19 C     0.000170  0.000539  0.000114
    20 H    -0.000288 -0.000229 -0.000341
    21 H     0.000001  0.000039 -0.000123
    22 H     0.000065  0.000112  0.000036
    23 H    -0.000040  0.000040 -0.000012
    24 C     0.000318  0.001436  0.000975
    25 C    -0.000764  0.000040  0.000435
    26 H     0.000124  0.000019  0.000269
    27 H     0.000251  0.000016  0.000027
    28 H     0.000169  0.000047  0.000069
    29 C    -0.000180 -0.000990  0.000440
    30 H     0.000232  0.000247 -0.000032
    31 H    -0.000106  0.000252 -0.000035
    32 H     0.000321  0.000450 -0.000354
    33 C    -0.000395 -0.000436  0.000922
    34 H     0.000804 -0.000101 -0.000226
    35 H    -0.000198  0.000297 -0.000194
    36 H    -0.000094 -0.000262 -0.000189
 ----------------------------------------
 Mulliken charges used for AMS results%charges...

 dE(predicted):    -0.13291E-03, dE(actual):     0.42164E-04, Trust radius:    0.020000, all in a.u.
 
----------------------------------------------------------------------
Geometry Convergence after Step   9       (Hartree/Angstrom,Angstrom)
----------------------------------------------------------------------
current energy                               -7.60786069 Hartree
energy change                       0.00004216     0.00036000    T
constrained gradient max            0.00438872     0.00100000    F
constrained gradient rms            0.00093488     0.00066667    F
gradient max                        0.00438872
gradient rms                        0.00093488
cart. step max                      0.02151061     0.01000000    F
cart. step rms                      0.00860608     0.00666667    F
 
 
--------
Geometry
--------
Formula: C13H20N2O
Atoms
  Index Symbol   x (angstrom)   y (angstrom)   z (angstrom)
      1      N     1.06038281     1.00996086     1.60562213
      2      C     0.02500114     1.86128379     1.21030982
      3      O    -0.10627608     3.00891264     1.62822048
      4      N    -0.83530115     1.26037066     0.30419471
      5      C     2.33114676     1.52513454     2.12727602
      6      H     1.18923960     0.18628738     1.03181680
      7      C    -2.17272003     1.74451450    -0.00307637
      8      H    -0.68450112     0.28016863     0.11831875
      9      H     2.11045693     2.47414263     2.61888869
     10      H    -2.19769734     2.79553526     0.29161838
     11      H     2.69463646     0.82115408     2.88432176
     12      H     2.66903968     3.58187223     0.32868213
     13      H    -2.30706997     1.69623191    -1.09179010
     14      C     3.38449459     1.67721999     1.04125493
     15      C     4.33338518     0.66647168     0.83595022
     16      C     5.26822383     0.75522951    -0.19655770
     17      C     5.26894876     1.86397198    -1.04127585
     18      C     4.33295735     2.88088275    -0.84333949
     19      C     3.39955649     2.78932652     0.18800468
     20      H     4.34331556    -0.20367159     1.49123314
     21      H     5.99544746    -0.04161214    -0.33941248
     22      H     5.99581302     1.93736305    -1.84721796
     23      H     4.33018147     3.75050508    -1.49708408
     24      C    -3.35206825     0.96157647     0.65538787
     25      C    -4.65263606     1.69280190     0.26811002
     26      H    -5.52650551     1.16965513     0.67007254
     27      H    -4.66492238     2.71485292     0.66086997
     28      H    -4.77216736     1.74988164    -0.81982041
     29      C    -3.40622756    -0.48069942     0.10351701
     30      H    -3.50950812    -0.48937816    -0.98769428
     31      H    -4.25991853    -1.02519188     0.52054876
     32      H    -2.50973027    -1.05644217     0.36072703
     33      C    -3.21619561     0.92213256     2.18921617
     34      H    -3.11492323     1.92749073     2.60795728
     35      H    -4.09859750     0.45372455     2.63802446
     36      H    -2.34223717     0.34372523     2.50263639
 
Total System Charge             0.00000
Bonding info available!
 
 *** GOStep10 ***

 Energy gradients wrt nuclear displacements
 ==========================================

     Atom      Cartesian (a.u./angstrom)
                 X         Y         Z
 ----------------------------------------
     1 N    -0.001327  0.000592 -0.002276
     2 C    -0.000621 -0.001222  0.001249
     3 O     0.000278  0.000138 -0.000324
     4 N     0.002090  0.001712 -0.000178
     5 C     0.000957  0.000116  0.004095
     6 H     0.002098  0.000240  0.000025
     7 C    -0.001468  0.001469 -0.002138
     8 H    -0.001917 -0.000485  0.000834
     9 H    -0.000728 -0.000577  0.000646
    10 H     0.001004  0.000266 -0.000841
    11 H     0.000816 -0.001484 -0.001847
    12 H    -0.000248 -0.000267 -0.000061
    13 H    -0.000074 -0.003033  0.000260
    14 C    -0.001536  0.001086 -0.001352
    15 C     0.000029 -0.000060 -0.000057
    16 C     0.000188  0.000119  0.000126
    17 C    -0.000037  0.000074 -0.000068
    18 C     0.000153  0.000037  0.000166
    19 C     0.000196  0.000475  0.000135
    20 H    -0.000275 -0.000230 -0.000335
    21 H     0.000001  0.000036 -0.000120
    22 H     0.000065  0.000115  0.000029
    23 H    -0.000038  0.000043 -0.000011
    24 C     0.000237  0.001380  0.001105
    25 C    -0.000602 -0.000093  0.000420
    26 H     0.000084  0.000033  0.000240
    27 H     0.000201  0.000033  0.000030
    28 H     0.000114  0.000061  0.000067
    29 C    -0.000143 -0.000811  0.000367
    30 H     0.000203  0.000189 -0.000035
    31 H    -0.000089  0.000185 -0.000042
    32 H     0.000289  0.000371 -0.000338
    33 C    -0.000361 -0.000424  0.000656
    34 H     0.000766 -0.000090 -0.000165
    35 H    -0.000193  0.000299 -0.000135
    36 H    -0.000112 -0.000292 -0.000129
 ----------------------------------------
 Mulliken charges used for AMS results%charges...

 dE(predicted):    -0.12918E-03, dE(actual):     0.40204E-04, Trust radius:    0.020000, all in a.u.
 
----------------------------------------------------------------------
Geometry Convergence after Step  10       (Hartree/Angstrom,Angstrom)
----------------------------------------------------------------------
current energy                               -7.60782049 Hartree
energy change                       0.00004020     0.00036000    T
constrained gradient max            0.00411984     0.00100000    F
constrained gradient rms            0.00088888     0.00066667    F
gradient max                        0.00411984
gradient rms                        0.00088888
cart. step max                      0.02114724     0.01000000    F
cart. step rms                      0.00843172     0.00666667    F
 
 
--------
Geometry
--------
Formula: C13H20N2O
Atoms
  Index Symbol   x (angstrom)   y (angstrom)   z (angstrom)
      1      N     1.05991297     1.02147644     1.61259061
      2      C     0.02413189     1.87251861     1.21763907
      3      O    -0.10842348     3.01931906     1.63741007
      4      N    -0.83482909     1.27260533     0.30964387
      5      C     2.33219515     1.53698112     2.12994488
      6      H     1.18696359     0.19608041     1.04088543
      7      C    -2.17376477     1.75353381     0.00477315
      8      H    -0.67997731     0.29417974     0.11799009
      9      H     2.11428606     2.48894244     2.61708367
     10      H    -2.20405662     2.80216662     0.30742832
     11      H     2.69555292     0.83687094     2.89070757
     12      H     2.67199214     3.58236034     0.31853607
     13      H    -2.30699429     1.71396835    -1.08448441
     14      C     3.38442202     1.68037689     1.04156470
     15      C     4.33075842     0.66638050     0.84065981
     16      C     5.26351599     0.74657224    -0.19444768
     17      C     5.26486178     1.84993859    -1.04615231
     18      C     4.33166249     2.87021394    -0.85249314
     19      C     3.40032594     2.78713894     0.18142524
     20      H     4.34027866    -0.19963330     1.50137665
     21      H     5.98864240    -0.05278851    -0.33384898
     22      H     5.99004689     1.91660194    -1.85418777
     23      H     4.32940679     3.73576953    -1.51161140
     24      C    -3.35066650     0.95998631     0.65491022
     25      C    -4.65384710     1.68830376     0.27104326
     26      H    -5.52608567     1.15795838     0.66710704
     27      H    -4.67185641     2.70714675     0.67183505
     28      H    -4.77180378     1.75347212    -0.81660753
     29      C    -3.39768463    -0.47790904     0.09133090
     30      H    -3.49931716    -0.47848983    -1.00006255
     31      H    -4.24968151    -1.02946339     0.50257195
     32      H    -2.49944276    -1.05234103     0.34543018
     33      C    -3.21709771     0.90891744     2.18851711
     34      H    -3.12169641     1.91133149     2.61570897
     35      H    -4.09783101     0.43257731     2.63229998
     36      H    -2.34087600     0.33232123     2.49899332
 
Total System Charge             0.00000
Bonding info available!
 
 *** GOStep11 ***

 Energy gradients wrt nuclear displacements
 ==========================================

     Atom      Cartesian (a.u./angstrom)
                 X         Y         Z
 ----------------------------------------
     1 N    -0.001300  0.000529 -0.002243
     2 C    -0.000631 -0.001199  0.001258
     3 O     0.000300  0.000145 -0.000349
     4 N     0.002001  0.001696 -0.000318
     5 C     0.000743  0.000229  0.003825
     6 H     0.002100  0.000232  0.000041
     7 C    -0.001255  0.001452 -0.001723
     8 H    -0.001876 -0.000486  0.000834
     9 H    -0.000663 -0.000618  0.000780
    10 H     0.000901  0.000317 -0.000972
    11 H     0.000846 -0.001426 -0.001781
    12 H    -0.000236 -0.000244 -0.000086
    13 H    -0.000107 -0.002942  0.000225
    14 C    -0.001469  0.001021 -0.001310
    15 C     0.000027 -0.000043 -0.000066
    16 C     0.000192  0.000125  0.000126
    17 C    -0.000031  0.000057 -0.000093
    18 C     0.000136  0.000064  0.000176
    19 C     0.000214  0.000417  0.000164
    20 H    -0.000263 -0.000225 -0.000328
    21 H     0.000000  0.000040 -0.000119
    22 H     0.000060  0.000120  0.000027
    23 H    -0.000040  0.000046 -0.000009
    24 C     0.000189  0.001336  0.001180
    25 C    -0.000472 -0.000183  0.000388
    26 H     0.000062  0.000046  0.000223
    27 H     0.000162  0.000040  0.000031
    28 H     0.000071  0.000065  0.000068
    29 C    -0.000106 -0.000672  0.000297
    30 H     0.000175  0.000141 -0.000035
    31 H    -0.000075  0.000138 -0.000041
    32 H     0.000254  0.000310 -0.000319
    33 C    -0.000325 -0.000421  0.000452
    34 H     0.000728 -0.000091 -0.000124
    35 H    -0.000185  0.000297 -0.000095
    36 H    -0.000129 -0.000315 -0.000086
 ----------------------------------------
 Mulliken charges used for AMS results%charges...

 dE(predicted):    -0.12485E-03, dE(actual):     0.34186E-04, Trust radius:    0.020000, all in a.u.
 
----------------------------------------------------------------------
Geometry Convergence after Step  11       (Hartree/Angstrom,Angstrom)
----------------------------------------------------------------------
current energy                               -7.60778630 Hartree
energy change                       0.00003419     0.00036000    T
constrained gradient max            0.00384926     0.00100000    F
constrained gradient rms            0.00084882     0.00066667    F
gradient max                        0.00384926
gradient rms                        0.00084882
cart. step max                      0.02079506     0.01000000    F
cart. step rms                      0.00833133     0.00666667    F
 
 
--------
Geometry
--------
Formula: C13H20N2O
Atoms
  Index Symbol   x (angstrom)   y (angstrom)   z (angstrom)
      1      N     1.05951316     1.03261716     1.61968752
      2      C     0.02334268     1.88329326     1.22497369
      3      O    -0.11051537     3.02930040     1.64650427
      4      N    -0.83424573     1.28436117     0.31509955
      5      C     2.33325761     1.54866574     2.13266885
      6      H     1.18475809     0.20543963     1.05018105
      7      C    -2.17463106     1.76224462     0.01253929
      8      H    -0.67538830     0.30774582     0.11771618
      9      H     2.11795047     2.50363827     2.61505860
     10      H    -2.20998554     2.80838967     0.32319799
     11      H     2.69654102     0.85261857     2.89725432
     12      H     2.67424493     3.58242623     0.30841885
     13      H    -2.30673626     1.73142676    -1.07718785
     14      C     3.38426061     1.68343720     1.04194148
     15      C     4.32827821     0.66644638     0.84548922
     16      C     5.25883265     0.73823755    -0.19223650
     17      C     5.26042093     1.83612852    -1.05097244
     18      C     4.32976802     2.85950732    -0.86165032
     19      C     3.40061496     2.78476139     0.17485731
     20      H     4.33767193    -0.19534635     1.51168218
     21      H     5.98206777    -0.06343228    -0.32816521
     22      H     5.98383800     1.89618093    -1.86110936
     23      H     4.32774692     3.72091012    -1.52618562
     24      C    -3.34914580     0.95845622     0.65434143
     25      C    -4.65482302     1.68410467     0.27391775
     26      H    -5.52545614     1.14679099     0.66411207
     27      H    -4.67826578     2.69965634     0.68268305
     28      H    -4.77124054     1.75733580    -0.81338596
     29      C    -3.38931956    -0.47493035     0.07918152
     30      H    -3.48937087    -0.46735484    -1.01232218
     31      H    -4.23967420    -1.03329142     0.48464402
     32      H    -2.48939186    -1.04810994     0.33017051
     33      C    -3.21774381     0.89581852     2.18767557
     34      H    -3.12797831     1.89520889     2.62317689
     35      H    -4.09683760     0.41178225     2.62641819
     36      H    -2.33933433     0.32092028     2.49513551
 
Total System Charge             0.00000
Bonding info available!
 
 *** GOStep12 ***

 Energy gradients wrt nuclear displacements
 ==========================================

     Atom      Cartesian (a.u./angstrom)
                 X         Y         Z
 ----------------------------------------
     1 N    -0.001276  0.000483 -0.002198
     2 C    -0.000632 -0.001202  0.001271
     3 O     0.000319  0.000146 -0.000371
     4 N     0.001932  0.001689 -0.000457
     5 C     0.000543  0.000353  0.003571
     6 H     0.002087  0.000221  0.000052
     7 C    -0.001086  0.001393 -0.001348
     8 H    -0.001826 -0.000485  0.000828
     9 H    -0.000600 -0.000647  0.000890
    10 H     0.000809  0.000364 -0.001087
    11 H     0.000863 -0.001374 -0.001714
    12 H    -0.000231 -0.000218 -0.000100
    13 H    -0.000132 -0.002856  0.000199
    14 C    -0.001397  0.000948 -0.001272
    15 C     0.000019 -0.000037 -0.000061
    16 C     0.000196  0.000137  0.000114
    17 C    -0.000039  0.000053 -0.000097
    18 C     0.000140  0.000087  0.000169
    19 C     0.000226  0.000364  0.000192
    20 H    -0.000251 -0.000217 -0.000321
    21 H    -0.000001  0.000040 -0.000116
    22 H     0.000054  0.000128  0.000024
    23 H    -0.000042  0.000053 -0.000005
    24 C     0.000167  0.001283  0.001206
    25 C    -0.000385 -0.000251  0.000355
    26 H     0.000048  0.000057  0.000208
    27 H     0.000134  0.000041  0.000030
    28 H     0.000038  0.000070  0.000067
    29 C    -0.000057 -0.000545  0.000225
    30 H     0.000150  0.000106 -0.000032
    31 H    -0.000060  0.000102 -0.000038
    32 H     0.000222  0.000266 -0.000297
    33 C    -0.000293 -0.000418  0.000311
    34 H     0.000684 -0.000097 -0.000083
    35 H    -0.000181  0.000294 -0.000059
    36 H    -0.000144 -0.000333 -0.000056
 ----------------------------------------
 Mulliken charges used for AMS results%charges...

 dE(predicted):    -0.12082E-03, dE(actual):     0.30646E-04, Trust radius:    0.020000, all in a.u.
 
----------------------------------------------------------------------
Geometry Convergence after Step  12       (Hartree/Angstrom,Angstrom)
----------------------------------------------------------------------
current energy                               -7.60775565 Hartree
energy change                       0.00003065     0.00036000    T
constrained gradient max            0.00359392     0.00100000    F
constrained gradient rms            0.00081427     0.00066667    F
gradient max                        0.00359392
gradient rms                        0.00081427
cart. step max                      0.02052150     0.01000000    F
cart. step rms                      0.00823623     0.00666667    F
 
 
--------
Geometry
--------
Formula: C13H20N2O
Atoms
  Index Symbol   x (angstrom)   y (angstrom)   z (angstrom)
      1      N     1.05911134     1.04344707     1.62670240
      2      C     0.02254288     1.89370844     1.23213511
      3      O    -0.11263452     3.03893815     1.65538305
      4      N    -0.83369968     1.29577180     0.32039858
      5      C     2.33426868     1.56019016     2.13530456
      6      H     1.18255967     0.21445398     1.05946406
      7      C    -2.17549910     1.77076371     0.02015645
      8      H    -0.67090189     0.32100499     0.11729388
      9      H     2.12136431     2.51819909     2.61272245
     10      H    -2.21570375     2.81430783     0.33890287
     11      H     2.69750020     0.86835569     2.90379155
     12      H     2.67600767     3.58214429     0.29821239
     13      H    -2.30656731     1.74876200    -1.06996001
     14      C     3.38404455     1.68643265     1.04233671
     15      C     4.32596952     0.66666991     0.85047216
     16      C     5.25432706     0.73018308    -0.18977308
     17      C     5.25592568     1.82249841    -1.05557937
     18      C     4.32757927     2.84875766    -0.87073327
     19      C     3.40060621     2.78223298     0.16826984
     20      H     4.33541183    -0.19081475     1.52217898
     21      H     5.97586209    -0.07361244    -0.32212989
     22      H     5.97758433     1.87602875    -1.86774186
     23      H     4.32561705     3.70592493    -1.54072212
     24      C    -3.34758298     0.95697479     0.65370904
     25      C    -4.65573440     1.68008827     0.27692155
     26      H    -5.52470513     1.13596013     0.66137798
     27      H    -4.68437619     2.69227084     0.69360497
     28      H    -4.77078656     1.76134331    -0.80995506
     29      C    -3.38123190    -0.47179880     0.06708258
     30      H    -3.47991766    -0.45603070    -1.02444851
     31      H    -4.22992366    -1.03675606     0.46688842
     32      H    -2.47962668    -1.04377211     0.31482821
     33      C    -3.21798758     0.88281647     2.18667488
     34      H    -3.13361611     1.87912158     2.63032187
     35      H    -4.09537887     0.39126075     2.62049020
     36      H    -2.33738450     0.30955862     2.49092986
 
Total System Charge             0.00000
Bonding info available!
 
 *** GOStep13 ***

 Energy gradients wrt nuclear displacements
 ==========================================

     Atom      Cartesian (a.u./angstrom)
                 X         Y         Z
 ----------------------------------------
     1 N    -0.001243  0.000435 -0.002133
     2 C    -0.000631 -0.001224  0.001279
     3 O     0.000330  0.000149 -0.000385
     4 N     0.001862  0.001682 -0.000608
     5 C     0.000369  0.000466  0.003339
     6 H     0.002063  0.000211  0.000063
     7 C    -0.000939  0.001329 -0.001021
     8 H    -0.001775 -0.000481  0.000817
     9 H    -0.000545 -0.000672  0.000981
    10 H     0.000729  0.000410 -0.001190
    11 H     0.000873 -0.001325 -0.001647
    12 H    -0.000227 -0.000199 -0.000108
    13 H    -0.000151 -0.002769  0.000172
    14 C    -0.001332  0.000872 -0.001227
    15 C     0.000021 -0.000039 -0.000070
    16 C     0.000193  0.000146  0.000109
    17 C    -0.000043  0.000040 -0.000094
    18 C     0.000136  0.000109  0.000170
    19 C     0.000239  0.000343  0.000211
    20 H    -0.000238 -0.000208 -0.000314
    21 H    -0.000002  0.000043 -0.000114
    22 H     0.000053  0.000132  0.000022
    23 H    -0.000043  0.000059 -0.000001
    24 C     0.000148  0.001230  0.001209
    25 C    -0.000315 -0.000271  0.000323
    26 H     0.000027  0.000058  0.000198
    27 H     0.000109  0.000029  0.000034
    28 H     0.000015  0.000076  0.000066
    29 C    -0.000016 -0.000428  0.000166
    30 H     0.000121  0.000088 -0.000032
    31 H    -0.000044  0.000072 -0.000031
    32 H     0.000195  0.000232 -0.000275
    33 C    -0.000247 -0.000426  0.000203
    34 H     0.000642 -0.000099 -0.000046
    35 H    -0.000178  0.000278 -0.000033
    36 H    -0.000157 -0.000350 -0.000032
 ----------------------------------------
 Mulliken charges used for AMS results%charges...

 dE(predicted):    -0.11708E-03, dE(actual):     0.27367E-04, Trust radius:    0.020000, all in a.u.
 
----------------------------------------------------------------------
Geometry Convergence after Step  13       (Hartree/Angstrom,Angstrom)
----------------------------------------------------------------------
current energy                               -7.60772829 Hartree
energy change                       0.00002737     0.00036000    T
constrained gradient max            0.00336052     0.00100000    F
constrained gradient rms            0.00078406     0.00066667    F
gradient max                        0.00336052
gradient rms                        0.00078406
cart. step max                      0.02006502     0.01000000    F
cart. step rms                      0.00815318     0.00666667    F
 
 
--------
Geometry
--------
Formula: C13H20N2O
Atoms
  Index Symbol   x (angstrom)   y (angstrom)   z (angstrom)
      1      N     1.05882430     1.05406031     1.63395274
      2      C     0.02186134     1.90394114     1.23959765
      3      O    -0.11459513     3.04840344     1.66454532
      4      N    -0.83302533     1.30699231     0.32601076
      5      C     2.33544740     1.57148782     2.13805705
      6      H     1.18037996     0.22326368     1.06896027
      7      C    -2.17620514     1.77908287     0.02784786
      8      H    -0.66626848     0.33411373     0.11724688
      9      H     2.12492266     2.53253330     2.61040982
     10      H    -2.22121593     2.81994068     0.35465750
     11      H     2.69869796     0.88390440     2.91039921
     12      H     2.67736302     3.58158661     0.28829609
     13      H    -2.30608096     1.76584080    -1.06260260
     14      C     3.38381526     1.68929120     1.04278018
     15      C     4.32373713     0.66691123     0.85534192
     16      C     5.24971397     0.72230568    -0.18750983
     17      C     5.25103029     1.80905252    -1.06029857
     18      C     4.32488401     2.83802683    -0.87976471
     19      C     3.40028070     2.77956667     0.16181326
     20      H     4.33344524    -0.18626122     1.53249475
     21      H     5.96963769    -0.08348948    -0.31643513
     22      H     5.97078474     1.85618751    -1.87454550
     23      H     4.32275311     3.69095821    -1.55513563
     24      C    -3.34594756     0.95553259     0.65299663
     25      C    -4.65645919     1.67614562     0.27957795
     26      H    -5.52380357     1.12537164     0.65822342
     27      H    -4.69022867     2.68493811     0.70400584
     28      H    -4.77000624     1.76527266    -0.80683490
     29      C    -3.37314359    -0.46859671     0.05512236
     30      H    -3.47034270    -0.44472639    -1.03638543
     31      H    -4.22025061    -1.03994776     0.44918473
     32      H    -2.46992200    -1.03935483     0.29980938
     33      C    -3.21827391     0.87007873     2.18553612
     34      H    -3.13924058     1.86329322     2.63708331
     35      H    -4.09400824     0.37119573     2.61434053
     36      H    -2.33553708     0.29848261     2.48673217
 
Total System Charge             0.00000
Bonding info available!
 
 *** GOStep14 ***

 Energy gradients wrt nuclear displacements
 ==========================================

     Atom      Cartesian (a.u./angstrom)
                 X         Y         Z
 ----------------------------------------
     1 N    -0.001221  0.000387 -0.002081
     2 C    -0.000627 -0.001251  0.001303
     3 O     0.000341  0.000161 -0.000397
     4 N     0.001835  0.001702 -0.000755
     5 C     0.000213  0.000579  0.003130
     6 H     0.002028  0.000196  0.000066
     7 C    -0.000846  0.001221 -0.000712
     8 H    -0.001714 -0.000477  0.000802
     9 H    -0.000498 -0.000692  0.001055
    10 H     0.000643  0.000453 -0.001263
    11 H     0.000876 -0.001281 -0.001577
    12 H    -0.000221 -0.000183 -0.000110
    13 H    -0.000159 -0.002693  0.000148
    14 C    -0.001271  0.000782 -0.001190
    15 C     0.000026 -0.000034 -0.000065
    16 C     0.000187  0.000147  0.000102
    17 C    -0.000044  0.000060 -0.000088
    18 C     0.000137  0.000120  0.000166
    19 C     0.000249  0.000340  0.000228
    20 H    -0.000222 -0.000195 -0.000299
    21 H    -0.000003  0.000047 -0.000112
    22 H     0.000050  0.000140  0.000020
    23 H    -0.000044  0.000061 -0.000001
    24 C     0.000133  0.001189  0.001197
    25 C    -0.000253 -0.000298  0.000277
    26 H     0.000016  0.000056  0.000186
    27 H     0.000095  0.000026  0.000037
    28 H     0.000002  0.000070  0.000062
    29 C     0.000008 -0.000335  0.000099
    30 H     0.000092  0.000074 -0.000032
    31 H    -0.000024  0.000046 -0.000026
    32 H     0.000171  0.000205 -0.000256
    33 C    -0.000215 -0.000425  0.000134
    34 H     0.000598 -0.000105 -0.000020
    35 H    -0.000172  0.000269 -0.000013
    36 H    -0.000168 -0.000362 -0.000016
 ----------------------------------------
 Mulliken charges used for AMS results%charges...

 dE(predicted):    -0.11345E-03, dE(actual):     0.26105E-04, Trust radius:    0.020000, all in a.u.
 
----------------------------------------------------------------------
Geometry Convergence after Step  14       (Hartree/Angstrom,Angstrom)
----------------------------------------------------------------------
current energy                               -7.60770218 Hartree
energy change                       0.00002611     0.00036000    T
constrained gradient max            0.00314891     0.00100000    F
constrained gradient rms            0.00075979     0.00066667    F
gradient max                        0.00314891
gradient rms                        0.00075979
cart. step max                      0.01998510     0.01000000    F
cart. step rms                      0.00814898     0.00666667    F
 
 
--------
Geometry
--------
Formula: C13H20N2O
Atoms
  Index Symbol   x (angstrom)   y (angstrom)   z (angstrom)
      1      N     1.05845874     1.06463360     1.64115629
      2      C     0.02111101     1.91412828     1.24694713
      3      O    -0.11662659     3.05782809     1.67355696
      4      N    -0.83243363     1.31816758     0.33153141
      5      C     2.33655204     1.58272243     2.14076854
      6      H     1.17809935     0.23202304     1.07844561
      7      C    -2.17695490     1.78742525     0.03538580
      8      H    -0.66176691     0.34721134     0.11714167
      9      H     2.12836453     2.54682220     2.60792266
     10      H    -2.22666111     2.82549224     0.37028634
     11      H     2.69978531     0.89943976     2.91697319
     12      H     2.67847903     3.58084736     0.27843950
     13      H    -2.30571704     1.78296896    -1.05531948
     14      C     3.38347543     1.69209143     1.04325459
     15      C     4.32142758     0.66715840     0.86028027
     16      C     5.24501297     0.71444928    -0.18510885
     17      C     5.24597915     1.79557456    -1.06485195
     18      C     4.32197813     2.82720022    -0.88866710
     19      C     3.39976210     2.77678625     0.15541904
     20      H     4.33143871    -0.18166320     1.54285621
     21      H     5.96336822    -0.09328849    -0.31057282
     22      H     5.96382333     1.83632793    -1.88112704
     23      H     4.31962404     3.67586652    -1.56938822
     24      C    -3.34419979     0.95414751     0.65221462
     25      C    -4.65718810     1.67215542     0.28238232
     26      H    -5.52275187     1.11472038     0.65532831
     27      H    -4.69605973     2.67746660     0.71453428
     28      H    -4.76945111     1.76915427    -0.80348238
     29      C    -3.36494710    -0.46525033     0.04316552
     30      H    -3.46083523    -0.43327674    -1.04824148
     31      H    -4.21035096    -1.04297680     0.43156844
     32      H    -2.46001313    -1.03467165     0.28467526
     33      C    -3.21813118     0.85742326     2.18421364
     34      H    -3.14439180     1.84748763     2.64355466
     35      H    -4.09207231     0.35121063     2.60808624
     36      H    -2.33316332     0.28758225     2.48218224
 
Total System Charge             0.00000
Bonding info available!
 
 *** GOStep15 ***

 Energy gradients wrt nuclear displacements
 ==========================================

     Atom      Cartesian (a.u./angstrom)
                 X         Y         Z
 ----------------------------------------
     1 N    -0.001190  0.000347 -0.002014
     2 C    -0.000635 -0.001277  0.001326
     3 O     0.000347  0.000158 -0.000409
     4 N     0.001796  0.001721 -0.000880
     5 C     0.000093  0.000661  0.002931
     6 H     0.001986  0.000183  0.000073
     7 C    -0.000769  0.001141 -0.000450
     8 H    -0.001655 -0.000473  0.000786
     9 H    -0.000455 -0.000703  0.001116
    10 H     0.000573  0.000495 -0.001334
    11 H     0.000870 -0.001238 -0.001511
    12 H    -0.000217 -0.000171 -0.000110
    13 H    -0.000168 -0.002612  0.000125
    14 C    -0.001204  0.000709 -0.001153
    15 C     0.000028 -0.000023 -0.000048
    16 C     0.000174  0.000132  0.000110
    17 C    -0.000037  0.000082 -0.000091
    18 C     0.000121  0.000129  0.000150
    19 C     0.000256  0.000335  0.000241
    20 H    -0.000205 -0.000180 -0.000277
    21 H    -0.000007  0.000050 -0.000107
    22 H     0.000043  0.000143  0.000023
    23 H    -0.000048  0.000058  0.000000
    24 C     0.000135  0.001115  0.001198
    25 C    -0.000200 -0.000309  0.000231
    26 H     0.000010  0.000049  0.000177
    27 H     0.000086  0.000031  0.000033
    28 H    -0.000007  0.000060  0.000059
    29 C     0.000029 -0.000253  0.000031
    30 H     0.000065  0.000063 -0.000030
    31 H    -0.000007  0.000019 -0.000023
    32 H     0.000155  0.000182 -0.000236
    33 C    -0.000176 -0.000405  0.000067
    34 H     0.000562 -0.000104 -0.000007
    35 H    -0.000171  0.000259  0.000008
    36 H    -0.000174 -0.000373 -0.000007
 ----------------------------------------
 Mulliken charges used for AMS results%charges...

 dE(predicted):    -0.11017E-03, dE(actual):     0.25854E-04, Trust radius:    0.020000, all in a.u.
 
----------------------------------------------------------------------
Geometry Convergence after Step  15       (Hartree/Angstrom,Angstrom)
----------------------------------------------------------------------
current energy                               -7.60767633 Hartree
energy change                       0.00002585     0.00036000    T
constrained gradient max            0.00294670     0.00100000    F
constrained gradient rms            0.00073776     0.00066667    F
gradient max                        0.00294670
gradient rms                        0.00073776
cart. step max                      0.01987908     0.01000000    F
cart. step rms                      0.00805711     0.00666667    F
 
 
--------
Geometry
--------
[...]
Bonding info available!
 
 *** GOStep66 ***

 Energy gradients wrt nuclear displacements
 ==========================================

     Atom      Cartesian (a.u./angstrom)
                 X         Y         Z
 ----------------------------------------
     1 N    -0.000362  0.000294  0.000393
     2 C    -0.000564 -0.001831  0.001306
     3 O     0.000110  0.000012 -0.000032
     4 N     0.001180  0.002757 -0.002637
     5 C     0.000025  0.000148 -0.000254
     6 H     0.000220 -0.000193  0.000290
     7 C    -0.000530 -0.000713  0.001582
     8 H    -0.000188 -0.000095  0.000047
     9 H     0.000014 -0.000174  0.000595
    10 H     0.000166  0.000712 -0.000722
    11 H     0.000178 -0.000591 -0.000312
    12 H    -0.000019  0.000002  0.000038
    13 H     0.000030 -0.001025 -0.000336
    14 C    -0.000052  0.000238 -0.000149
    15 C     0.000023  0.000001 -0.000045
    16 C     0.000008  0.000004 -0.000093
    17 C    -0.000041  0.000043 -0.000069
    18 C     0.000025  0.000062  0.000013
    19 C    -0.000068 -0.000039 -0.000024
    20 H     0.000003 -0.000079 -0.000098
    21 H    -0.000007 -0.000001 -0.000127
    22 H    -0.000039  0.000074 -0.000081
    23 H    -0.000025  0.000088  0.000018
    24 C    -0.000102  0.000223  0.000760
    25 C    -0.000003 -0.000028  0.000053
    26 H    -0.000004  0.000030  0.000019
    27 H     0.000007  0.000013  0.000086
    28 H    -0.000011  0.000061  0.000070
    29 C     0.000031  0.000139 -0.000093
    30 H    -0.000153  0.000062 -0.000015
    31 H     0.000053 -0.000004  0.000028
    32 H     0.000031  0.000131 -0.000130
    33 C     0.000034 -0.000112 -0.000029
    34 H     0.000192 -0.000040  0.000030
    35 H    -0.000102  0.000067  0.000024
    36 H    -0.000060 -0.000238 -0.000106
 ----------------------------------------
 Mulliken charges used for AMS results%charges...

 dE(predicted):    -0.34672E-04, dE(actual):     0.34882E-04, Trust radius:    0.020000, all in a.u.
 
----------------------------------------------------------------------
Geometry Convergence after Step  66       (Hartree/Angstrom,Angstrom)
----------------------------------------------------------------------
current energy                               -7.60517433 Hartree
energy change                       0.00003488     0.00036000    T
constrained gradient max            0.00275356     0.00100000    F
constrained gradient rms            0.00052024     0.00066667    T
gradient max                        0.00275356
gradient rms                        0.00052024
cart. step max                      0.01231333     0.01000000    F
cart. step rms                      0.00504574     0.00666667    T
 
 
--------
Geometry
--------
Formula: C13H20N2O
Atoms
  Index Symbol   x (angstrom)   y (angstrom)   z (angstrom)
      1      N     1.06979926     1.55238235     1.88359014
      2      C    -0.02614923     2.35359870     1.55216731
      3      O    -0.21274900     3.47198471     2.02575977
      4      N    -0.87783095     1.73782272     0.65230088
      5      C     2.40202969     2.10397595     2.14832845
      6      H     1.09761787     0.64193974     1.44504807
      7      C    -2.27353891     2.08007602     0.44448243
      8      H    -0.54861733     0.89900468     0.20183888
      9      H     2.27519623     3.17526764     2.31964360
     10      H    -2.50618733     2.88814923     1.14154325
     11      H     2.79615312     1.66620090     3.07352752
     12      H     2.69952254     3.46259875    -0.22810977
     13      H    -2.40588168     2.48380089    -0.57002190
     14      C     3.36311055     1.81998501     1.00501779
     15      C     4.22929373     0.72012374     1.06404707
     16      C     5.06308974     0.40094086    -0.00935930
     17      C     5.04706830     1.18432891    -1.16228945
     18      C     4.19545594     2.28863855    -1.23128460
     19      C     3.36120935     2.60197604    -0.15940392
     20      H     4.25391378     0.10278280     1.96084026
     21      H     5.72639293    -0.45902757     0.05677415
     22      H     5.69557608     0.93933745    -2.00056925
     23      H     4.18263633     2.90990426    -2.12447484
     24      C    -3.27302230     0.89619935     0.62193963
     25      C    -4.69089630     1.46658405     0.41903478
     26      H    -5.44286712     0.67410685     0.49374794
     27      H    -4.92744831     2.22337271     1.17429628
     28      H    -4.79826265     1.93180393    -0.56702803
     29      C    -3.01974381    -0.19139712    -0.44605513
     30      H    -3.08670283     0.21792903    -1.46028199
     31      H    -3.76090712    -0.99346862    -0.36410557
     32      H    -2.03705270    -0.66492449    -0.33877131
     33      C    -3.16028429     0.27661549     2.02758073
     34      H    -3.31829564     1.02701439     2.80887180
     35      H    -3.91071366    -0.50998965     2.16151975
     36      H    -2.17789040    -0.17425278     2.19536599
 
Total System Charge             0.00000
Bonding info available!
 
 *** GOStep67 ***

 Energy gradients wrt nuclear displacements
 ==========================================

     Atom      Cartesian (a.u./angstrom)
                 X         Y         Z
 ----------------------------------------
     1 N    -0.000334  0.000297  0.000372
     2 C    -0.000580 -0.001836  0.001333
     3 O     0.000106  0.000013 -0.000024
     4 N     0.001182  0.002739 -0.002676
     5 C     0.000031  0.000132 -0.000242
     6 H     0.000197 -0.000194  0.000292
     7 C    -0.000523 -0.000715  0.001589
     8 H    -0.000177 -0.000086  0.000044
     9 H     0.000016 -0.000164  0.000567
    10 H     0.000181  0.000695 -0.000691
    11 H     0.000169 -0.000568 -0.000297
    12 H    -0.000021  0.000001  0.000038
    13 H     0.000013 -0.000989 -0.000326
    14 C    -0.000052  0.000213 -0.000154
    15 C     0.000029  0.000002 -0.000050
    16 C     0.000004  0.000003 -0.000098
    17 C    -0.000035  0.000040 -0.000064
    18 C     0.000020  0.000064  0.000007
    19 C    -0.000066 -0.000032 -0.000027
    20 H     0.000004 -0.000084 -0.000104
    21 H    -0.000008  0.000001 -0.000130
    22 H    -0.000038  0.000076 -0.000084
    23 H    -0.000026  0.000088  0.000015
    24 C    -0.000097  0.000198  0.000731
    25 C    -0.000014 -0.000034  0.000052
    26 H    -0.000005  0.000032  0.000022
    27 H     0.000009  0.000013  0.000085
    28 H    -0.000010  0.000062  0.000074
    29 C     0.000037  0.000146 -0.000073
    30 H    -0.000153  0.000066 -0.000014
    31 H     0.000053 -0.000002  0.000029
    32 H     0.000029  0.000132 -0.000125
    33 C     0.000023 -0.000101 -0.000022
    34 H     0.000191 -0.000043  0.000031
    35 H    -0.000099  0.000066  0.000026
    36 H    -0.000056 -0.000232 -0.000107
 ----------------------------------------
 Mulliken charges used for AMS results%charges...

 dE(predicted):    -0.34101E-04, dE(actual):     0.34783E-04, Trust radius:    0.020000, all in a.u.
 
----------------------------------------------------------------------
Geometry Convergence after Step  67       (Hartree/Angstrom,Angstrom)
----------------------------------------------------------------------
current energy                               -7.60513955 Hartree
energy change                       0.00003478     0.00036000    T
constrained gradient max            0.00273638     0.00100000    F
constrained gradient rms            0.00051919     0.00066667    T
gradient max                        0.00273638
gradient rms                        0.00051919
cart. step max                      0.01212734     0.01000000    F
cart. step rms                      0.00492102     0.00666667    T
 
 
--------
Geometry
--------
Formula: C13H20N2O
Atoms
  Index Symbol   x (angstrom)   y (angstrom)   z (angstrom)
      1      N     1.07184686     1.55770616     1.88709669
      2      C    -0.02574282     2.35703892     1.55660574
      3      O    -0.21295196     3.47585109     2.02897584
      4      N    -0.87839577     1.73865683     0.65951360
      5      C     2.40414578     2.11117482     2.14765931
      6      H     1.09922248     0.64609156     1.45099223
      7      C    -2.27398594     2.08107553     0.45148203
      8      H    -0.54779209     0.90163634     0.20678721
      9      H     2.27708880     3.18326846     2.31379058
     10      H    -2.50817438     2.88497567     1.15288333
     11      H     2.79983839     1.67832823     3.07451378
     12      H     2.69755411     3.45915292    -0.23510975
     13      H    -2.40572038     2.49057785    -0.56082781
     14      C     3.36354542     1.82216923     1.00420463
     15      C     4.23011544     0.72281323     1.06669428
     16      C     5.06207931     0.39901035    -0.00676021
     17      C     5.04387445     1.17719004    -1.16320137
     18      C     4.19190809     2.28100678    -1.23566932
     19      C     3.35950819     2.59894973    -0.16372419
     20      H     4.25643484     0.10951854     1.96621006
     21      H     5.72567943    -0.46051493     0.06203278
     22      H     5.69096966     0.92854772    -2.00150160
     23      H     4.17740139     2.89827311    -2.13161249
     24      C    -3.27261990     0.89543652     0.62133213
     25      C    -4.69074960     1.46566717     0.41952786
     26      H    -5.44210697     0.67215796     0.48923850
     27      H    -4.92887653     2.21829842     1.17844369
     28      H    -4.79732982     1.93592132    -0.56421613
     29      C    -3.01694416    -0.18649320    -0.45185486
     30      H    -3.08237689     0.22808340    -1.46403656
     31      H    -3.75785736    -0.98933150    -0.37531023
     32      H    -2.03420444    -0.66009306    -0.34536836
     33      C    -3.16131847     0.26888386     2.02398831
     34      H    -3.32178619     1.01513874     2.80875683
     35      H    -3.91076063    -0.51951559     2.15278263
     36      H    -2.17849447    -0.18126675     2.19119225
 
Total System Charge             0.00000
Bonding info available!
 
 *** GOStep68 ***

 Energy gradients wrt nuclear displacements
 ==========================================

     Atom      Cartesian (a.u./angstrom)
                 X         Y         Z
 ----------------------------------------
     1 N    -0.000306  0.000294  0.000334
     2 C    -0.000593 -0.001826  0.001377
     3 O     0.000105  0.000016 -0.000018
     4 N     0.001195  0.002735 -0.002718
     5 C     0.000037  0.000113 -0.000227
     6 H     0.000173 -0.000198  0.000291
     7 C    -0.000521 -0.000726  0.001602
     8 H    -0.000165 -0.000079  0.000043
     9 H     0.000023 -0.000149  0.000539
    10 H     0.000196  0.000679 -0.000659
    11 H     0.000161 -0.000543 -0.000281
    12 H    -0.000022  0.000001  0.000036
    13 H     0.000000 -0.000958 -0.000316
    14 C    -0.000063  0.000186 -0.000159
    15 C     0.000034  0.000005 -0.000043
    16 C     0.000001 -0.000007 -0.000091
    17 C    -0.000030  0.000048 -0.000070
    18 C     0.000015  0.000067  0.000005
    19 C    -0.000065 -0.000031 -0.000027
    20 H     0.000002 -0.000085 -0.000109
    21 H    -0.000009  0.000002 -0.000134
    22 H    -0.000037  0.000077 -0.000087
    23 H    -0.000028  0.000092  0.000011
    24 C    -0.000108  0.000188  0.000700
    25 C    -0.000018 -0.000042  0.000044
    26 H    -0.000005  0.000030  0.000027
    27 H     0.000009  0.000016  0.000088
    28 H    -0.000013  0.000061  0.000079
    29 C     0.000046  0.000143 -0.000063
    30 H    -0.000152  0.000069 -0.000012
    31 H     0.000052 -0.000005  0.000026
    32 H     0.000025  0.000131 -0.000124
    33 C     0.000016 -0.000097 -0.000017
    34 H     0.000190 -0.000042  0.000030
    35 H    -0.000093  0.000064  0.000028
    36 H    -0.000052 -0.000227 -0.000106
 ----------------------------------------
 Mulliken charges used for AMS results%charges...

 dE(predicted):    -0.33303E-04, dE(actual):     0.33588E-04, Trust radius:    0.020000, all in a.u.
 
----------------------------------------------------------------------
Geometry Convergence after Step  68       (Hartree/Angstrom,Angstrom)
----------------------------------------------------------------------
current energy                               -7.60510596 Hartree
energy change                       0.00003359     0.00036000    T
constrained gradient max            0.00274680     0.00100000    F
constrained gradient rms            0.00051965     0.00066667    T
gradient max                        0.00274680
gradient rms                        0.00051965
cart. step max                      0.01183891     0.01000000    F
cart. step rms                      0.00473418     0.00666667    T
 
 
--------
Geometry
--------
Formula: C13H20N2O
Atoms
  Index Symbol   x (angstrom)   y (angstrom)   z (angstrom)
      1      N     1.07408634     1.56256679     1.89070047
      2      C    -0.02515804     2.35995505     1.56104633
      3      O    -0.21292591     3.47929842     2.03196208
      4      N    -0.87884431     1.73883101     0.66688730
      5      C     2.40638325     2.11808456     2.14702720
      6      H     1.10112011     0.64977644     1.45706751
      7      C    -2.27420865     2.08169680     0.45837096
      8      H    -0.54698375     0.90344207     0.21211930
      9      H     2.27892388     3.19091264     2.30805602
     10      H    -2.50985962     2.88166753     1.16381081
     11      H     2.80374013     1.69016714     3.07546737
     12      H     2.69536999     3.45570759    -0.24182422
     13      H    -2.40505932     2.49669745    -0.55185794
     14      C     3.36411324     1.82433551     1.00339560
     15      C     4.23126847     0.72563869     1.06914718
     16      C     5.06139841     0.39750354    -0.00442263
     17      C     5.04079924     1.17059893    -1.16424364
     18      C     4.18828582     2.27376742    -1.23998427
     19      C     3.35774168     2.59603521    -0.16791010
     20      H     4.25945328     0.11629338     1.97128716
     21      H     5.72545813    -0.46145915     0.06688072
     22      H     5.68647596     0.91853161    -2.00261713
     23      H     4.17193096     2.88713576    -2.13857443
     24      C    -3.27235984     0.89468413     0.62077195
     25      C    -4.69049820     1.46520680     0.41965628
     26      H    -5.44153510     0.67097830     0.48439656
     27      H    -4.93008196     2.21392652     1.18197562
     28      H    -4.79592760     1.94028762    -0.56187962
     29      C    -3.01443978    -0.18190761    -0.45725988
     30      H    -3.07802451     0.23767104    -1.46748710
     31      H    -3.75538082    -0.98521110    -0.38604824
     32      H    -2.03182435    -0.65587572    -0.35126836
     33      C    -3.16297325     0.26144155     2.02056555
     34      H    -3.32581212     1.00373988     2.80860826
     35      H    -3.91171743    -0.52844467     2.14419964
     36      H    -2.17991044    -0.18829563     2.18748909
 
Total System Charge             0.00000
Bonding info available!
 
 *** GOStep69 ***

 Energy gradients wrt nuclear displacements
 ==========================================

     Atom      Cartesian (a.u./angstrom)
                 X         Y         Z
 ----------------------------------------
     1 N    -0.000276  0.000274  0.000294
     2 C    -0.000599 -0.001816  0.001443
     3 O     0.000105  0.000021 -0.000015
     4 N     0.001201  0.002740 -0.002782
     5 C     0.000039  0.000104 -0.000220
     6 H     0.000149 -0.000199  0.000293
     7 C    -0.000520 -0.000757  0.001612
     8 H    -0.000152 -0.000073  0.000042
     9 H     0.000032 -0.000140  0.000511
    10 H     0.000204  0.000665 -0.000626
    11 H     0.000151 -0.000517 -0.000263
    12 H    -0.000023  0.000002  0.000035
    13 H    -0.000007 -0.000935 -0.000315
    14 C    -0.000075  0.000160 -0.000156
    15 C     0.000044  0.000009 -0.000042
    16 C    -0.000005 -0.000012 -0.000091
    17 C    -0.000026  0.000053 -0.000073
    18 C     0.000010  0.000068  0.000003
    19 C    -0.000061 -0.000034 -0.000026
    20 H    -0.000001 -0.000087 -0.000110
    21 H    -0.000009  0.000002 -0.000139
    22 H    -0.000037  0.000077 -0.000089
    23 H    -0.000028  0.000096  0.000012
    24 C    -0.000128  0.000187  0.000684
    25 C    -0.000014 -0.000045  0.000041
    26 H    -0.000004  0.000029  0.000030
    27 H     0.000008  0.000016  0.000093
    28 H    -0.000017  0.000064  0.000079
    29 C     0.000059  0.000142 -0.000064
    30 H    -0.000148  0.000071 -0.000009
    31 H     0.000049 -0.000004  0.000025
    32 H     0.000023  0.000128 -0.000125
    33 C     0.000008 -0.000095 -0.000011
    34 H     0.000188 -0.000040  0.000029
    35 H    -0.000091  0.000063  0.000032
    36 H    -0.000050 -0.000221 -0.000104
 ----------------------------------------
 Mulliken charges used for AMS results%charges...

 dE(predicted):    -0.32579E-04, dE(actual):     0.28655E-04, Trust radius:    0.020000, all in a.u.
 
----------------------------------------------------------------------
Geometry Convergence after Step  69       (Hartree/Angstrom,Angstrom)
----------------------------------------------------------------------
current energy                               -7.60507731 Hartree
energy change                       0.00002866     0.00036000    T
constrained gradient max            0.00281065     0.00100000    F
constrained gradient rms            0.00052275     0.00066667    T
gradient max                        0.00281065
gradient rms                        0.00052275
cart. step max                      0.01152160     0.01000000    F
cart. step rms                      0.00458433     0.00666667    T
 
 
--------
Geometry
--------
Formula: C13H20N2O
Atoms
  Index Symbol   x (angstrom)   y (angstrom)   z (angstrom)
      1      N     1.07637600     1.56712527     1.89422317
      2      C    -0.02451026     2.36254114     1.56530154
      3      O    -0.21280311     3.48247919     2.03461012
      4      N    -0.87930516     1.73858450     0.67424157
      5      C     2.40863112     2.12474689     2.14635941
      6      H     1.10314519     0.65317071     1.46305808
      7      C    -2.27437014     2.08212262     0.46511527
      8      H    -0.54632322     0.90469845     0.21758245
      9      H     2.28064758     3.19824760     2.30239815
     10      H    -2.51138660     2.87833016     1.17439014
     11      H     2.80765703     1.70168874     3.07632158
     12      H     2.69313441     3.45226871    -0.24835378
     13      H    -2.40422740     2.50243194    -0.54308795
     14      C     3.36478149     1.82647933     1.00258548
     15      C     4.23264262     0.72853972     1.07150404
     16      C     5.06101879     0.39628260    -0.00216309
     17      C     5.03796040     1.16438953    -1.16525725
     18      C     4.18477519     2.26680504    -1.24418031
     19      C     3.35602392     2.59320639    -0.17198671
     20      H     4.26274237     0.12306345     1.97618327
     21      H     5.72563725    -0.46203987     0.07158370
     22      H     5.68226902     0.90905789    -2.00369708
     23      H     4.16652036     2.87633888    -2.14534419
     24      C    -3.27221881     0.89396292     0.62024905
     25      C    -4.69024462     1.46502424     0.41969639
     26      H    -5.44112681     0.67027298     0.47957297
     27      H    -4.93115279     2.20999793     1.18525754
     28      H    -4.79438596     1.94477035    -0.55969277
     29      C    -3.01225814    -0.17751443    -0.46239752
     30      H    -3.07392507     0.24687729    -1.47072445
     31      H    -3.75336761    -0.98110459    -0.39636770
     32      H    -2.02985161    -0.65200578    -0.35680441
     33      C    -3.16485742     0.25420266     2.01722198
     34      H    -3.32992923     0.99262989     2.80844562
     35      H    -3.91304937    -0.53698801     2.13575112
     36      H    -2.18164555    -0.19529883     2.18391598
 
Total System Charge             0.00000
Bonding info available!
 
 *** GOStep70 ***
