

 Parallel Execution: Process Information
 ==============================================================================
 Rank   Node Name                              NodeID   MyNodeRank  NodeMaster
    0   DESKTOP-1M8FOJT                           0          0          0
    1   DESKTOP-1M8FOJT                           0          1         -1
    2   DESKTOP-1M8FOJT                           0          2         -1
    3   DESKTOP-1M8FOJT                           0          3         -1
 ==============================================================================


May use up to 4096MB of RAM as shared memory on node 0

 *******************************************************************************
 *                                                                             *
 *  --------------------------------                                           *
 *   Amsterdam Modeling Suite (AMS)              2021.106                      *
 *  --------------------------------                                           *
 *                                               r99350 2021-12-03             *
 *                                                                             *
 *                                                                             *
 *                              =================                              *
 *                              |               |                              *
 *                              |     A M S     |                              *
 *                              |               |                              *
 *                              =================                              *
 *                                                                             *
 *                                                                             *
 *   Online information and documentation:  https://www.scm.com/support/       *
 *   E-mail:  support@scm.com   info@scm.com                                   *
 *                                                                             *
 *   Scientific publications using AMS results must be properly referenced     *
 *   See the User Manuals (or the web site) for recommended citations          *
 *   The terms and conditions of the End User License Agreement apply to       *
 *   the use of AMS, https://www.scm.com/license-terms/                        *
 *                                                                             *
 *********************  x86_64_windows_amdZen / intelmpi  **********************
 
 Licensed to: Mr. Yuman Hordijk / SCM / Amsterdam / Netherlands 2021-10-04 09:39:26
 SCM User ID: u24430
  
 AMS 2021.106  RunTime: Jan24-2022 15:56:16  ShM Nodes: 1  Procs: 4

 AMS jobname: ams
 AMS jobid  : 1978491652

 Start   directory: D:/Users/Yuman/Desktop/MasterProject/manual_calculations/urea/tmp..20016.0.noindex/
 Results directory: D:/Users/Yuman/Desktop/MasterProject/manual_calculations/urea/phenyl_tbutyl_cat.results/
 Scratch directory: Z:/SCMTMP/amstmp_ams_kid0.1978491652/


 Communication costs MPI_COMM_WORLD:      1.440 usec per message,   0.0041 usec per 8-byte item
 Communication costs for intra-node:      1.334 usec per message,   0.0036 usec per 8-byte item

 RNG seed: -190026123 2141991243 924761699 617008413 889650043 -699795843 -1813396674 190294287



                      ************************************************************************
                      *  ADF 2021.106  RunTime: Jan24-2022 15:56:16  ShM Nodes: 1  Procs: 4  *
                      ************************************************************************
  
       ***************************
       *  GEOMETRY OPTIMIZATION  *
       ***************************

Optimization Method                    Quasi Newton
Optimization Coordinates               Delocalized Coordinates
Optimize lattice                       F
 
 ------------------------------------------------------
 Convergence criteria (Hartree,Angstrom)
 ------------------------------------------------------
 Maximum gradient               0.001000000000
 Maximum rms gradient           0.000666666667
 Maximum step allowed           0.010000000000
 Maximum rms step allowed       0.006666666667
 Maximum energy change allowe   0.000360000000
 Maximum stress energy allowe   0.000500000000
 
Initial model Hessian                  Automatic Hessian
 
------------------------------------
Quasi-Newton Optimizer Parameters
------------------------------------
Hessian Update Method                  BFGS
Maximum number of steps                  250
First GDIIS cycle                          0
Maximum GDIIS vectors                      0
Trust radius (bohr)                        0.200000
Trust radius varies                        T
Constraints converged at all steps         T
Use projector                              T
 
 Rigid motions settings for: old optimizer
 Atomic rotations (x,y,z):     T T T
 Atomic translations (x,y,z):  T T T
 Tolerance:                   1.000000000000000E-006
 
--------
Geometry
--------
Formula: C13H20N2S
Atoms
  Index Symbol   x (angstrom)   y (angstrom)   z (angstrom)
      1      N     1.03487785     0.69442751     1.49333523
      2      C     0.04930508     1.54886060     1.05164665
      3      S    -0.10427503     3.11262831     1.53911771
      4      N    -0.79352616     0.93431104     0.16794219
      5      C     2.22983451     1.24697986     2.12682318
      6      H     1.22369464    -0.09829457     0.89358880
      7      C    -2.05698718     1.54172840    -0.20927522
      8      H    -0.74617816    -0.07184648     0.10539924
      9      H     1.91692375     2.14770824     2.66705938
     10      H    -1.94168759     2.62273013    -0.06262520
     11      H     2.61538225     0.50821175     2.83639484
     12      H     2.35294378     3.44730752     0.54992993
     13      H    -2.23644019     1.34199993    -1.27187946
     14      C     3.26359121     1.57731181     1.07515287
     15      C     4.29769873     0.68730705     0.79726778
     16      C     5.22451598     0.97641627    -0.19513586
     17      C     5.12158563     2.15466474    -0.92149715
     18      C     4.08890658     3.04345973    -0.65235555
     19      C     3.16393099     2.75724165     0.34033724
     20      H     4.38344006    -0.23535162     1.36249092
     21      H     6.02882309     0.27867419    -0.40161554
     22      H     5.84558652     2.37982319    -1.69666132
     23      H     4.00473536     3.96457635    -1.21843857
     24      C    -3.24832644     1.02330802     0.62694470
     25      C    -4.49046304     1.83036871     0.22043378
     26      H    -5.36507622     1.48078406     0.76979180
     27      H    -4.34412761     2.88837053     0.43983957
     28      H    -4.68534849     1.72053169    -0.84724339
     29      C    -3.49276155    -0.46521657     0.33528565
     30      H    -3.68144580    -0.62123090    -0.72778293
     31      H    -4.35690841    -0.82184794     0.89665816
     32      H    -2.62708518    -1.06232265     0.62575070
     33      C    -2.97759093     1.21893557     2.12455717
     34      H    -2.72499124     2.25954527     2.33034092
     35      H    -3.85925293     0.94636823     2.70564344
     36      H    -2.14436937     0.59401741     2.44649120
 
Total System Charge             0.00000
Bonding info available!
 
 
----------------
ADF Engine Input
----------------
 
 Basis
 Type TZ2P
 Core None
 End
 XC
 GGA OLYP
 End
 

 Title: *** (NO TITLE) ***

 Using automatic Hessian for delocalized coordinates.
 *** GOStep1 ***

 Energy gradients wrt nuclear displacements
 ==========================================

     Atom      Cartesian (a.u./angstrom)
                 X         Y         Z
 ----------------------------------------
     1 N     0.002446 -0.013422 -0.015919
     2 C    -0.004387  0.039501  0.013132
     3 S     0.004360 -0.035481 -0.011256
     4 N     0.005134 -0.022249  0.006128
     5 C    -0.009132  0.003180  0.003078
     6 H    -0.000022  0.002164  0.000844
     7 C     0.004545  0.004517  0.000572
     8 H    -0.002051  0.000963  0.001306
     9 H    -0.001760  0.008025  0.000488
    10 H    -0.000345  0.008118  0.004176
    11 H    -0.000547 -0.000299 -0.001334
    12 H    -0.003401  0.000507  0.000478
    13 H     0.000003 -0.000875  0.001844
    14 C    -0.000448  0.002521 -0.015209
    15 C    -0.002541  0.002309 -0.001097
    16 C    -0.006448  0.006566  0.002785
    17 C    -0.006371 -0.000848  0.006549
    18 C     0.000074 -0.003728  0.003782
    19 C     0.001302 -0.011401  0.001493
    20 H    -0.001192  0.003675 -0.002944
    21 H    -0.003754  0.002862  0.000951
    22 H    -0.003523 -0.000727  0.003228
    23 H     0.000241 -0.004169  0.002239
    24 C     0.011033 -0.000590  0.000106
    25 C    -0.006912  0.003234  0.000197
    26 H     0.005627 -0.000235 -0.000776
    27 H     0.002601 -0.005677  0.000093
    28 H     0.004683 -0.001644  0.005661
    29 C    -0.001176 -0.008077  0.000802
    30 H     0.002170  0.004803  0.005144
    31 H     0.002451  0.005571 -0.001808
    32 H    -0.000033  0.008481 -0.001891
    33 C     0.002768 -0.002212  0.002995
    34 H     0.001353  0.001545 -0.005002
    35 H     0.003407  0.002799 -0.003945
    36 H    -0.000155  0.000293 -0.006889
 ----------------------------------------
 Mulliken charges used for AMS results%charges...
 Residual max backtransformation error   0.1412E-04
 
----------------------------------------------------------------------
Geometry Convergence after Step   1       (Hartree/Angstrom,Angstrom)
----------------------------------------------------------------------
current energy                               -7.46789662 Hartree
energy change                      -7.46789662     0.00036000    F
constrained gradient max            0.03951657     0.00100000    F
constrained gradient rms            0.00735501     0.00066667    F
gradient max                        0.03951657
gradient rms                        0.00735501
cart. step max                      0.21410824     0.01000000    F
cart. step rms                      0.06663355     0.00666667    F
 
 
--------
Geometry
--------
Formula: C13H20N2S
Atoms
  Index Symbol   x (angstrom)   y (angstrom)   z (angstrom)
      1      N     1.04647758     0.79130075     1.48455061
      2      C     0.03648690     1.64422456     1.07911862
      3      S    -0.12686421     3.20786209     1.59020728
      4      N    -0.82192046     1.02098139     0.20798623
      5      C     2.28269743     1.28930956     2.09657462
      6      H     1.20913168     0.00451802     0.86871159
      7      C    -2.12011376     1.56670597    -0.16206118
      8      H    -0.74086907     0.01745942     0.13470128
      9      H     2.01344998     2.18513366     2.66439301
     10      H    -2.04934412     2.64916026    -0.01227880
     11      H     2.64986792     0.51808471     2.78122816
     12      H     2.53235174     3.52933782     0.55000405
     13      H    -2.28159706     1.36255038    -1.22707633
     14      C     3.33318606     1.59970540     1.04896790
     15      C     4.32444280     0.66180077     0.75518548
     16      C     5.27267201     0.91716601    -0.22998885
     17      C     5.23727473     2.11338244    -0.93659175
     18      C     4.25045937     3.05223550    -0.65321323
     19      C     3.30401147     2.79887653     0.33239571
     20      H     4.35953367    -0.27523796     1.30396291
     21      H     6.04001137     0.17994330    -0.44543373
     22      H     5.97691314     2.31356754    -1.70533634
     23      H     4.21884360     3.98793269    -1.20256148
     24      C    -3.31739518     0.99890415     0.64449814
     25      C    -4.57420787     1.76902336     0.20553692
     26      H    -5.45512553     1.38650712     0.72419920
     27      H    -4.47273761     2.83082031     0.43738228
     28      H    -4.73586975     1.66443601    -0.86960497
     29      C    -3.50158413    -0.49711448     0.33399370
     30      H    -3.65368046    -0.65393695    -0.73620838
     31      H    -4.36982116    -0.89037252     0.86586855
     32      H    -2.62722636    -1.07255470     0.64577719
     33      C    -3.10648432     1.18637817     2.15525828
     34      H    -2.89924643     2.23148869     2.38630364
     35      H    -3.99962322     0.87513097     2.70065010
     36      H    -2.26516626     0.58777607     2.50661246
 
Total System Charge             0.00000
Bonding info available!
 
 *** GOStep2 ***

 Energy gradients wrt nuclear displacements
 ==========================================

     Atom      Cartesian (a.u./angstrom)
                 X         Y         Z
 ----------------------------------------
     1 N    -0.001012 -0.011202 -0.008463
     2 C    -0.003878  0.030435  0.009636
     3 S     0.001739 -0.021392 -0.007124
     4 N     0.007610 -0.014561  0.000052
     5 C    -0.001354 -0.002119  0.005551
     6 H     0.001095  0.002705  0.000352
     7 C    -0.000482  0.000116 -0.002551
     8 H    -0.002504  0.001530  0.001475
     9 H    -0.001392  0.004898 -0.000176
    10 H     0.000454  0.004636  0.003458
    11 H     0.000417 -0.001101 -0.002062
    12 H    -0.000752 -0.000687  0.000202
    13 H    -0.000469 -0.002291  0.001663
    14 C     0.000437  0.004112 -0.008844
    15 C    -0.001679  0.000787 -0.000471
    16 C    -0.003707  0.004898  0.001353
    17 C    -0.003785 -0.000582  0.004049
    18 C     0.000506 -0.002574  0.001901
    19 C     0.000730 -0.005899 -0.000053
    20 H    -0.000830  0.002723 -0.002129
    21 H    -0.002451  0.002168  0.000558
    22 H    -0.002334 -0.000456  0.002207
    23 H     0.000109 -0.002954  0.001382
    24 C     0.005321  0.002173 -0.001240
    25 C    -0.006567  0.002553  0.000806
    26 H     0.004109  0.000009 -0.000335
    27 H     0.002256 -0.004135  0.000181
    28 H     0.003746 -0.001313  0.004230
    29 C    -0.000596 -0.007364  0.001244
    30 H     0.001645  0.003868  0.003838
    31 H     0.001703  0.004468 -0.001145
    32 H    -0.000306  0.006371 -0.001602
    33 C     0.000379 -0.002058  0.004095
    34 H     0.000638 -0.000183 -0.004056
    35 H     0.002242  0.001998 -0.002960
    36 H    -0.001038  0.000425 -0.005023
 ----------------------------------------
 Mulliken charges used for AMS results%charges...

 dE(predicted):    -0.11898E-01, dE(actual):    -0.63979E-02, Trust radius:    0.200000, all in a.u.
 
----------------------------------------------------------------------
Geometry Convergence after Step   2       (Hartree/Angstrom,Angstrom)
----------------------------------------------------------------------
current energy                               -7.47429456 Hartree
energy change                      -0.00639794     0.00036000    F
constrained gradient max            0.03045217     0.00100000    F
constrained gradient rms            0.00509867     0.00066667    F
gradient max                        0.03045217
gradient rms                        0.00509867
cart. step max                      0.18942313     0.01000000    F
cart. step rms                      0.08045041     0.00666667    F
 
 
--------
Geometry
--------
Formula: C13H20N2S
Atoms
  Index Symbol   x (angstrom)   y (angstrom)   z (angstrom)
      1      N     1.06121557     0.90820865     1.52131317
      2      C     0.02672240     1.74648734     1.14231762
      3      S    -0.12594651     3.31700738     1.67066866
      4      N    -0.85170405     1.13689619     0.27707942
      5      C     2.33052962     1.39399273     2.08116528
      6      H     1.19344139     0.10282021     0.91999826
      7      C    -2.17504438     1.63973715    -0.07307841
      8      H    -0.73370641     0.14042095     0.15462740
      9      H     2.09786059     2.30914150     2.62985546
     10      H    -2.15600882     2.71288078     0.13065510
     11      H     2.68446260     0.63565711     2.78708205
     12      H     2.66500644     3.57898489     0.45079359
     13      H    -2.30822007     1.49169042    -1.15184023
     14      C     3.39370767     1.63534593     1.02310728
     15      C     4.36090645     0.65579440     0.76395047
     16      C     5.32121887     0.84132435    -0.23050408
     17      C     5.32636550     2.01477324    -0.98204814
     18      C     4.36930165     2.99858765    -0.73090868
     19      C     3.41058690     2.81285980     0.26301484
     20      H     4.36830951    -0.26182653     1.34941836
     21      H     6.06581184     0.07055138    -0.41577841
     22      H     6.07436602     2.16354110    -1.75694381
     23      H     4.37065973     3.91793912    -1.31160296
     24      C    -3.37456654     0.97118664     0.66150640
     25      C    -4.64384585     1.72225274     0.21418608
     26      H    -5.53309344     1.27871619     0.67073429
     27      H    -4.60072684     2.77414770     0.51105840
     28      H    -4.76896908     1.68214297    -0.87289311
     29      C    -3.49352406    -0.51158425     0.24951296
     30      H    -3.60563562    -0.61491279    -0.83489627
     31      H    -4.36492519    -0.97388618     0.72174774
     32      H    -2.61594184    -1.08947064     0.55663108
     33      C    -3.22569301     1.07153584     2.19224361
     34      H    -3.07598603     2.10530747     2.50846242
     35      H    -4.12431577     0.68570784     2.68276946
     36      H    -2.37368478     0.48852779     2.55030757
 
Total System Charge             0.00000
Bonding info available!
 
 *** GOStep3 ***

 Energy gradients wrt nuclear displacements
 ==========================================

     Atom      Cartesian (a.u./angstrom)
                 X         Y         Z
 ----------------------------------------
     1 N     0.000031 -0.005949  0.002280
     2 C    -0.002944  0.011329  0.007830
     3 S     0.003217 -0.009287 -0.003693
     4 N     0.002265 -0.003062 -0.007233
     5 C    -0.000243 -0.000461  0.002655
     6 H     0.001660  0.001836 -0.001030
     7 C    -0.002305  0.000391 -0.002060
     8 H    -0.002078  0.000218  0.001781
     9 H    -0.000851  0.001415 -0.000166
    10 H     0.000604  0.001454  0.001060
    11 H     0.000293 -0.000873 -0.002265
    12 H    -0.000578 -0.000357  0.000279
    13 H    -0.000271 -0.002620  0.001131
    14 C     0.000501  0.003213 -0.001770
    15 C    -0.000233 -0.000803 -0.000032
    16 C    -0.000377  0.000658 -0.000003
    17 C    -0.000465 -0.000075  0.000544
    18 C     0.000005 -0.000063  0.000221
    19 C    -0.000603 -0.000510  0.000457
    20 H    -0.000224  0.000672 -0.000748
    21 H    -0.000433  0.000503 -0.000056
    22 H    -0.000486 -0.000090  0.000551
    23 H    -0.000062 -0.000696  0.000372
    24 C     0.000671  0.002211  0.000069
    25 C    -0.002826  0.000867 -0.000302
    26 H     0.001598  0.000056  0.000058
    27 H     0.000994 -0.001277 -0.000037
    28 H     0.001019 -0.000286  0.001034
    29 C    -0.000545 -0.003935  0.000325
    30 H     0.000504  0.001102  0.001017
    31 H     0.000593  0.001679 -0.000459
    32 H    -0.000162  0.002480 -0.000685
    33 C     0.000815 -0.000192  0.002856
    34 H     0.000797 -0.000751 -0.001341
    35 H     0.000467  0.000845 -0.001192
    36 H    -0.000349  0.000360 -0.001453
 ----------------------------------------
 Mulliken charges used for AMS results%charges...

 dE(predicted):    -0.31241E-02, dE(actual):    -0.33205E-02, Trust radius:    0.400000, all in a.u.
 
----------------------------------------------------------------------
Geometry Convergence after Step   3       (Hartree/Angstrom,Angstrom)
----------------------------------------------------------------------
current energy                               -7.47761503 Hartree
energy change                      -0.00332047     0.00036000    F
constrained gradient max            0.01134589     0.00100000    F
constrained gradient rms            0.00226550     0.00066667    F
gradient max                        0.01134589
gradient rms                        0.00226550
cart. step max                      0.21435286     0.01000000    F
cart. step rms                      0.08266480     0.00666667    F
 
 
--------
Geometry
--------
Formula: C13H20N2S
Atoms
  Index Symbol   x (angstrom)   y (angstrom)   z (angstrom)
      1      N     1.03902555     1.03842899     1.51497514
      2      C     0.00435029     1.87559022     1.13984886
      3      S    -0.18464847     3.42870101     1.71793813
      4      N    -0.87631643     1.26878271     0.27876090
      5      C     2.31748756     1.51133362     2.06408277
      6      H     1.15189328     0.21396518     0.93513958
      7      C    -2.22489347     1.73333257    -0.02117814
      8      H    -0.71647397     0.28661860     0.09760849
      9      H     2.10973285     2.45552096     2.57097693
     10      H    -2.25619854     2.78829005     0.25848105
     11      H     2.64104286     0.77672531     2.80905349
     12      H     2.74028444     3.60108747     0.32891326
     13      H    -2.36394737     1.66152077    -1.10727429
     14      C     3.39915769     1.66556403     1.00862615
     15      C     4.34051100     0.64615461     0.81343154
     16      C     5.31947872     0.75183564    -0.17509603
     17      C     5.36997941     1.88514137    -0.98547636
     18      C     4.44011323     2.90906705    -0.79751504
     19      C     3.46282830     2.80252534     0.19043792
     20      H     4.31386542    -0.23989810     1.44607908
     21      H     6.04305289    -0.04940641    -0.30955909
     22      H     6.13227037     1.97223256    -1.75637131
     23      H     4.47773023     3.79843903    -1.42278007
     24      C    -3.38099650     0.94979003     0.67029161
     25      C    -4.69152151     1.66603482     0.28722625
     26      H    -5.55419621     1.14456586     0.71302811
     27      H    -4.70268003     2.69440992     0.66181682
     28      H    -4.82742662     1.70213960    -0.79936865
     29      C    -3.43015953    -0.50278088     0.14822912
     30      H    -3.54928433    -0.53323866    -0.94065673
     31      H    -4.27254153    -1.04443317     0.58949575
     32      H    -2.52378031    -1.06213561     0.40520856
     33      C    -3.22223457     0.94373178     2.20394149
     34      H    -3.12823324     1.95728873     2.59979958
     35      H    -4.09258717     0.47135498     2.67059931
     36      H    -2.33574983     0.38420704     2.51499870
 
Total System Charge             0.00000
Bonding info available!
 
 *** GOStep4 ***

 Energy gradients wrt nuclear displacements
 ==========================================

     Atom      Cartesian (a.u./angstrom)
                 X         Y         Z
 ----------------------------------------
     1 N    -0.002705 -0.006320  0.004783
     2 C     0.002994  0.009968 -0.001731
     3 S    -0.000647 -0.006092 -0.001056
     4 N     0.000980 -0.001608 -0.004325
     5 C     0.000059  0.001553  0.001959
     6 H     0.001003  0.000764 -0.001340
     7 C    -0.001850  0.001983  0.000166
     8 H    -0.001284 -0.001262  0.001881
     9 H    -0.000066  0.000375  0.000188
    10 H     0.000052  0.000918 -0.000097
    11 H     0.000063 -0.001128 -0.002287
    12 H     0.000032 -0.000557  0.000067
    13 H     0.000483 -0.002526  0.000718
    14 C    -0.000087  0.001940 -0.000820
    15 C    -0.000306 -0.000621  0.000021
    16 C     0.000082 -0.000461  0.000352
    17 C    -0.000133  0.000461 -0.000097
    18 C     0.000068 -0.000211 -0.000007
    19 C    -0.000439  0.001155  0.000083
    20 H    -0.000128  0.000044 -0.000314
    21 H    -0.000117  0.000114 -0.000056
    22 H    -0.000141 -0.000027  0.000138
    23 H    -0.000125 -0.000154  0.000168
    24 C     0.000379  0.001280  0.000507
    25 C    -0.001186  0.000086  0.000001
    26 H     0.000750  0.000069  0.000084
    27 H     0.000455 -0.000372 -0.000066
    28 H     0.000200  0.000010  0.000249
    29 C     0.000003 -0.001784  0.000293
    30 H     0.000120  0.000418  0.000180
    31 H     0.000219  0.000817 -0.000262
    32 H     0.000175  0.001235 -0.000295
    33 C     0.000414 -0.000077  0.002610
    34 H     0.000777 -0.000544 -0.000466
    35 H     0.000038  0.000570 -0.000648
    36 H    -0.000133 -0.000015 -0.000579
 ----------------------------------------
 Mulliken charges used for AMS results%charges...

 dE(predicted):    -0.22323E-02, dE(actual):    -0.66235E-03, Trust radius:    0.400000, all in a.u.
 
----------------------------------------------------------------------
Geometry Convergence after Step   4       (Hartree/Angstrom,Angstrom)
----------------------------------------------------------------------
current energy                               -7.47827738 Hartree
energy change                      -0.00066235     0.00036000    F
constrained gradient max            0.00997121     0.00100000    F
constrained gradient rms            0.00168881     0.00066667    F
gradient max                        0.00997121
gradient rms                        0.00168881
cart. step max                      0.21412780     0.01000000    F
cart. step rms                      0.09207808     0.00666667    F
 
 
--------
Geometry
--------
Formula: C13H20N2S
Atoms
  Index Symbol   x (angstrom)   y (angstrom)   z (angstrom)
      1      N     1.04909170     1.15511979     1.61112793
      2      C    -0.00667070     1.97604389     1.26878787
      3      S    -0.20178820     3.52932082     1.85775401
      4      N    -0.86811722     1.38417175     0.38279768
      5      C     2.34809073     1.63462285     2.10050055
      6      H     1.13430199     0.30815423     1.05930041
      7      C    -2.22389342     1.82200501     0.07981626
      8      H    -0.66380837     0.42571185     0.13210763
      9      H     2.17042492     2.61097064     2.55430264
     10      H    -2.30767795     2.84666666     0.44556651
     11      H     2.67902369     0.94464592     2.88472209
     12      H     2.74795841     3.58866000     0.20949010
     13      H    -2.32896989     1.84504126    -1.01270092
     14      C     3.40184062     1.69623272     1.00849048
     15      C     4.32461990     0.65237886     0.85938768
     16      C     5.27315303     0.67176964    -0.16387583
     17      C     5.31204298     1.74220203    -1.05640665
     18      C     4.40209626     2.79124042    -0.91412016
     19      C     3.45516085     2.77016753     0.10837679
     20      H     4.30776864    -0.18511676     1.55594853
     21      H     5.98190489    -0.14813736    -0.26154538
     22      H     6.04997004     1.76172761    -1.85555067
     23      H     4.43097975     3.63282258    -1.60328915
     24      C    -3.36714791     0.93439313     0.65989296
     25      C    -4.69433476     1.62612950     0.28766829
     26      H    -5.54900114     1.03615711     0.63472514
     27      H    -4.76680132     2.61870824     0.74465184
     28      H    -4.79599856     1.74829203    -0.79685409
     29      C    -3.33761941    -0.47111459     0.01934028
     30      H    -3.41905902    -0.41859210    -1.07265873
     31      H    -4.17126783    -1.08128878     0.38286600
     32      H    -2.42023814    -1.01984972     0.26343039
     33      C    -3.26153179     0.80860282     2.19273101
     34      H    -3.23476149     1.78916085     2.67516895
     35      H    -4.12166511     0.25722718     2.58759804
     36      H    -2.35914172     0.26823944     2.49416439
 
Total System Charge             0.00000
Bonding info available!
 
 *** GOStep5 ***

 Energy gradients wrt nuclear displacements
 ==========================================

     Atom      Cartesian (a.u./angstrom)
                 X         Y         Z
 ----------------------------------------
     1 N    -0.001776 -0.002918  0.002715
     2 C    -0.003757 -0.000023  0.005203
     3 S     0.000341 -0.000356 -0.002319
     4 N     0.004329  0.002098 -0.004952
     5 C     0.000262  0.003057 -0.000587
     6 H     0.000944 -0.000389 -0.001673
     7 C    -0.001189  0.002763  0.000925
     8 H    -0.000487 -0.001540  0.001439
     9 H     0.000183 -0.000548  0.000525
    10 H    -0.000341  0.000397 -0.001061
    11 H    -0.000095 -0.001314 -0.001723
    12 H    -0.000478 -0.000139  0.000187
    13 H     0.000611 -0.001822  0.000336
    14 C    -0.000158  0.001308 -0.000036
    15 C    -0.000173 -0.000259 -0.000627
    16 C     0.000197 -0.000430  0.000779
    17 C    -0.000161  0.000336 -0.000491
    18 C     0.000159 -0.000125  0.000362
    19 C    -0.000169  0.000629  0.000069
    20 H     0.000012 -0.000393  0.000126
    21 H     0.000067 -0.000109 -0.000073
    22 H     0.000085  0.000013 -0.000162
    23 H    -0.000098  0.000212 -0.000115
    24 C     0.000607  0.000924  0.001058
    25 C     0.000665 -0.000441 -0.000026
    26 H    -0.000073 -0.000035  0.000086
    27 H    -0.000044  0.000373  0.000124
    28 H    -0.000271  0.000176 -0.000197
    29 C     0.000315 -0.000640 -0.000228
    30 H    -0.000099 -0.000166 -0.000384
    31 H    -0.000043 -0.000232 -0.000076
    32 H     0.000383  0.000047 -0.000094
    33 C    -0.000181 -0.000098  0.000698
    34 H     0.000684 -0.000066  0.000124
    35 H    -0.000319  0.000090 -0.000046
    36 H     0.000066 -0.000379  0.000111
 ----------------------------------------
 Mulliken charges used for AMS results%charges...

 dE(predicted):    -0.19007E-02, dE(actual):    -0.49587E-03, Trust radius:    0.400000, all in a.u.
 
----------------------------------------------------------------------
Geometry Convergence after Step   5       (Hartree/Angstrom,Angstrom)
----------------------------------------------------------------------
current energy                               -7.47877326 Hartree
energy change                      -0.00049587     0.00036000    F
constrained gradient max            0.00519580     0.00100000    F
constrained gradient rms            0.00122604     0.00066667    F
gradient max                        0.00519580
gradient rms                        0.00122604
cart. step max                      0.21413089     0.01000000    F
cart. step rms                      0.08566375     0.00666667    F
 
 
--------
Geometry
--------
Formula: C13H20N2S
Atoms
  Index Symbol   x (angstrom)   y (angstrom)   z (angstrom)
      1      N     1.06058213     1.26165818     1.63044010
      2      C    -0.01380748     2.06584041     1.31645515
      3      S    -0.22880830     3.59540714     1.96634391
      4      N    -0.88842363     1.48374717     0.43859017
      5      C     2.36424809     1.75136168     2.09271962
      6      H     1.13053040     0.39467574     1.10956200
      7      C    -2.25904319     1.89685290     0.17373958
      8      H    -0.64488625     0.56234218     0.10119287
      9      H     2.19635988     2.75841600     2.47817079
     10      H    -2.37899219     2.87663477     0.63813039
     11      H     2.68869037     1.11920661     2.92763312
     12      H     2.75961276     3.55113646     0.05716699
     13      H    -2.36829223     2.03082811    -0.91093647
     14      C     3.41529963     1.72418151     0.99725318
     15      C     4.33886290     0.67343947     0.92553880
     16      C     5.28011331     0.61250801    -0.10292676
     17      C     5.31420339     1.60997239    -1.07592400
     18      C     4.40430050     2.66638632    -1.01106810
     19      C     3.46395301     2.72428543     0.01576367
     20      H     4.32822112    -0.10590227     1.68665589
     21      H     5.98976292    -0.21163993    -0.13942090
     22      H     6.04813781     1.56779206    -1.87791022
     23      H     4.42952252     3.45242203    -1.76317737
     24      C    -3.37294096     0.91879052     0.65875622
     25      C    -4.72346403     1.58970982     0.33428466
     26      H    -5.55810898     0.94020518     0.61940573
     27      H    -4.83913507     2.53575374     0.87385967
     28      H    -4.82228937     1.80094934    -0.73682185
     29      C    -3.29100339    -0.42462627    -0.09891595
     30      H    -3.36536292    -0.28277919    -1.18348571
     31      H    -4.10730149    -1.09057463     0.20192629
     32      H    -2.35993282    -0.96639904     0.10755775
     33      C    -3.27178777     0.66903456     2.17573972
     34      H    -3.30076088     1.60580919     2.73979191
     35      H    -4.10440684     0.04309629     2.51525658
     36      H    -2.34471848     0.15196513     2.44236544
 
Total System Charge             0.00000
Bonding info available!
 
 *** GOStep6 ***

 Energy gradients wrt nuclear displacements
 ==========================================

     Atom      Cartesian (a.u./angstrom)
                 X         Y         Z
 ----------------------------------------
     1 N    -0.001285 -0.000032  0.004783
     2 C     0.000148 -0.003788 -0.001547
     3 S     0.000058  0.000511  0.000457
     4 N     0.001728  0.005060 -0.003966
     5 C    -0.000014  0.002332 -0.001331
     6 H     0.001010 -0.000275 -0.000573
     7 C    -0.000224  0.000036  0.002479
     8 H    -0.000909 -0.000923  0.000942
     9 H    -0.000095 -0.001013  0.000619
    10 H     0.000023 -0.000008 -0.001360
    11 H     0.000293 -0.000649 -0.000547
    12 H    -0.000042  0.000034  0.000133
    13 H     0.000266 -0.001118  0.000171
    14 C    -0.000315  0.000531 -0.000297
    15 C     0.000124  0.000243 -0.000610
    16 C    -0.000355 -0.000279 -0.000072
    17 C    -0.000025  0.000510  0.000061
    18 C     0.000022 -0.000504  0.000142
    19 C     0.000074 -0.000098  0.000655
    20 H     0.000239 -0.000355  0.000381
    21 H     0.000133 -0.000092  0.000032
    22 H     0.000139  0.000059 -0.000113
    23 H    -0.000068  0.000175 -0.000211
    24 C    -0.000422  0.000351  0.000245
    25 C     0.001095 -0.000530  0.000112
    26 H    -0.000746 -0.000127  0.000014
    27 H    -0.000312  0.000345  0.000225
    28 H    -0.000367  0.000161 -0.000360
    29 C    -0.000302  0.001132 -0.000321
    30 H    -0.000281 -0.000360 -0.000495
    31 H    -0.000006 -0.000818 -0.000018
    32 H     0.000167 -0.000783 -0.000024
    33 C     0.000170  0.000999 -0.000688
    34 H     0.000318  0.000121  0.000433
    35 H    -0.000371 -0.000204  0.000201
    36 H     0.000131 -0.000645  0.000447
 ----------------------------------------
 Mulliken charges used for AMS results%charges...

 dE(predicted):    -0.87946E-03, dE(actual):    -0.41472E-03, Trust radius:    0.400000, all in a.u.
 
----------------------------------------------------------------------
Geometry Convergence after Step   6       (Hartree/Angstrom,Angstrom)
----------------------------------------------------------------------
current energy                               -7.47918798 Hartree
energy change                      -0.00041472     0.00036000    F
constrained gradient max            0.00505938     0.00100000    F
constrained gradient rms            0.00105574     0.00066667    F
gradient max                        0.00505938
gradient rms                        0.00105574
cart. step max                      0.21434737     0.01000000    F
cart. step rms                      0.08731807     0.00666667    F
 
 
--------
Geometry
--------
Formula: C13H20N2S
Atoms
  Index Symbol   x (angstrom)   y (angstrom)   z (angstrom)
      1      N     1.06161652     1.37189432     1.63305837
      2      C    -0.03196066     2.16098147     1.36071925
      3      S    -0.25223224     3.67620409     2.04550760
      4      N    -0.91958288     1.57925544     0.49848207
      5      C     2.37024859     1.86747478     2.06961431
      6      H     1.11234140     0.48777840     1.14085399
      7      C    -2.30240879     1.97006697     0.27277672
      8      H    -0.64147814     0.70280381     0.07926916
      9      H     2.21556802     2.90103249     2.38590324
     10      H    -2.45572675     2.89270219     0.83477041
     11      H     2.68564047     1.29323906     2.94915808
     12      H     2.77233893     3.50631726    -0.09583508
     13      H    -2.42440102     2.21315650    -0.79200876
     14      C     3.41945187     1.75069971     0.97921762
     15      C     4.33715497     0.69335656     0.98607466
     16      C     5.27809518     0.55219184    -0.03459196
     17      C     5.31620462     1.47326899    -1.07951491
     18      C     4.41240285     2.53675436    -1.09342895
     19      C     3.47197369     2.67401241    -0.07468785
     20      H     4.32090084    -0.02800980     1.80178220
     21      H     5.98278985    -0.27650318    -0.01022080
     22      H     6.04944671     1.36766878    -1.87612700
     23      H     4.44260058     3.26541960    -1.90087378
     24      C    -3.37329674     0.90576753     0.66089472
     25      C    -4.75167482     1.54198805     0.38786214
     26      H    -5.55656215     0.83334235     0.61006951
     27      H    -4.91133600     2.43154884     1.00616246
     28      H    -4.85656230     1.84029613    -0.66153361
     29      C    -3.22946591    -0.36035571    -0.21024911
     30      H    -3.30274356    -0.12630125    -1.27854609
     31      H    -4.01937943    -1.08269654     0.02329113
     32      H    -2.27798732    -0.87956007    -0.04285201
     33      C    -3.26194909     0.52955277     2.14990277
     34      H    -3.34877352     1.41078462     2.79282965
     35      H    -4.05637743    -0.17125108     2.42885077
     36      H    -2.30594187     0.04760537     2.37713195
 
Total System Charge             0.00000
Bonding info available!
 
 *** GOStep7 ***

 Energy gradients wrt nuclear displacements
 ==========================================

     Atom      Cartesian (a.u./angstrom)
                 X         Y         Z
 ----------------------------------------
     1 N    -0.002077  0.001002  0.003998
     2 C     0.000249 -0.005548 -0.003218
     3 S     0.000474  0.001404  0.001215
     4 N     0.001970  0.004993 -0.002084
     5 C     0.000593  0.001373 -0.002006
     6 H     0.000927 -0.000265 -0.000084
     7 C    -0.000095 -0.000990  0.002491
     8 H    -0.000610 -0.000580  0.000153
     9 H    -0.000415 -0.000716  0.000577
    10 H     0.000002  0.000057 -0.000993
    11 H     0.000213 -0.000302 -0.000112
    12 H    -0.000376  0.000386  0.000018
    13 H     0.000230 -0.000492 -0.000198
    14 C     0.000388 -0.000147 -0.000490
    15 C    -0.000060  0.000656 -0.000731
    16 C    -0.000569  0.000419  0.000087
    17 C    -0.000740  0.000456  0.000277
    18 C     0.000159 -0.000540  0.000471
    19 C     0.000432 -0.000801  0.000551
    20 H     0.000083 -0.000179  0.000072
    21 H     0.000040 -0.000047  0.000022
    22 H     0.000024  0.000066 -0.000062
    23 H    -0.000002  0.000132 -0.000026
    24 C    -0.000535 -0.000350  0.000597
    25 C     0.000341 -0.000440  0.000102
    26 H    -0.000399 -0.000043 -0.000077
    27 H    -0.000398  0.000207  0.000117
    28 H    -0.000323  0.000097 -0.000247
    29 C    -0.000385  0.001358  0.000370
    30 H    -0.000188 -0.000230 -0.000276
    31 H     0.000040 -0.000537  0.000139
    32 H     0.000249 -0.000689 -0.000194
    33 C     0.000416  0.000717 -0.001260
    34 H     0.000142  0.000357  0.000323
    35 H    -0.000116 -0.000260  0.000223
    36 H     0.000316 -0.000527  0.000253
 ----------------------------------------
 Mulliken charges used for AMS results%charges...

 dE(predicted):    -0.69107E-03, dE(actual):    -0.10901E-03, Trust radius:    0.400000, all in a.u.
 Residual max backtransformation error   0.1703E-04
 
----------------------------------------------------------------------
Geometry Convergence after Step   7       (Hartree/Angstrom,Angstrom)
----------------------------------------------------------------------
current energy                               -7.47929698 Hartree
energy change                      -0.00010901     0.00036000    T
constrained gradient max            0.00554043     0.00100000    F
constrained gradient rms            0.00109532     0.00066667    F
gradient max                        0.00554043
gradient rms                        0.00109532
cart. step max                      0.20989187     0.01000000    F
cart. step rms                      0.08696088     0.00666667    F
 
 
--------
Geometry
--------
Formula: C13H20N2S
Atoms
  Index Symbol   x (angstrom)   y (angstrom)   z (angstrom)
      1      N     1.07619111     1.47332549     1.64585068
      2      C    -0.04480670     2.23667811     1.42580964
      3      S    -0.28125992     3.73752736     2.13777456
      4      N    -0.94566187     1.64145206     0.58855287
      5      C     2.38855209     1.98556760     2.04568465
      6      H     1.11143883     0.57256281     1.18503858
      7      C    -2.33416386     2.02008522     0.38738196
      8      H    -0.63978104     0.81203413     0.10005979
      9      H     2.24272802     3.04109446     2.28727416
     10      H    -2.51464373     2.87868941     1.03680866
     11      H     2.70736034     1.47833946     2.96472195
     12      H     2.76332869     3.44060222    -0.25444869
     13      H    -2.46118657     2.36663496    -0.64823069
     14      C     3.42754651     1.78224113     0.95852923
     15      C     4.35031214     0.73278371     1.04390059
     16      C     5.28362039     0.51219388     0.02972137
     17      C     5.30773804     1.34302047    -1.08854754
     18      C     4.39713393     2.39717134    -1.18324863
     19      C     3.46598680     2.61468263    -0.16981718
     20      H     4.34472614     0.08203125     1.91669620
     21      H     5.99275665    -0.30835859     0.11612300
     22      H     6.03398021     1.17459141    -1.88063896
     23      H     4.41558998     3.05552773    -2.04917251
     24      C    -3.37395626     0.89299625     0.66206116
     25      C    -4.76684855     1.51036833     0.42458623
     26      H    -5.55206446     0.76106470     0.56982745
     27      H    -4.96132642     2.33590875     1.11682424
     28      H    -4.86524239     1.89774359    -0.59560750
     29      C    -3.17625652    -0.28309650    -0.31697120
     30      H    -3.23420037     0.04681230    -1.36034522
     31      H    -3.95019979    -1.04401792    -0.16837636
     32      H    -2.21391651    -0.78926826    -0.17536764
     33      C    -3.27290456     0.38808655     2.11287026
     34      H    -3.41055958     1.20339691     2.82998870
     35      H    -4.04056791    -0.36730282     2.31220478
     36      H    -2.30050840    -0.07068307     2.31619427
 
Total System Charge             0.00000
Bonding info available!
 
 *** GOStep8 ***

 Energy gradients wrt nuclear displacements
 ==========================================

     Atom      Cartesian (a.u./angstrom)
                 X         Y         Z
 ----------------------------------------
     1 N    -0.002202  0.001116  0.002453
     2 C     0.000166 -0.006023 -0.002953
     3 S    -0.000491  0.001848  0.001596
     4 N     0.002413  0.004348 -0.001205
     5 C     0.001218  0.000192 -0.001273
     6 H     0.000595 -0.000215  0.000439
     7 C    -0.000093 -0.001530  0.001074
     8 H    -0.000434 -0.000165 -0.000032
     9 H    -0.000733 -0.000305  0.000554
    10 H     0.000049  0.000534 -0.000530
    11 H     0.000250  0.000039  0.000220
    12 H    -0.000050  0.000346 -0.000252
    13 H     0.000098 -0.000146 -0.000186
    14 C     0.000224 -0.000014 -0.000359
    15 C    -0.000222  0.000152 -0.000564
    16 C    -0.000460  0.000539  0.000006
    17 C    -0.000344  0.000048  0.000347
    18 C    -0.000069 -0.000242  0.000084
    19 C     0.000518 -0.000590  0.000390
    20 H     0.000119  0.000201 -0.000077
    21 H     0.000010  0.000035  0.000010
    22 H    -0.000062  0.000006 -0.000079
    23 H    -0.000049 -0.000076 -0.000062
    24 C    -0.000367 -0.001331  0.001212
    25 C     0.000382  0.000477  0.000439
    26 H    -0.000009 -0.000055 -0.000073
    27 H    -0.000267 -0.000044  0.000023
    28 H    -0.000022  0.000030 -0.000027
    29 C     0.000130  0.001406 -0.000132
    30 H    -0.000060 -0.000181  0.000037
    31 H    -0.000062 -0.000302  0.000207
    32 H     0.000223 -0.000292 -0.000213
    33 C    -0.000518  0.000309 -0.001797
    34 H    -0.000110  0.000188  0.000316
    35 H     0.000112 -0.000020  0.000373
    36 H     0.000117 -0.000281  0.000037
 ----------------------------------------
 Mulliken charges used for AMS results%charges...

 dE(predicted):    -0.62048E-03, dE(actual):    -0.18630E-03, Trust radius:    0.400000, all in a.u.
 
----------------------------------------------------------------------
Geometry Convergence after Step   8       (Hartree/Angstrom,Angstrom)
----------------------------------------------------------------------
current energy                               -7.47948329 Hartree
energy change                      -0.00018630     0.00036000    T
constrained gradient max            0.00601099     0.00100000    F
constrained gradient rms            0.00101573     0.00066667    F
gradient max                        0.00601099
gradient rms                        0.00101573
cart. step max                      0.14950291     0.01000000    F
cart. step rms                      0.05728878     0.00666667    F
 
 
--------
Geometry
--------
Formula: C13H20N2S
Atoms
  Index Symbol   x (angstrom)   y (angstrom)   z (angstrom)
      1      N     1.08222593     1.53750037     1.58491447
      2      C    -0.05891085     2.28380550     1.42363163
      3      S    -0.27510537     3.79457237     2.11879997
      4      N    -0.99340001     1.65802763     0.64722180
      5      C     2.39438268     2.04722608     1.98306541
      6      H     1.10126697     0.62825379     1.14157356
      7      C    -2.38348236     2.04059025     0.47596331
      8      H    -0.68319743     0.85982856     0.11272602
      9      H     2.26155050     3.11460471     2.17840116
     10      H    -2.56917662     2.84862194     1.18631157
     11      H     2.69680451     1.57842149     2.92790192
     12      H     2.80711471     3.40084541    -0.36861806
     13      H    -2.52451826     2.45931671    -0.53110439
     14      C     3.44539626     1.78937830     0.91984898
     15      C     4.36869168     0.74661149     1.06580338
     16      C     5.32844775     0.49402779     0.08323088
     17      C     5.38228382     1.28870192    -1.06023568
     18      C     4.46896794     2.33394102    -1.21685903
     19      C     3.50734782     2.57875695    -0.23851253
     20      H     4.34267211     0.12759075     1.96085518
     21      H     6.03767409    -0.32003682     0.21621973
     22      H     6.13303438     1.09949126    -1.82416074
     23      H     4.51132451     2.96535967    -2.10170143
     24      C    -3.40359611     0.88233165     0.67911842
     25      C    -4.80597984     1.48657014     0.46797243
     26      H    -5.57843926     0.71728186     0.57038479
     27      H    -5.01576505     2.27104944     1.20190912
     28      H    -4.90630246     1.92528415    -0.53070649
     29      C    -3.18036390    -0.23446768    -0.36160982
     30      H    -3.22790089     0.15465967    -1.38476287
     31      H    -3.94804937    -1.00995038    -0.26757890
     32      H    -2.21449367    -0.73693800    -0.23458407
     33      C    -3.29996780     0.29955013     2.10066924
     34      H    -3.46901647     1.06924852     2.86022678
     35      H    -4.04674903    -0.48761756     2.24944728
     36      H    -2.31583639    -0.13995205     2.28794985
 
Total System Charge             0.00000
Bonding info available!
 
 *** GOStep9 ***

 Energy gradients wrt nuclear displacements
 ==========================================

     Atom      Cartesian (a.u./angstrom)
                 X         Y         Z
 ----------------------------------------
     1 N    -0.002156 -0.000355  0.001242
     2 C    -0.001703 -0.004337 -0.000406
     3 S     0.000187  0.002394  0.000157
     4 N     0.002025  0.002272 -0.001103
     5 C     0.002035  0.000071 -0.000080
     6 H    -0.000215  0.000147 -0.000262
     7 C    -0.000025 -0.000721  0.000486
     8 H     0.000103  0.000395 -0.000064
     9 H    -0.000455  0.000096  0.000603
    10 H     0.000349  0.000482 -0.000017
    11 H     0.000117  0.000538  0.000093
    12 H     0.000417  0.000429 -0.000269
    13 H     0.000009 -0.000224 -0.000085
    14 C    -0.000800 -0.000407 -0.000205
    15 C     0.000234 -0.000274  0.000478
    16 C    -0.000060 -0.000339 -0.000462
    17 C     0.000674 -0.000279  0.000351
    18 C    -0.000039  0.000687 -0.000453
    19 C    -0.000826 -0.000854 -0.000308
    20 H    -0.000060  0.000162 -0.000296
    21 H    -0.000066  0.000132 -0.000031
    22 H    -0.000067  0.000038  0.000030
    23 H     0.000124  0.000052  0.000159
    24 C    -0.000009 -0.001308  0.000393
    25 C     0.000251  0.000717  0.000303
    26 H     0.000072 -0.000196 -0.000151
    27 H     0.000088 -0.000382 -0.000129
    28 H     0.000177 -0.000096  0.000138
    29 C     0.000065  0.001090  0.000250
    30 H    -0.000083  0.000055  0.000277
    31 H    -0.000094 -0.000191  0.000047
    32 H     0.000116  0.000206 -0.000045
    33 C    -0.000229  0.000190 -0.000866
    34 H    -0.000152 -0.000122  0.000080
    35 H     0.000120  0.000057  0.000157
    36 H    -0.000123 -0.000123 -0.000012
 ----------------------------------------
 Mulliken charges used for AMS results%charges...

 dE(predicted):    -0.22870E-03, dE(actual):    -0.28174E-03, Trust radius:    0.800000, all in a.u.
 
----------------------------------------------------------------------
Geometry Convergence after Step   9       (Hartree/Angstrom,Angstrom)
----------------------------------------------------------------------
current energy                               -7.47976503 Hartree
energy change                      -0.00028174     0.00036000    T
constrained gradient max            0.00433080     0.00100000    F
constrained gradient rms            0.00075274     0.00066667    F
gradient max                        0.00433080
gradient rms                        0.00075274
cart. step max                      0.11938306     0.01000000    F
cart. step rms                      0.04393605     0.00666667    F
 
 
--------
Geometry
--------
Formula: C13H20N2S
Atoms
  Index Symbol   x (angstrom)   y (angstrom)   z (angstrom)
      1      N     1.10448296     1.57140133     1.51144485
      2      C    -0.06343523     2.28756975     1.42748525
      3      S    -0.28159698     3.78658837     2.14261916
      4      N    -1.02890498     1.62861183     0.71660650
      5      C     2.40836693     2.08388934     1.92491784
      6      H     1.12071173     0.66183761     1.06981701
      7      C    -2.41290299     2.03415486     0.55387505
      8      H    -0.72178288     0.85635122     0.14408276
      9      H     2.27826844     3.15633422     2.09467048
     10      H    -2.59895276     2.80369948     1.30569463
     11      H     2.69236327     1.63537945     2.88554292
     12      H     2.84387113     3.37080836    -0.45298443
     13      H    -2.54823198     2.50907956    -0.42914280
     14      C     3.48157395     1.80580754     0.89040770
     15      C     4.41181935     0.77647096     1.08030058
     16      C     5.39143019     0.50845591     0.12116597
     17      C     5.45154862     1.26772448    -1.04610082
     18      C     4.53241649     2.30095912    -1.24484756
     19      C     3.55727779     2.56690378    -0.28579220
     20      H     4.37422182     0.17949166     1.98991672
     21      H     6.10399986    -0.29687696     0.28583769
     22      H     6.21348034     1.06236547    -1.79460837
     23      H     4.57857268     2.90389932    -2.14913561
     24      C    -3.43990576     0.87420427     0.69403196
     25      C    -4.83579607     1.49192522     0.47843805
     26      H    -5.61455009     0.72577116     0.55011180
     27      H    -5.05033965     2.25862816     1.22978886
     28      H    -4.91865400     1.95786312    -0.50931349
     29      C    -3.20383666    -0.21171770    -0.37706197
     30      H    -3.21657686     0.21186921    -1.38752641
     31      H    -3.98575689    -0.97667796    -0.33016684
     32      H    -2.24991817    -0.73313679    -0.23937864
     33      C    -3.36297372     0.24542126     2.09823202
     34      H    -3.55424519     0.98987432     2.87751195
     35      H    -4.10764622    -0.55051365     2.20479129
     36      H    -2.37946399    -0.19193023     2.29248098
 
Total System Charge             0.00000
Bonding info available!
 
 *** GOStep10 ***

 Energy gradients wrt nuclear displacements
 ==========================================

     Atom      Cartesian (a.u./angstrom)
                 X         Y         Z
 ----------------------------------------
     1 N    -0.001577 -0.001644  0.001959
     2 C    -0.001391 -0.000443 -0.000659
     3 S    -0.000561  0.000706  0.000098
     4 N     0.000981  0.000214 -0.000718
     5 C     0.001381 -0.000721 -0.001116
     6 H    -0.000915  0.000364 -0.000647
     7 C     0.000720 -0.000090  0.000770
     8 H     0.000458  0.000690  0.000593
     9 H    -0.000035  0.000403  0.000043
    10 H     0.000310  0.000274  0.000172
    11 H    -0.000174  0.000323 -0.000348
    12 H    -0.000282 -0.000390 -0.000600
    13 H    -0.000262 -0.000068  0.000237
    14 C    -0.000399 -0.000210  0.000398
    15 C    -0.000086 -0.000630  0.000634
    16 C     0.001268  0.000282  0.000282
    17 C     0.000192 -0.001149 -0.000534
    18 C    -0.000128  0.000765 -0.000628
    19 C     0.000507  0.001462  0.000814
    20 H    -0.000205 -0.000072 -0.000249
    21 H    -0.000253 -0.000093 -0.000172
    22 H    -0.000054  0.000088  0.000035
    23 H    -0.000068 -0.000061  0.000118
    24 C    -0.000036 -0.000615 -0.000695
    25 C    -0.000033  0.000495 -0.000009
    26 H     0.000084 -0.000071 -0.000136
    27 H     0.000254 -0.000316 -0.000107
    28 H     0.000238 -0.000039  0.000249
    29 C    -0.000117 -0.000255  0.000495
    30 H    -0.000012  0.000166  0.000349
    31 H     0.000087  0.000007 -0.000055
    32 H    -0.000136  0.000334 -0.000054
    33 C     0.000550  0.000148 -0.000273
    34 H    -0.000093 -0.000087 -0.000096
    35 H     0.000027  0.000142 -0.000140
    36 H    -0.000237  0.000091 -0.000009
 ----------------------------------------
 Mulliken charges used for AMS results%charges...

 dE(predicted):    -0.17600E-03, dE(actual):    -0.34743E-03, Trust radius:    0.800000, all in a.u.
 
----------------------------------------------------------------------
Geometry Convergence after Step  10       (Hartree/Angstrom,Angstrom)
----------------------------------------------------------------------
current energy                               -7.48011246 Hartree
energy change                      -0.00034743     0.00036000    T
constrained gradient max            0.00195677     0.00100000    F
constrained gradient rms            0.00056054     0.00066667    T
gradient max                        0.00195677
gradient rms                        0.00056054
cart. step max                      0.08650688     0.01000000    F
cart. step rms                      0.03711797     0.00666667    F
 
 
--------
Geometry
--------
Formula: C13H20N2S
Atoms
  Index Symbol   x (angstrom)   y (angstrom)   z (angstrom)
      1      N     1.12818798     1.59396325     1.44240285
      2      C    -0.06158150     2.27724864     1.42279386
      3      S    -0.27543649     3.77394272     2.14010382
      4      N    -1.05343340     1.58620481     0.77705424
      5      C     2.42057790     2.11196969     1.87594318
      6      H     1.14974993     0.68099196     1.00886983
      7      C    -2.43024478     2.01707096     0.61467222
      8      H    -0.75612963     0.83027710     0.17761255
      9      H     2.29018339     3.18725534     2.02654894
     10      H    -2.61542900     2.76072776     1.39220152
     11      H     2.68836908     1.67805332     2.84854700
     12      H     2.87822777     3.35190482    -0.51586703
     13      H    -2.55296131     2.53066170    -0.35091950
     14      C     3.51028937     1.81908221     0.86410664
     15      C     4.44691863     0.80346868     1.08898846
     16      C     5.44075229     0.52386892     0.14833248
     17      C     5.51402191     1.26367603    -1.03054494
     18      C     4.58533646     2.27998096    -1.26586334
     19      C     3.59136615     2.55210227    -0.32882407
     20      H     4.40541981     0.22901451     2.01298339
     21      H     6.16267801    -0.26653075     0.34247977
     22      H     6.29136338     1.05335600    -1.76166761
     23      H     4.64152229     2.86771918    -2.17961545
     24      C    -3.47256673     0.86721076     0.70887738
     25      C    -4.85824116     1.50696937     0.48949082
     26      H    -5.64803357     0.75084153     0.54156015
     27      H    -5.07007116     2.26458888     1.25122782
     28      H    -4.92544740     1.99050113    -0.49101891
     29      C    -3.23535683    -0.19569380    -0.38591817
     30      H    -3.21510448     0.25368131    -1.38527781
     31      H    -4.03586751    -0.94224665    -0.37658804
     32      H    -2.29738961    -0.74297544    -0.23982853
     33      C    -3.42480297     0.20192495     2.09836041
     34      H    -3.62643146     0.92820942     2.89219920
     35      H    -4.17512894    -0.59252451     2.17167866
     36      H    -2.44637194    -0.24400999     2.29861106
 
Total System Charge             0.00000
Bonding info available!
 
 *** GOStep11 ***

 Energy gradients wrt nuclear displacements
 ==========================================

     Atom      Cartesian (a.u./angstrom)
                 X         Y         Z
 ----------------------------------------
     1 N     0.001349 -0.001793  0.002641
     2 C    -0.001654  0.001502 -0.000746
     3 S    -0.000218 -0.001044 -0.000684
     4 N    -0.000762  0.000168 -0.000703
     5 C     0.000052 -0.000708 -0.001271
     6 H    -0.000668  0.000635 -0.000762
     7 C     0.001698 -0.000462  0.000153
     8 H     0.000229  0.000852  0.000472
     9 H     0.000305  0.000426 -0.000248
    10 H     0.000096  0.000027  0.000287
    11 H    -0.000181 -0.000007 -0.000305
    12 H     0.000380  0.000363  0.000303
    13 H    -0.000271  0.000287  0.000328
    14 C     0.000491  0.000728  0.000896
    15 C    -0.000056 -0.000115  0.000231
    16 C    -0.000496 -0.000998 -0.000504
    17 C     0.000761  0.000397  0.000182
    18 C    -0.000228  0.000120 -0.000196
    19 C    -0.000944 -0.000693 -0.000418
    20 H     0.000038  0.000069  0.000124
    21 H     0.000120  0.000175  0.000090
    22 H    -0.000028  0.000058  0.000023
    23 H     0.000049  0.000088  0.000156
    24 C    -0.000138  0.000191 -0.000562
    25 C    -0.000333 -0.000194 -0.000213
    26 H     0.000049  0.000143 -0.000076
    27 H     0.000177 -0.000060  0.000049
    28 H     0.000144  0.000007  0.000255
    29 C    -0.000089 -0.000815  0.000307
    30 H     0.000060  0.000100  0.000104
    31 H     0.000177  0.000310 -0.000022
    32 H    -0.000223  0.000253 -0.000042
    33 C     0.000337 -0.000201  0.000330
    34 H    -0.000035 -0.000013 -0.000079
    35 H    -0.000014  0.000017 -0.000074
    36 H    -0.000174  0.000187 -0.000025
 ----------------------------------------
 Mulliken charges used for AMS results%charges...

 dE(predicted):    -0.10304E-03, dE(actual):    -0.24999E-03, Trust radius:    0.800000, all in a.u.
 
----------------------------------------------------------------------
Geometry Convergence after Step  11       (Hartree/Angstrom,Angstrom)
----------------------------------------------------------------------
current energy                               -7.48036244 Hartree
energy change                      -0.00024999     0.00036000    T
constrained gradient max            0.00263845     0.00100000    F
constrained gradient rms            0.00058430     0.00066667    T
gradient max                        0.00263845
gradient rms                        0.00058430
cart. step max                      0.16611011     0.01000000    F
cart. step rms                      0.06465086     0.00666667    F
 
 
--------
Geometry
--------
Formula: C13H20N2S
Atoms
  Index Symbol   x (angstrom)   y (angstrom)   z (angstrom)
      1      N     1.15835962     1.64994955     1.34439839
      2      C    -0.05928101     2.26864425     1.45122176
      3      S    -0.26572142     3.76231032     2.17405654
      4      N    -1.08324014     1.51693312     0.92561873
      5      C     2.43699225     2.17219796     1.80026496
      6      H     1.18615589     0.72639161     0.93538364
      7      C    -2.44548529     1.98873947     0.74183095
      8      H    -0.79989128     0.79334994     0.27957671
      9      H     2.31179080     3.25233839     1.91556073
     10      H    -2.64788465     2.68422288     1.55831163
     11      H     2.68383020     1.76821020     2.79248766
     12      H     2.89999891     3.29565076    -0.63963433
     13      H    -2.52888435     2.56740343    -0.19165843
     14      C     3.54281223     1.84409602     0.81811292
     15      C     4.49416920     0.85915266     1.10407281
     16      C     5.50704854     0.55614628     0.19189007
     17      C     5.57996498     1.23642884    -1.02203777
     18      C     4.63771504     2.22329030    -1.31731127
     19      C     3.62779950     2.52143286    -0.40655752
     20      H     4.44901819     0.32721724     2.05311450
     21      H     6.23903906    -0.21236489     0.43153329
     22      H     6.36898398     1.00325742    -1.73354609
     23      H     4.69378683     2.76516773    -2.25914060
     24      C    -3.50850221     0.85625356     0.73185162
     25      C    -4.87394485     1.53086426     0.48812436
     26      H    -5.67896351     0.78933111     0.48754504
     27      H    -5.09866500     2.26623518     1.26839572
     28      H    -4.89929723     2.04975727    -0.47639407
     29      C    -3.24464294    -0.15412594    -0.40714819
     30      H    -3.15491953     0.34640939    -1.37833117
     31      H    -4.06938669    -0.86991295    -0.48142519
     32      H    -2.33531308    -0.74259923    -0.24079563
     33      C    -3.53204845     0.11895969     2.08635035
     34      H    -3.76857148     0.80582497     2.90557931
     35      H    -4.28862407    -0.67302993     2.08299578
     36      H    -2.56526358    -0.34164668     2.30941565
 
Total System Charge             0.00000
Bonding info available!
 
 *** GOStep12 ***

 Energy gradients wrt nuclear displacements
 ==========================================

     Atom      Cartesian (a.u./angstrom)
                 X         Y         Z
 ----------------------------------------
     1 N     0.003943 -0.000623  0.002598
     2 C    -0.001913  0.001272 -0.001567
     3 S     0.000783 -0.001469 -0.001002
     4 N    -0.002268 -0.000312  0.001538
     5 C    -0.002494 -0.000763 -0.001070
     6 H    -0.000070  0.001422 -0.000779
     7 C     0.004403 -0.001243 -0.000970
     8 H    -0.000385  0.001506 -0.000077
     9 H     0.000130  0.000135 -0.000364
    10 H     0.000161 -0.000189  0.000246
    11 H     0.000206 -0.000136  0.000270
    12 H    -0.000003  0.000169  0.000611
    13 H    -0.000702  0.000803  0.000117
    14 C    -0.000404 -0.000418  0.000241
    15 C    -0.000294  0.000124 -0.000473
    16 C    -0.000058  0.000346  0.000260
    17 C    -0.000606  0.000576 -0.000041
    18 C     0.000268 -0.000116  0.000599
    19 C    -0.000086 -0.000720 -0.000333
    20 H    -0.000061 -0.000111  0.000279
    21 H     0.000076 -0.000071 -0.000045
    22 H    -0.000043  0.000007 -0.000042
    23 H     0.000030  0.000119 -0.000027
    24 C    -0.000049  0.000884 -0.000016
    25 C    -0.000197 -0.001006 -0.000715
    26 H     0.000020  0.000324 -0.000004
    27 H    -0.000013  0.000363  0.000292
    28 H    -0.000074  0.000135  0.000111
    29 C    -0.000235 -0.001268 -0.000171
    30 H     0.000108 -0.000019 -0.000356
    31 H     0.000087  0.000591  0.000106
    32 H    -0.000167  0.000148  0.000114
    33 C    -0.000047 -0.000666  0.000643
    34 H    -0.000056  0.000199  0.000110
    35 H    -0.000098 -0.000203 -0.000053
    36 H     0.000108  0.000210 -0.000030
 ----------------------------------------
 Mulliken charges used for AMS results%charges...

 dE(predicted):    -0.12233E-03, dE(actual):    -0.73919E-04, Trust radius:    0.800000, all in a.u.
 
----------------------------------------------------------------------
Geometry Convergence after Step  12       (Hartree/Angstrom,Angstrom)
----------------------------------------------------------------------
current energy                               -7.48043636 Hartree
energy change                      -0.00007392     0.00036000    T
constrained gradient max            0.00440271     0.00100000    F
constrained gradient rms            0.00089975     0.00066667    F
gradient max                        0.00440271
gradient rms                        0.00089975
cart. step max                      0.16099979     0.01000000    F
cart. step rms                      0.06383582     0.00666667    F
 
 
--------
Geometry
--------
Formula: C13H20N2S
Atoms
  Index Symbol   x (angstrom)   y (angstrom)   z (angstrom)
      1      N     1.16144624     1.72583689     1.27849637
      2      C    -0.06663998     2.28716224     1.49774356
      3      S    -0.27293374     3.77061184     2.24174135
      4      N    -1.10167498     1.48943836     1.05966912
      5      C     2.43727601     2.25104388     1.73519561
      6      H     1.19178517     0.78827246     0.90254746
      7      C    -2.45892777     1.97927066     0.86449690
      8      H    -0.82556744     0.79932921     0.37312775
      9      H     2.32374470     3.33610943     1.80806029
     10      H    -2.69065949     2.61851448     1.71800329
     11      H     2.67022908     1.88582143     2.74643858
     12      H     2.90019120     3.22670451    -0.76788882
     13      H    -2.51523202     2.61948973    -0.03065864
     14      C     3.54986433     1.87338855     0.77865207
     15      C     4.50619464     0.91380584     1.12604234
     16      C     5.52299983     0.56155815     0.23636680
     17      C     5.59783652     1.16968952    -1.01484028
     18      C     4.64974224     2.12992728    -1.37256157
     19      C     3.63507308     2.47604620    -0.48451693
     20      H     4.45974183     0.43790464     2.10421793
     21      H     6.25889708    -0.18633748     0.52452744
     22      H     6.39167324     0.89973181    -1.70780501
     23      H     4.70544509     2.61366402    -2.34559222
     24      C    -3.51469756     0.84828825     0.74667551
     25      C    -4.87548242     1.53143905     0.49879888
     26      H    -5.67671919     0.78821650     0.43773730
     27      H    -5.12640952     2.22556296     1.30840283
     28      H    -4.87599081     2.09860963    -0.43869880
     29      C    -3.20619189    -0.08582203    -0.44552126
     30      H    -3.07457608     0.47802332    -1.37650375
     31      H    -4.02968303    -0.78997300    -0.60223184
     32      H    -2.30698959    -0.69064677    -0.28154495
     33      C    -3.57938806     0.02746269     2.05116438
     34      H    -3.85572222     0.65986354     2.90137696
     35      H    -4.32479004    -0.77097260     1.97070768
     36      H    -2.61492999    -0.43454816     2.28188657
 
Total System Charge             0.00000
Bonding info available!
 
 *** GOStep13 ***

 Energy gradients wrt nuclear displacements
 ==========================================

     Atom      Cartesian (a.u./angstrom)
                 X         Y         Z
 ----------------------------------------
     1 N     0.002694  0.001798  0.002263
     2 C    -0.000494 -0.001641 -0.003373
     3 S     0.000941 -0.000069 -0.000100
     4 N    -0.003173 -0.002022  0.005240
     5 C    -0.004661 -0.001872 -0.001471
     6 H     0.000174  0.001756 -0.000647
     7 C     0.006085 -0.001442 -0.001555
     8 H    -0.000290  0.002022 -0.000890
     9 H    -0.000368 -0.000112 -0.000238
    10 H     0.000309 -0.000210 -0.000013
    11 H     0.000631 -0.000080  0.000797
    12 H    -0.000327  0.000112  0.000554
    13 H    -0.001286  0.001162 -0.000508
    14 C     0.000163 -0.000343  0.000594
    15 C    -0.000010  0.000559 -0.000531
    16 C    -0.000673 -0.000200 -0.000164
    17 C    -0.000533  0.000807  0.000098
    18 C     0.000008 -0.000245  0.000549
    19 C     0.000308 -0.000661 -0.000384
    20 H    -0.000046 -0.000167  0.000265
    21 H     0.000198 -0.000013 -0.000051
    22 H     0.000081  0.000079  0.000025
    23 H     0.000099  0.000120 -0.000086
    24 C     0.000191  0.000617  0.000105
    25 C    -0.000079 -0.001067 -0.000768
    26 H     0.000048  0.000324  0.000052
    27 H    -0.000195  0.000554  0.000352
    28 H    -0.000152  0.000222 -0.000157
    29 C     0.000165 -0.000783 -0.000571
    30 H     0.000134  0.000170 -0.000417
    31 H    -0.000052  0.000562  0.000024
    32 H     0.000060  0.000141  0.000247
    33 C    -0.000247 -0.000461  0.000654
    34 H    -0.000092  0.000246  0.000214
    35 H    -0.000058 -0.000074 -0.000037
    36 H     0.000448  0.000213 -0.000072
 ----------------------------------------
 Mulliken charges used for AMS results%charges...

 dE(predicted):    -0.80281E-04, dE(actual):     0.30080E-03, Trust radius:    0.117504, all in a.u.
 
----------------------------------------------------------------------
Geometry Convergence after Step  13       (Hartree/Angstrom,Angstrom)
----------------------------------------------------------------------
current energy                               -7.48013557 Hartree
energy change                       0.00030080     0.00036000    T
constrained gradient max            0.00608516     0.00100000    F
constrained gradient rms            0.00123278     0.00066667    F
gradient max                        0.00608516
gradient rms                        0.00123278
cart. step max                      0.06279621     0.01000000    F
cart. step rms                      0.02455337     0.00666667    F
 
 
--------
Geometry
--------
Formula: C13H20N2S
Atoms
  Index Symbol   x (angstrom)   y (angstrom)   z (angstrom)
      1      N     1.15875553     1.73880199     1.27595070
      2      C    -0.06953663     2.30143366     1.49286439
      3      S    -0.27794172     3.77992776     2.24899675
      4      N    -1.10527170     1.51522320     1.03298550
      5      C     2.43668352     2.27207667     1.72702602
      6      H     1.19029597     0.79454502     0.91475648
      7      C    -2.47369350     1.99161815     0.86192255
      8      H    -0.82995765     0.81488436     0.35529705
      9      H     2.32126146     3.35749082     1.78884856
     10      H    -2.70170779     2.62127485     1.72346489
     11      H     2.66781672     1.91866363     2.74250341
     12      H     2.90648507     3.20421151    -0.80012516
     13      H    -2.54533690     2.63685193    -0.02789266
     14      C     3.55226119     1.88254750     0.77745731
     15      C     4.50796014     0.92937932     1.14496771
     16      C     5.52676260     0.55895803     0.26509494
     17      C     5.60370494     1.14055892    -0.99833480
     18      C     4.65701720     2.09489097    -1.37647314
     19      C     3.64188559     2.46184445    -0.49669479
     20      H     4.45849277     0.47145912     2.13133010
     21      H     6.26040818    -0.18458095     0.56962984
     22      H     6.39763880     0.85493940    -1.68489475
     23      H     4.71358985     2.55724611    -2.35973308
     24      C    -3.51693401     0.84894889     0.74404711
     25      C    -4.89139758     1.51830894     0.53804109
     26      H    -5.68281905     0.76432026     0.47610248
     27      H    -5.13657595     2.19079835     1.36695179
     28      H    -4.91822481     2.10473007    -0.38720692
     29      C    -3.21975388    -0.05505321    -0.47347796
     30      H    -3.12064384     0.53033495    -1.39492956
     31      H    -4.03296736    -0.77245892    -0.62667713
     32      H    -2.30591241    -0.64663748    -0.34434115
     33      C    -3.54354933     0.00146041     2.03186580
     34      H    -3.80659525     0.61279433     2.90134252
     35      H    -4.28294348    -0.80252240     1.95164605
     36      H    -2.57032221    -0.45678355     2.23140093
 
Total System Charge             0.00000
Bonding info available!
 
 *** GOStep14 ***

 Energy gradients wrt nuclear displacements
 ==========================================

     Atom      Cartesian (a.u./angstrom)
                 X         Y         Z
 ----------------------------------------
     1 N     0.000362  0.001901  0.002042
     2 C     0.003396 -0.001270 -0.000810
     3 S     0.000726  0.000946  0.000549
     4 N    -0.003755 -0.001976  0.002731
     5 C    -0.002573 -0.000760 -0.001005
     6 H     0.000379  0.000187 -0.000704
     7 C     0.001238 -0.000172 -0.000858
     8 H     0.000495 -0.000479 -0.001614
     9 H    -0.000314 -0.000191  0.000184
    10 H    -0.000108 -0.000040 -0.000250
    11 H     0.000371 -0.000109  0.000658
    12 H    -0.000484 -0.000062  0.000089
    13 H    -0.000711  0.000513 -0.000498
    14 C     0.000540  0.000015  0.000322
    15 C    -0.000012  0.000303 -0.000357
    16 C    -0.000335 -0.000003 -0.000214
    17 C    -0.000223  0.000112  0.000140
    18 C    -0.000105 -0.000110  0.000093
    19 C     0.000722  0.000402 -0.000030
    20 H     0.000004 -0.000180  0.000043
    21 H     0.000092 -0.000071 -0.000098
    22 H     0.000122  0.000038  0.000060
    23 H     0.000068  0.000045 -0.000071
    24 C    -0.000357  0.000250  0.000107
    25 C     0.000074 -0.000354 -0.000049
    26 H    -0.000079  0.000035  0.000061
    27 H    -0.000211  0.000320  0.000102
    28 H    -0.000163  0.000150 -0.000285
    29 C     0.000517  0.000139 -0.000210
    30 H    -0.000020  0.000162 -0.000298
    31 H    -0.000164  0.000109 -0.000203
    32 H     0.000173 -0.000075  0.000169
    33 C    -0.000039  0.000116  0.000214
    34 H    -0.000133  0.000115  0.000118
    35 H     0.000032 -0.000045 -0.000010
    36 H     0.000475  0.000040 -0.000119
 ----------------------------------------
 Mulliken charges used for AMS results%charges...

 dE(predicted):    -0.15718E-03, dE(actual):    -0.18499E-03, Trust radius:    0.235008, all in a.u.
 
----------------------------------------------------------------------
Geometry Convergence after Step  14       (Hartree/Angstrom,Angstrom)
----------------------------------------------------------------------
current energy                               -7.48032055 Hartree
energy change                      -0.00018499     0.00036000    T
constrained gradient max            0.00375366     0.00100000    F
constrained gradient rms            0.00079555     0.00066667    F
gradient max                        0.00375366
gradient rms                        0.00079555
cart. step max                      0.21162572     0.01000000    F
cart. step rms                      0.08278730     0.00666667    F
 
 
--------
Geometry
--------
Formula: C13H20N2S
Atoms
  Index Symbol   x (angstrom)   y (angstrom)   z (angstrom)
      1      N     1.14786248     1.81087004     1.22458869
      2      C    -0.08247352     2.35604222     1.47442986
      3      S    -0.30063669     3.82514777     2.24766844
      4      N    -1.11551561     1.56391777     1.02081882
      5      C     2.42675231     2.36300030     1.66264440
      6      H     1.18152636     0.84874165     0.91210012
      7      C    -2.50580868     2.00650097     0.92417355
      8      H    -0.84655991     0.88170728     0.32274268
      9      H     2.31878726     3.45104824     1.66257205
     10      H    -2.72627730     2.56598212     1.83487326
     11      H     2.64254742     2.06793355     2.69923928
     12      H     2.92552495     3.10890989    -0.93009511
     13      H    -2.61923520     2.70986314     0.08534552
     14      C     3.55085290     1.90848046     0.75232690
     15      C     4.50407497     0.98776488     1.20136590
     16      C     5.53668357     0.55746433     0.36593271
     17      C     5.62519943     1.03838175    -0.93822791
     18      C     4.68171140     1.96044388    -1.39781990
     19      C     3.65658497     2.39288497    -0.55976926
     20      H     4.44317579     0.60509907     2.21827321
     21      H     6.26642451    -0.16004240     0.73496581
     22      H     6.42566974     0.70152329    -1.59315135
     23      H     4.74777139     2.34562040    -2.41305358
     24      C    -3.51619890     0.84221347     0.74821729
     25      C    -4.91545372     1.48336510     0.65164181
     26      H    -5.68624827     0.71194518     0.55118721
     27      H    -5.14767270     2.07213213     1.54462371
     28      H    -4.99346629     2.14626710    -0.21709685
     29      C    -3.24475652     0.05477932    -0.55272580
     30      H    -3.20352674     0.71969587    -1.42265044
     31      H    -4.04086276    -0.67552063    -0.73520897
     32      H    -2.30909968    -0.51528828    -0.51472035
     33      C    -3.47047150    -0.11210512     1.95704866
     34      H    -3.71478646     0.41423139     2.88545344
     35      H    -4.19276470    -0.92623532     1.83484886
     36      H    -2.48039984    -0.56027873     2.08115021
 
Total System Charge             0.00000
Bonding info available!
 
 *** GOStep15 ***

 Energy gradients wrt nuclear displacements
 ==========================================

     Atom      Cartesian (a.u./angstrom)
                 X         Y         Z
 ----------------------------------------
     1 N    -0.003736  0.000877  0.000894
     2 C     0.006472 -0.001839 -0.000084
     3 S    -0.000455  0.002067  0.001069
     4 N    -0.001411 -0.001673  0.000857
     5 C     0.000204  0.000454  0.000322
     6 H     0.000226 -0.000905 -0.000654
     7 C    -0.003722  0.001377  0.000490
     8 H     0.001249 -0.000939 -0.001293
     9 H    -0.000607 -0.000074  0.000725
    10 H     0.000238  0.000310 -0.000296
    11 H     0.000390 -0.000042  0.000278
    12 H    -0.000413 -0.000052 -0.000602
    13 H     0.000024 -0.000193 -0.000322
    14 C     0.000457 -0.000265 -0.000637
    15 C    -0.000528 -0.000590 -0.000168
    16 C     0.000723  0.001143 -0.000142
    17 C     0.000157 -0.001054  0.000512
    18 C    -0.000306  0.000522 -0.000250
    19 C     0.000709  0.000964  0.000594
    20 H     0.000050  0.000026 -0.000266
    21 H    -0.000197 -0.000136 -0.000055
    22 H     0.000014 -0.000045  0.000073
    23 H    -0.000016 -0.000101  0.000107
    24 C    -0.000170 -0.000286 -0.000562
    25 C     0.000884  0.000584  0.000860
    26 H    -0.000086 -0.000309  0.000065
    27 H    -0.000027 -0.000152 -0.000464
    28 H     0.000027 -0.000008 -0.000437
    29 C     0.000331  0.000594  0.000625
    30 H    -0.000193  0.000095 -0.000026
    31 H    -0.000214 -0.000454 -0.000610
    32 H    -0.000140 -0.000286 -0.000010
    33 C     0.000164  0.000358 -0.000355
    34 H    -0.000298  0.000011 -0.000122
    35 H     0.000089  0.000001  0.000022
    36 H     0.000109  0.000017 -0.000137
 ----------------------------------------
 Mulliken charges used for AMS results%charges...

 dE(predicted):    -0.22443E-03, dE(actual):     0.56042E-04, Trust radius:    0.057401, all in a.u.
 
----------------------------------------------------------------------
Geometry Convergence after Step  15       (Hartree/Angstrom,Angstrom)
----------------------------------------------------------------------
current energy                               -7.48026451 Hartree
energy change                       0.00005604     0.00036000    T
constrained gradient max            0.00647486     0.00100000    F
constrained gradient rms            0.00099749     0.00066667    F
gradient max                        0.00647486
gradient rms                        0.00099749
cart. step max                      0.05345265     0.01000000    F
[...]
                                    1.84%     1 P:y            -5.135  0.67    12 C
                                    1.75%     2 P:x             4.559  0.00     4 C
                                   -1.74%     2 S               2.096  0.00    20 H
                                   -1.67%     2 S               2.096  0.00    23 H
                                    1.62%     1 S              -6.484  1.00    29 H
                                    1.53%     2 S             -13.802  2.00    13 C
                                    1.52%     1 P:x            -5.135  0.67     6 C
                                   -1.27%     2 P:y             4.559  0.00    12 C
                                   -1.18%     2 P:x             4.559  0.00     6 C
                                   -1.17%     2 S               2.096  0.00    19 H
                                    1.16%     1 S              -6.484  1.00    23 H
                                    1.15%     1 S              -6.484  1.00    19 H
                                    1.13%     2 S             -13.802  2.00     5 C
                                    1.10%     1 S              -6.484  1.00    20 H
                                    1.08%     1 P:y            -5.135  0.67     3 C
                                    1.05%     1 P:y            11.162  0.00    18 H
                                   -1.04%     2 S               2.096  0.00    29 H
       3.785  0.00    93 A        -22.27%     2 P:y             4.559  0.00    12 C
                                   17.91%     1 P:x            -5.135  0.67    13 C
                                   16.44%     1 P:y            -5.135  0.67    12 C
                                   13.13%     1 P:z            -5.135  0.67    14 C
                                   12.67%     1 P:x            -5.135  0.67    12 C
                                  -11.57%     2 P:x             4.559  0.00    12 C
                                   10.48%     1 P:z            -5.135  0.67    15 C
                                    6.44%     2 P:x             4.559  0.00     5 C
                                    4.72%     1 S              -6.484  1.00    34 H
                                    4.39%     1 S              -6.484  1.00    31 H
                                    4.25%     1 P:x            -5.135  0.67     4 C
                                    4.21%     2 P:z             4.559  0.00    15 C
                                    4.18%     2 P:x             4.559  0.00     4 C
                                   -4.12%     2 S               2.096  0.00    34 H
                                   -3.87%     2 S               2.096  0.00    31 H
                                    3.76%     2 S             -13.802  2.00     3 C
                                    3.68%     1 P:y            -5.135  0.67     3 C
                                    3.46%     2 P:z             4.559  0.00    14 C
                                   -3.22%     3 S              10.456  0.00     3 C
                                    3.00%     1 S              -6.484  1.00    28 H
                                    2.71%     1 S              -6.484  1.00    20 H
                                   -2.67%     4 S               5.590  0.00    16 S
                                   -2.52%     3 S              10.456  0.00     6 C
                                   -2.41%     2 P:z             4.559  0.00    12 C
                                    2.33%     2 S             -13.802  2.00     6 C
                                    2.12%     2 P:y             4.559  0.00    14 C
                                    2.05%     1 P:x            -6.963  1.00     1 N
                                    1.97%     1 P:x            -5.135  0.67    15 C
                                    1.93%     2 P:y             4.559  0.00     5 C
                                    1.90%     2 P:y             4.559  0.00     3 C
                                    1.78%     1 P:x            -5.135  0.67     6 C
                                    1.77%     2 P:x             4.559  0.00    15 C
                                    1.76%     1 P:z            -5.135  0.67    12 C
                                   -1.69%     1 P:x            -5.135  0.67     5 C
                                    1.58%     2 P:x             7.772  0.00     2 N
                                   -1.56%     2 P:x             4.559  0.00    14 C
                                    1.45%     2 S             -13.802  2.00    13 C
                                    1.34%     1 P:x            -5.135  0.67    14 C
                                    1.33%     1 S              -6.484  1.00    33 H
                                    1.25%     1 S              -6.484  1.00    36 H
                                    1.23%     1 P:z            -5.135  0.67     6 C
                                    1.12%     1 S              -6.484  1.00    30 H
                                    1.12%     1 P:z            -5.135  0.67     4 C
                                    1.08%     2 S               2.096  0.00    32 H
                                    1.07%     3 P:y             3.335  0.00    16 S
                                   -1.04%     2 P:z             4.559  0.00     6 C
                                    1.02%     1 S              -6.484  1.00    32 H
       3.882  0.00    94 A         23.26%     1 P:x            -5.135  0.67     5 C
                                   -7.16%     2 P:x             7.772  0.00     2 N
                                    6.93%     1 P:x            -6.963  1.00     2 N
                                    6.04%     1 S              -6.484  1.00    18 H
                                    5.11%     2 S               2.096  0.00    26 H
                                   -4.99%     2 P:z             4.559  0.00    12 C
                                   -4.96%     2 P:y             4.559  0.00    12 C
                                    4.86%     2 P:x             4.559  0.00    11 C
                                    4.68%     1 P:z            -5.135  0.67    12 C
                                    4.64%     1 P:y            -5.135  0.67     5 C
                                    4.23%     1 S              -6.484  1.00    19 H
                                    3.98%     1 P:y            -5.135  0.67    15 C
                                    3.63%     2 P:y             4.559  0.00    15 C
                                    3.37%     1 S              -6.484  1.00    27 H
                                    3.35%     2 P:x             4.559  0.00     4 C
                                    3.23%     2 P:x             4.559  0.00     7 C
                                   -3.23%     2 P:z             4.559  0.00    10 C
                                    3.23%     2 P:y             4.559  0.00    13 C
                                    3.20%     1 S              -6.484  1.00    25 H
                                   -3.07%     2 S               2.096  0.00    27 H
                                   -2.99%     2 S               2.096  0.00    25 H
                                   -2.98%     2 P:z             7.772  0.00     2 N
                                    2.73%     2 P:z             4.559  0.00     9 C
                                    2.67%     3 P:z             3.335  0.00    16 S
                                    2.61%     1 S              -6.484  1.00    23 H
                                    2.59%     2 P:z             4.559  0.00     3 C
                                    2.47%     2 S               2.096  0.00    28 H
                                    2.28%     2 P:x             4.559  0.00    13 C
                                   -2.09%     2 S               2.096  0.00    23 H
                                    2.05%     1 P:y            -5.135  0.67    13 C
                                    2.05%     2 S             -18.694  2.00     2 N
                                    2.04%     2 S               2.096  0.00    22 H
                                   -1.89%     2 P:y             4.559  0.00     8 C
                                   -1.83%     2 S               2.096  0.00    18 H
                                    1.69%     1 P:y            -5.135  0.67     4 C
                                    1.69%     2 S               2.096  0.00    24 H
                                   -1.61%     3 S              14.408  0.00     2 N
                                    1.60%     1 P:z            -6.963  1.00     2 N
                                    1.60%     2 P:x             4.559  0.00     5 C
                                   -1.44%     4 S               5.590  0.00    16 S
                                    1.42%     1 P:y            -6.963  1.00     2 N
                                    1.40%     1 P:z            -5.135  0.67     4 C
                                    1.30%     2 S             -13.802  2.00     6 C
                                    1.29%     2 P:y             4.559  0.00     9 C
                                    1.29%     2 S               2.096  0.00    20 H
                                    1.27%     2 S             -13.802  2.00     5 C
                                    1.23%     1 S              -6.484  1.00    21 H
                                   -1.20%     2 S               2.096  0.00    17 H
                                   -1.18%     2 P:y             7.772  0.00     2 N
                                    1.17%     2 P:z             4.559  0.00    13 C
                                    1.14%     1 P:z            -5.135  0.67    13 C
                                    1.13%     1 S              -6.484  1.00    36 H
                                    1.04%     1 P:x            -5.135  0.67    11 C
                                   -1.04%     1 S              -6.484  1.00    26 H
       3.981  0.00    95 A         13.54%     2 P:x             4.559  0.00     9 C
                                   11.55%     2 P:y             4.559  0.00     8 C
                                    9.92%     2 P:y             4.559  0.00    10 C
                                    6.75%     2 P:y             4.559  0.00     7 C
                                    5.83%     1 P:x            -5.135  0.67     3 C
                                    5.44%     2 P:z             4.559  0.00    11 C
                                    5.11%     2 P:y             4.559  0.00     9 C
                                    4.40%     2 P:x             4.559  0.00    10 C
                                    4.03%     3 P:x             3.335  0.00    16 S
                                    4.03%     2 P:z             4.559  0.00     8 C
                                    3.78%     2 P:y             4.559  0.00    11 C
                                   -3.44%     2 P:x             4.559  0.00     7 C
                                    3.21%     2 S               2.096  0.00    17 H
                                   -3.12%     3 S              14.408  0.00     1 N
                                    3.09%     2 P:z             4.559  0.00    10 C
                                    2.61%     2 S             -18.694  2.00     1 N
                                    2.39%     2 P:x             4.559  0.00     8 C
                                   -1.92%     2 P:x             4.559  0.00    11 C
                                    1.85%     2 P:z             4.559  0.00     7 C
                                   -1.49%     2 P:x             4.559  0.00     3 C
                                    1.48%     2 S               2.096  0.00    26 H
                                   -1.44%     2 P:y             4.559  0.00    12 C
                                    1.32%     2 P:z             4.559  0.00     6 C
                                    1.30%     1 P:x            -6.963  1.00     2 N
                                   -1.29%     3 S              10.456  0.00     6 C
                                    1.13%     1 P:z            -5.135  0.67    11 C
                                    1.12%     3 P:z             3.335  0.00    16 S
                                   -1.11%     2 S               2.096  0.00    27 H
                                    1.09%     1 P:x            -5.135  0.67     5 C
                                    1.09%     1 P:y            -5.135  0.67     8 C
                                    1.07%     1 S              -6.484  1.00    27 H
                                    1.04%     1 S              -6.484  1.00    17 H

 Energy gradients wrt nuclear displacements
 ==========================================

     Atom      Cartesian (a.u./angstrom)
                 X         Y         Z
 ----------------------------------------
     1 N     0.000147 -0.000491  0.000400
     2 C     0.000090  0.000564 -0.000821
     3 S    -0.000046  0.000018 -0.000087
     4 N     0.000099  0.000025  0.000227
     5 C    -0.000015  0.000362 -0.000304
     6 H    -0.000160 -0.000134  0.000442
     7 C    -0.000019 -0.000022 -0.000090
     8 H    -0.000082 -0.000108  0.000062
     9 H    -0.000070  0.000029  0.000627
    10 H    -0.000130 -0.000115  0.000027
    11 H     0.000090 -0.000563 -0.000090
    12 H     0.000008  0.000005  0.000032
    13 H     0.000117  0.000113  0.000073
    14 C    -0.000066  0.000160 -0.000194
    15 C     0.000178  0.000198  0.000142
    16 C     0.000023  0.000008  0.000043
    17 C    -0.000014 -0.000007  0.000043
    18 C     0.000002  0.000046  0.000031
    19 C    -0.000130 -0.000165 -0.000083
    20 H    -0.000024 -0.000046  0.000010
    21 H    -0.000010 -0.000012  0.000026
    22 H     0.000016  0.000004  0.000034
    23 H     0.000028  0.000029  0.000056
    24 C     0.000031  0.000023 -0.000120
    25 C     0.000002  0.000004  0.000042
    26 H    -0.000008  0.000005 -0.000045
    27 H     0.000006 -0.000009 -0.000033
    28 H     0.000004  0.000006 -0.000030
    29 C    -0.000066  0.000050 -0.000056
    30 H     0.000035  0.000029 -0.000027
    31 H    -0.000005  0.000028 -0.000063
    32 H    -0.000008  0.000013 -0.000025
    33 C     0.000029 -0.000008 -0.000123
    34 H    -0.000057 -0.000026 -0.000038
    35 H     0.000013 -0.000024 -0.000077
    36 H    -0.000008  0.000012 -0.000011
 ----------------------------------------



 =======================================================================
 Electrostatic potential at the Nuclei due to electrons and other nuclei
 =======================================================================
  
         Atom                  Potential
         ----                  ---------
     1)   N                  18.37471933
     2)   C                  14.68785648
     3)   S                  59.66515710
     4)   N                  18.37576891
     5)   C                  14.74638466
     6)   H                   1.01905545
     7)   C                  14.75566255
     8)   H                   1.01991168
     9)   H                   1.11253980
    10)   H                   1.12055496
    11)   H                   1.11715310
    12)   H                   1.10291875
    13)   H                   1.12333234
    14)   C                  14.76901814
    15)   C                  14.78009812
    16)   C                  14.78032334
    17)   C                  14.78077090
    18)   C                  14.78060307
    19)   C                  14.78133897
    20)   H                   1.10056460
    21)   H                   1.10187832
    22)   H                   1.10220540
    23)   H                   1.10260950
    24)   C                  14.75410585
    25)   C                  14.79557448
    26)   H                   1.12055395
    27)   H                   1.12176877
    28)   H                   1.12132573
    29)   C                  14.78894991
    30)   H                   1.11500718
    31)   H                   1.11504793
    32)   H                   1.11177882
    33)   C                  14.79719408
    34)   H                   1.12334573
    35)   H                   1.12210898
    36)   H                   1.12305797
 Mulliken charges used for AMS results%charges...


    =====================
     CALCULATION RESULTS
    =====================

Energy (hartree)            -7.48022940

Gradients (hartree/bohr)
  Index   Atom            d/dx            d/dy            d/dz
      1      N    0.0000777331   -0.0002598107    0.0002117009
      2      C    0.0000474903    0.0002984656   -0.0004347109
      3      S   -0.0000244049    0.0000096448   -0.0000461032
      4      N    0.0000523582    0.0000129693    0.0001203287
      5      C   -0.0000077024    0.0001913697   -0.0001608406
      6      H   -0.0000848765   -0.0000708248    0.0002338140
      7      C   -0.0000100867   -0.0000114315   -0.0000477106
      8      H   -0.0000434879   -0.0000572586    0.0000326264
      9      H   -0.0000371253    0.0000155366    0.0003319781
     10      H   -0.0000688820   -0.0000608536    0.0000145447
     11      H    0.0000477583   -0.0002978710   -0.0000475092
     12      H    0.0000041276    0.0000028322    0.0000168696
     13      H    0.0000621201    0.0000597754    0.0000384064
     14      C   -0.0000351497    0.0000845212   -0.0001025099
     15      C    0.0000942919    0.0001049914    0.0000751146
     16      C    0.0000120571    0.0000043107    0.0000225261
     17      C   -0.0000073184   -0.0000039510    0.0000228121
     18      C    0.0000010724    0.0000243990    0.0000163170
     19      C   -0.0000689013   -0.0000870619   -0.0000441744
     20      H   -0.0000125107   -0.0000241212    0.0000051468
     21      H   -0.0000053184   -0.0000063190    0.0000137720
     22      H    0.0000083895    0.0000020116    0.0000178640
     23      H    0.0000147864    0.0000154634    0.0000296252
     24      C    0.0000166514    0.0000120489   -0.0000632838
     25      C    0.0000008664    0.0000018842    0.0000224422
     26      H   -0.0000042572    0.0000023907   -0.0000238358
     27      H    0.0000032650   -0.0000047578   -0.0000173182
     28      H    0.0000021269    0.0000031526   -0.0000159078
     29      C   -0.0000350877    0.0000262040   -0.0000297035
     30      H    0.0000184064    0.0000151816   -0.0000144241
     31      H   -0.0000024493    0.0000146494   -0.0000334277
     32      H   -0.0000042868    0.0000068358   -0.0000131443
     33      C    0.0000152261   -0.0000041821   -0.0000648852
     34      H   -0.0000299324   -0.0000138489   -0.0000201091
     35      H    0.0000071309   -0.0000124568   -0.0000405831
     36      H   -0.0000040803    0.0000061110   -0.0000057073


--------------
Atomic charges
--------------
  Index   Atom    Charge
      1      N   -0.0896
      2      C    0.2491
      3      S   -0.3367
      4      N   -0.0900
      5      C    0.5529
      6      H   -0.0685
      7      C    0.6471
      8      H   -0.0766
      9      H   -0.1821
     10      H   -0.1880
     11      H   -0.2153
     12      H   -0.2495
     13      H   -0.2186
     14      C   -0.0257
     15      C    0.2761
     16      C    0.2413
     17      C    0.2422
     18      C    0.2480
     19      C    0.2957
     20      H   -0.2577
     21      H   -0.2473
     22      H   -0.2453
     23      H   -0.2487
     24      C   -0.0328
     25      C    0.7324
     26      H   -0.2449
     27      H   -0.2386
     28      H   -0.2448
     29      C    0.7309
     30      H   -0.2398
     31      H   -0.2351
     32      H   -0.2556
     33      C    0.7350
     34      H   -0.2412
     35      H   -0.2395
     36      H   -0.2388


Dipole moment vector    (Debye):     0.28776111   -4.00167675   -2.52029359
              magnitude (Debye):     4.73794291


AMS application finished. Exiting.
NORMAL TERMINATION
     Total cpu time:    4265.41
  Total system time:     226.30
 Total elapsed time:    5281.62
