

 Parallel Execution: Process Information
 ==============================================================================
 Rank   Node Name                              NodeID   MyNodeRank  NodeMaster
    0   DESKTOP-1M8FOJT                           0          0          0
    1   DESKTOP-1M8FOJT                           0          1         -1
    2   DESKTOP-1M8FOJT                           0          2         -1
    3   DESKTOP-1M8FOJT                           0          3         -1
 ==============================================================================


May use up to 4096MB of RAM as shared memory on node 0

 *******************************************************************************
 *                                                                             *
 *  --------------------------------                                           *
 *   Amsterdam Modeling Suite (AMS)              2022.101                      *
 *  --------------------------------                                           *
 *                                               r100871 2022-01-28            *
 *                                                                             *
 *                                                                             *
 *                              =================                              *
 *                              |               |                              *
 *                              |     A M S     |                              *
 *                              |               |                              *
 *                              =================                              *
 *                                                                             *
 *                                                                             *
 *   Online information and documentation:  https://www.scm.com/support/       *
 *   E-mail:  support@scm.com   info@scm.com                                   *
 *                                                                             *
 *   Scientific publications using AMS results must be properly referenced     *
 *   See the User Manuals (or the web site) for recommended citations          *
 *   The terms and conditions of the End User License Agreement apply to       *
 *   the use of AMS, https://www.scm.com/license-terms/                        *
 *                                                                             *
 *********************  x86_64_windows_intel / intelmpi  ***********************
 
 Licensed to: Mr. Yuman Hordijk / SCM / Amsterdam / Netherlands 2022-01-24 11:07:43
 SCM User ID: u24430
  
 AMS 2022.101  RunTime: Feb01-2022 10:59:12  ShM Nodes: 1  Procs: 4

 AMS jobname: ams
 AMS jobid  : 359056203

 Start   directory: D:/Users/Yuman/Desktop/MasterProject/manual_calculations/urea/tmp..1284.0.noindex/
 Results directory: D:/Users/Yuman/Desktop/MasterProject/manual_calculations/urea/RC_O.results/
 Scratch directory: Z:/SCMTMP/amstmp_ams_kid0.359056203/


 Communication costs MPI_COMM_WORLD:      0.568 usec per message,   0.0106 usec per 8-byte item
 Communication costs for intra-node:      1.605 usec per message,   0.0074 usec per 8-byte item

 RNG seed: 1867691902 2089714577 1909031927 -1670225572 1543689011 1403556166 434270484 611634350



                      ************************************************************************
                      *  ADF 2022.101  RunTime: Feb01-2022 10:59:12  ShM Nodes: 1  Procs: 4  *
                      ************************************************************************
  
       *********************************
       * Potential Energy Surface Scan *
       *********************************
 
--------
Geometry
--------
Formula: C25H35N2O2
Atoms
  Index Symbol   x (angstrom)   y (angstrom)   z (angstrom)
      1      C    -2.16673464     0.68827045     1.27063104
      2      C    -0.93951533    -0.09389421     0.98491251
      3      C    -0.48455773    -1.16594462     1.78307313
      4      O     0.53735543    -1.81940369     1.53352419
      5      H     1.11234551    -4.30539675    -3.33922565
      6      H    -2.57431207     0.39304562     2.24721124
      7      H    -0.35537153     0.17695652     0.11371529
      8      H    -1.10408180    -1.41130368     2.66815762
      9      H     5.03874614     1.58415536     0.57482783
     10      H     4.31430876     0.20699960     1.42676959
     11      H     0.65239229    -4.23552081    -1.62748900
     12      H     4.77206740     0.05132463    -0.28005075
     13      C    -3.24634756     0.41128899     0.20070477
     14      H    -2.87650164     0.66382735    -0.79197767
     15      H     2.29165487    -3.80022625    -2.12353918
     16      H    -1.37501853    -2.08121964    -0.91659213
     17      H    -4.13062017     1.01137450     0.41311211
     18      H    -3.51802876    -0.64342073     0.21817018
     19      N     2.09340798     0.07447902    -0.12881218
     20      C     1.85720570    -0.40754878    -1.39640003
     21      O     2.17810679     0.17024123    -2.41706291
     22      N     1.16116233    -1.58132067    -1.36286357
     23      C     2.97697634     1.21149319     0.04314776
     24      H     2.00498408    -0.57682682     0.63962318
     25      C     0.83862146    -2.28953975    -2.58653216
     26      H     0.94815157    -2.00703197    -0.47097167
     27      H     3.04982245     1.70616880    -0.93406425
     28      C     1.24065173    -3.75487625    -2.40884971
     29      C     4.37099185     0.72964549     0.47180040
     30      H     3.01227099     3.91474519    -0.04829251
     31      H     1.45538496    -1.84249118    -3.37915364
     32      C     2.42091311     2.17710791     1.06846616
     33      C     1.82119286     1.72232953     2.24004795
     34      C     1.34578203     2.62406583     3.18137462
     35      C     1.47583512     3.98918913     2.96841568
     36      C     2.07834227     4.44954175     1.80566444
     37      C     2.54689011     3.54810017     0.86046002
     38      H     1.71949473     0.65912523     2.42482334
     39      H     0.87373060     2.25750137     4.08643752
     40      H     1.10617820     4.69334907     3.70521101
     41      H     2.18017655     5.51504344     1.63149781
     42      C    -0.65280881    -2.06291791    -2.96517015
     43      C    -0.96580236    -2.78293687    -4.28512174
     44      H    -1.96993401    -2.52076173    -4.62073757
     45      H    -0.92169312    -3.86513470    -4.16371424
     46      H    -0.25568990    -2.48761991    -5.05818249
     47      C    -0.87273245    -0.55463210    -3.16347047
     48      H    -0.16582028    -0.15919200    -3.89267301
     49      H    -1.88714202    -0.36347414    -3.51544637
     50      H    -0.72813306    -0.02201121    -2.22389893
     51      C    -1.59901147    -2.56781176    -1.86682189
     52      H    -1.51115256    -3.64633392    -1.73513252
     53      H    -2.63164925    -2.33928619    -2.13329619
     54      C    -1.85066701     2.17852144     1.29247611
     55      C    -1.27556348     2.80744318     0.19120591
     56      C    -1.01924490     4.17029034     0.22010467
     57      C    -1.33658372     4.91688153     1.34660799
     58      C    -1.90504291     4.29285293     2.44759869
     59      C    -2.15700502     2.92785290     2.42318558
     60      H    -1.02380047     2.23804495    -0.69634427
     61      H    -0.56811465     4.65016434    -0.64103863
     62      H    -1.13630020     5.98197027     1.36736664
     63      H    -2.15360687     4.86884056     3.33194383
     64      H    -2.59942831     2.44760670     3.28956063
 
Total System Charge             0.00000
Bonding info available!
 
Total number of PES points: 10

====> Coordinate 1
Number of sample points: 10
Description: Distance C(1)--C(13)
Range:     1.5450    2.5000 Angstrom

Optimization Method                    Quasi Newton
Optimization Coordinates               Delocalized Coordinates
Optimize lattice                       F
 
 ------------------------------------------------------
 Convergence criteria (Hartree,Angstrom)
 ------------------------------------------------------
 Maximum gradient               0.001000000000
 Maximum rms gradient           0.000666666667
 Maximum step allowed           0.010000000000
 Maximum rms step allowed       0.006666666667
 Maximum energy change allowe   0.000640000000
 Maximum stress energy allowe   0.000500000000
 
Initial model Hessian                  Automatic Hessian
 
------------------------------------
Quasi-Newton Optimizer Parameters
------------------------------------
Hessian Update Method                  BFGS
Maximum number of steps                  384
First GDIIS cycle                          0
Maximum GDIIS vectors                      0
Trust radius (bohr)                        0.200000
Trust radius varies                        T
Constraints converged at all steps         T
Use projector                              T
 
 Rigid motions settings for: old optimizer
 Atomic rotations (x,y,z):     T T T
 Atomic translations (x,y,z):  T T T
 Tolerance:                   1.000000000000000E-006
 
----------------
ADF Engine Input
----------------
 
 Basis
 Type DZP
 Core Small
 End
 SpinPolarization 1
 XC
 GGA OLYP
 End
 Unrestricted Yes
 

 Title: *** (NO TITLE) ***

 *** InputSystem ***



 ===========================
 A T T A C H E D   F I L E S
 ===========================
  



 ===============================
 M O D E L   P A R A M E T E R S
 ===============================
  
 DENSITY FUNCTIONAL POTENTIAL (scf)
    LDA:                               Exchange only                           == Not Default ==
    Gradient Corrections:              OPTX LYP                                == Not Default ==

 SPIN  (restricted / unrestr.)
    Molecule:                          UNrestricted                            == Not Default ==
    Fragments:                         Restricted                               

 OTHER ASPECTS
    Relativistic Corrections:          scalar (ZORA,MAPA)                       

    Nuclear Charge Density Model:      Point Charge Nuclei                      
    Core Treatment:                    Frozen Orbital(s)                        

    Hyperfine or Zeeman Interaction:   ---                                      


 Fragment File(s)
 ----------------
 C:
         file : D:/Users/Yuman/Desktop/MasterProject/manual_calculations/urea/RC_O.results/t21.5434214C.C
         jobid: 0
         title: Carbon (DZP, 1s frozen)
 O:
         file : D:/Users/Yuman/Desktop/MasterProject/manual_calculations/urea/RC_O.results/t21.251CEB09.O
         jobid: 0
         title: Oxygen (DZP, 1s frozen)
 H:
         file : D:/Users/Yuman/Desktop/MasterProject/manual_calculations/urea/RC_O.results/t21.2ECA8480.H
         jobid: 0
         title: Hydrogen (DZP)
 N:
         file : D:/Users/Yuman/Desktop/MasterProject/manual_calculations/urea/RC_O.results/t21.5D193406.N
         jobid: 0
         title: Nitrogen (DZP, 1s frozen)



 ===============
 G E O M E T R Y  ***  3D  Molecule  ***
 ===============
  

 ATOMS
 =====                            X Y Z                    CHARGE
                                (Angstrom)             Nucl     +Core       At.Mass
                       --------------------------    ----------------       -------
    1  C              -2.1667    0.6883    1.2706      6.00      4.00       12.0000
    2  C              -0.9395   -0.0939    0.9849      6.00      4.00       12.0000
    3  C              -0.4846   -1.1659    1.7831      6.00      4.00       12.0000
    4  O               0.5374   -1.8194    1.5335      8.00      6.00       15.9949
    5  H               1.1123   -4.3054   -3.3392      1.00      1.00        1.0078
    6  H              -2.5743    0.3930    2.2472      1.00      1.00        1.0078
    7  H              -0.3554    0.1770    0.1137      1.00      1.00        1.0078
    8  H              -1.1041   -1.4113    2.6682      1.00      1.00        1.0078
    9  H               5.0387    1.5842    0.5748      1.00      1.00        1.0078
   10  H               4.3143    0.2070    1.4268      1.00      1.00        1.0078
   11  H               0.6524   -4.2355   -1.6275      1.00      1.00        1.0078
   12  H               4.7721    0.0513   -0.2801      1.00      1.00        1.0078
   13  C              -3.2463    0.4113    0.2007      6.00      4.00       12.0000
   14  H              -2.8765    0.6638   -0.7920      1.00      1.00        1.0078
   15  H               2.2917   -3.8002   -2.1235      1.00      1.00        1.0078
   16  H              -1.3750   -2.0812   -0.9166      1.00      1.00        1.0078
   17  H              -4.1306    1.0114    0.4131      1.00      1.00        1.0078
   18  H              -3.5180   -0.6434    0.2182      1.00      1.00        1.0078
   19  N               2.0934    0.0745   -0.1288      7.00      5.00       14.0031
   20  C               1.8572   -0.4075   -1.3964      6.00      4.00       12.0000
   21  O               2.1781    0.1702   -2.4171      8.00      6.00       15.9949
   22  N               1.1612   -1.5813   -1.3629      7.00      5.00       14.0031
   23  C               2.9770    1.2115    0.0431      6.00      4.00       12.0000
   24  H               2.0050   -0.5768    0.6396      1.00      1.00        1.0078
   25  C               0.8386   -2.2895   -2.5865      6.00      4.00       12.0000
   26  H               0.9482   -2.0070   -0.4710      1.00      1.00        1.0078
   27  H               3.0498    1.7062   -0.9341      1.00      1.00        1.0078
   28  C               1.2407   -3.7549   -2.4088      6.00      4.00       12.0000
   29  C               4.3710    0.7296    0.4718      6.00      4.00       12.0000
   30  H               3.0123    3.9147   -0.0483      1.00      1.00        1.0078
   31  H               1.4554   -1.8425   -3.3792      1.00      1.00        1.0078
   32  C               2.4209    2.1771    1.0685      6.00      4.00       12.0000
   33  C               1.8212    1.7223    2.2400      6.00      4.00       12.0000
   34  C               1.3458    2.6241    3.1814      6.00      4.00       12.0000
   35  C               1.4758    3.9892    2.9684      6.00      4.00       12.0000
   36  C               2.0783    4.4495    1.8057      6.00      4.00       12.0000
   37  C               2.5469    3.5481    0.8605      6.00      4.00       12.0000
   38  H               1.7195    0.6591    2.4248      1.00      1.00        1.0078
   39  H               0.8737    2.2575    4.0864      1.00      1.00        1.0078
   40  H               1.1062    4.6933    3.7052      1.00      1.00        1.0078
   41  H               2.1802    5.5150    1.6315      1.00      1.00        1.0078
   42  C              -0.6528   -2.0629   -2.9652      6.00      4.00       12.0000
   43  C              -0.9658   -2.7829   -4.2851      6.00      4.00       12.0000
   44  H              -1.9699   -2.5208   -4.6207      1.00      1.00        1.0078
   45  H              -0.9217   -3.8651   -4.1637      1.00      1.00        1.0078
   46  H              -0.2557   -2.4876   -5.0582      1.00      1.00        1.0078
   47  C              -0.8727   -0.5546   -3.1635      6.00      4.00       12.0000
   48  H              -0.1658   -0.1592   -3.8927      1.00      1.00        1.0078
   49  H              -1.8871   -0.3635   -3.5154      1.00      1.00        1.0078
   50  H              -0.7281   -0.0220   -2.2239      1.00      1.00        1.0078
   51  C              -1.5990   -2.5678   -1.8668      6.00      4.00       12.0000
   52  H              -1.5112   -3.6463   -1.7351      1.00      1.00        1.0078
   53  H              -2.6316   -2.3393   -2.1333      1.00      1.00        1.0078
   54  C              -1.8507    2.1785    1.2925      6.00      4.00       12.0000
   55  C              -1.2756    2.8074    0.1912      6.00      4.00       12.0000
   56  C              -1.0192    4.1703    0.2201      6.00      4.00       12.0000
   57  C              -1.3366    4.9169    1.3466      6.00      4.00       12.0000
   58  C              -1.9050    4.2929    2.4476      6.00      4.00       12.0000
   59  C              -2.1570    2.9279    2.4232      6.00      4.00       12.0000
   60  H              -1.0238    2.2380   -0.6963      1.00      1.00        1.0078
   61  H              -0.5681    4.6502   -0.6410      1.00      1.00        1.0078
   62  H              -1.1363    5.9820    1.3674      1.00      1.00        1.0078
   63  H              -2.1536    4.8688    3.3319      1.00      1.00        1.0078
   64  H              -2.5994    2.4476    3.2896      1.00      1.00        1.0078


 FRAGMENTS
 =========                                     Atoms in this Fragment     Cart. coord.s (Angstrom)
                                               -------------------------------------------------------
    1  C                                                 1  C           -2.1667    0.6883    1.2706
    2  C                                                 2  C           -0.9395   -0.0939    0.9849
    3  C                                                 3  C           -0.4846   -1.1659    1.7831
    4  C                                                13  C           -3.2463    0.4113    0.2007
    5  C                                                20  C            1.8572   -0.4075   -1.3964
    6  C                                                23  C            2.9770    1.2115    0.0431
    7  C                                                25  C            0.8386   -2.2895   -2.5865
    8  C                                                28  C            1.2407   -3.7549   -2.4088
    9  C                                                29  C            4.3710    0.7296    0.4718
   10  C                                                32  C            2.4209    2.1771    1.0685
   11  C                                                33  C            1.8212    1.7223    2.2400
   12  C                                                34  C            1.3458    2.6241    3.1814
   13  C                                                35  C            1.4758    3.9892    2.9684
   14  C                                                36  C            2.0783    4.4495    1.8057
   15  C                                                37  C            2.5469    3.5481    0.8605
   16  C                                                42  C           -0.6528   -2.0629   -2.9652
   17  C                                                43  C           -0.9658   -2.7829   -4.2851
   18  C                                                47  C           -0.8727   -0.5546   -3.1635
   19  C                                                51  C           -1.5990   -2.5678   -1.8668
   20  C                                                54  C           -1.8507    2.1785    1.2925
   21  C                                                55  C           -1.2756    2.8074    0.1912
   22  C                                                56  C           -1.0192    4.1703    0.2201
   23  C                                                57  C           -1.3366    4.9169    1.3466
   24  C                                                58  C           -1.9050    4.2929    2.4476
   25  C                                                59  C           -2.1570    2.9279    2.4232
   26  O                                                 4  O            0.5374   -1.8194    1.5335
   27  O                                                21  O            2.1781    0.1702   -2.4171
   28  H                                                 5  H            1.1123   -4.3054   -3.3392
   29  H                                                 6  H           -2.5743    0.3930    2.2472
   30  H                                                 7  H           -0.3554    0.1770    0.1137
   31  H                                                 8  H           -1.1041   -1.4113    2.6682
   32  H                                                 9  H            5.0387    1.5842    0.5748
   33  H                                                10  H            4.3143    0.2070    1.4268
   34  H                                                11  H            0.6524   -4.2355   -1.6275
   35  H                                                12  H            4.7721    0.0513   -0.2801
   36  H                                                14  H           -2.8765    0.6638   -0.7920
   37  H                                                15  H            2.2917   -3.8002   -2.1235
   38  H                                                16  H           -1.3750   -2.0812   -0.9166
   39  H                                                17  H           -4.1306    1.0114    0.4131
   40  H                                                18  H           -3.5180   -0.6434    0.2182
   41  H                                                24  H            2.0050   -0.5768    0.6396
   42  H                                                26  H            0.9482   -2.0070   -0.4710
   43  H                                                27  H            3.0498    1.7062   -0.9341
   44  H                                                30  H            3.0123    3.9147   -0.0483
   45  H                                                31  H            1.4554   -1.8425   -3.3792
   46  H                                                38  H            1.7195    0.6591    2.4248
   47  H                                                39  H            0.8737    2.2575    4.0864
   48  H                                                40  H            1.1062    4.6933    3.7052
   49  H                                                41  H            2.1802    5.5150    1.6315
   50  H                                                44  H           -1.9699   -2.5208   -4.6207
   51  H                                                45  H           -0.9217   -3.8651   -4.1637
   52  H                                                46  H           -0.2557   -2.4876   -5.0582
   53  H                                                48  H           -0.1658   -0.1592   -3.8927
   54  H                                                49  H           -1.8871   -0.3635   -3.5154
   55  H                                                50  H           -0.7281   -0.0220   -2.2239
   56  H                                                52  H           -1.5112   -3.6463   -1.7351
   57  H                                                53  H           -2.6316   -2.3393   -2.1333
   58  H                                                60  H           -1.0238    2.2380   -0.6963
   59  H                                                61  H           -0.5681    4.6502   -0.6410
   60  H                                                62  H           -1.1363    5.9820    1.3674
   61  H                                                63  H           -2.1536    4.8688    3.3319
   62  H                                                64  H           -2.5994    2.4476    3.2896
   63  N                                                19  N            2.0934    0.0745   -0.1288
   64  N                                                22  N            1.1612   -1.5813   -1.3629



 =====================================
 S Y M M E T R Y ,   E L E C T R O N S
 =====================================
  
 Symmetry: NOSYM

 Irreducible Representations, including subspecies
 -------------------------------------------------
 A


 Configuration of Valence Electrons
 ==================================
 ( determined in the SCF procedure )

 Total:   79 (Spin-A)  + 78 (Spin-B)

 Net Charge: 0 (Nuclei minus Electrons)
 Spin polar: 1 (Spin_A minus Spin_B electrons)

 Aufbau principle for MO occupations will be applied through SCF cycle no.     150
 Thereafter, the program will assign electrons to MOs that are spatially
 similar to the occupied MOs in a "reference" cycle ("KeepOrbitals").
 The reference cycle is always the PREVIOUS cycle: it will evolve with
 the SCF procedure.
1
 ***************************************************************************************************



                                      ****************************************
                                      *  B U I L D : (Fragments, Functions)  *
                                      ****************************************
  

 Total nr. of (C)SFOs (summation over all irreps) :   552

 Specify PRINT SFO in the input file to get a full list

 Nr. of SFOs for ir.rep.           A :   552



 ================================
 (Slater-type)  F U N C T I O N S  ***  (Basis and Fit)  ***
 ================================
  

 Atom Type    1  (C)
 ==============

 Valence Basis Sets:   6
 -----------------------
   1 S    5.400000
   2 S    1.240000
   2 S    1.980000
   2 P    0.960000
   2 P    2.200000
   3 D    2.200000

 Frozen Core Shells
 ------------------
    S:  1

 Atom Type    2  (O)
 ==============

 Valence Basis Sets:   6
 -----------------------
   1 S    7.360000
   2 S    1.700000
   2 S    2.820000
   2 P    1.300000
   2 P    3.060000
   3 D    2.000000

 Frozen Core Shells
 ------------------
    S:  1

 Atom Type    3  (H)
 ==============

 Valence Basis Sets:   3
 -----------------------
   1 S    0.760000
   1 S    1.280000
   2 P    1.250000

 Atom Type    4  (N)
 ==============

 Valence Basis Sets:   6
 -----------------------
   1 S    6.380000
   2 S    1.460000
   2 S    2.380000
   2 P    1.120000
   2 P    2.580000
   3 D    2.200000

 Frozen Core Shells
 ------------------
    S:  1


 BAS: List of all Elementary Cartesian Basis Functions
 =====================================================

 The numbering in the list below (to the right of the function characteristics) is referred
 to in print-outs of MO eigenvectors and Mulliken populations in the BAS representation
 (as contrasted to the SFO representation).

 Notes:
 1. The functions are characterized by a polynomial prefactor (powers of x,y,z and r) and
    an exponential decay factor alpha.
 2. Since the basis sets are specific for an atom TYPE, the individual functions occur on
    all atoms of that type.
 3. The word 'Core' in the left margin signals that it is a Core Function (CF) : not a
    degree of freedom in the valence set, but only used to ensure orthogonalization of
    the other valence basis functions on the frozen Core Orbitals.


 (power of) X  Y  Z  R     Alpha  on Atom
            ==========     =====     ==========

 C                                    1    2    3    4    5    6    7    8    9   10   11   12   13   14   15
                                     16   17   18   19   20   21   22   23   24   25
                                  ---------------------------------------------------------------------------
    Core    0  0  0  0     5.400      1   16   31   46   61   76   91  106  121  136  151  166  181  196  211
                                    226  241  256  271  286  301  316  331  346  361
            0  0  0  1     1.240      2   17   32   47   62   77   92  107  122  137  152  167  182  197  212
                                    227  242  257  272  287  302  317  332  347  362
            0  0  0  1     1.980      3   18   33   48   63   78   93  108  123  138  153  168  183  198  213
                                    228  243  258  273  288  303  318  333  348  363
            1  0  0  0     0.960      4   19   34   49   64   79   94  109  124  139  154  169  184  199  214
                                    229  244  259  274  289  304  319  334  349  364
            0  1  0  0     0.960      5   20   35   50   65   80   95  110  125  140  155  170  185  200  215
                                    230  245  260  275  290  305  320  335  350  365
            0  0  1  0     0.960      6   21   36   51   66   81   96  111  126  141  156  171  186  201  216
                                    231  246  261  276  291  306  321  336  351  366
            1  0  0  0     2.200      7   22   37   52   67   82   97  112  127  142  157  172  187  202  217
                                    232  247  262  277  292  307  322  337  352  367
            0  1  0  0     2.200      8   23   38   53   68   83   98  113  128  143  158  173  188  203  218
                                    233  248  263  278  293  308  323  338  353  368
            0  0  1  0     2.200      9   24   39   54   69   84   99  114  129  144  159  174  189  204  219
                                    234  249  264  279  294  309  324  339  354  369
            2  0  0  0     2.200     10   25   40   55   70   85  100  115  130  145  160  175  190  205  220
                                    235  250  265  280  295  310  325  340  355  370
            1  1  0  0     2.200     11   26   41   56   71   86  101  116  131  146  161  176  191  206  221
                                    236  251  266  281  296  311  326  341  356  371
            1  0  1  0     2.200     12   27   42   57   72   87  102  117  132  147  162  177  192  207  222
                                    237  252  267  282  297  312  327  342  357  372
            0  2  0  0     2.200     13   28   43   58   73   88  103  118  133  148  163  178  193  208  223
                                    238  253  268  283  298  313  328  343  358  373
            0  1  1  0     2.200     14   29   44   59   74   89  104  119  134  149  164  179  194  209  224
                                    239  254  269  284  299  314  329  344  359  374
            0  0  2  0     2.200     15   30   45   60   75   90  105  120  135  150  165  180  195  210  225
                                    240  255  270  285  300  315  330  345  360  375

 O                                   26   27
                                  ---------------------------------------------------------------------------
    Core    0  0  0  0     7.360    376  391
            0  0  0  1     1.700    377  392
            0  0  0  1     2.820    378  393
            1  0  0  0     1.300    379  394
            0  1  0  0     1.300    380  395
            0  0  1  0     1.300    381  396
            1  0  0  0     3.060    382  397
            0  1  0  0     3.060    383  398
            0  0  1  0     3.060    384  399
            2  0  0  0     2.000    385  400
            1  1  0  0     2.000    386  401
            1  0  1  0     2.000    387  402
            0  2  0  0     2.000    388  403
            0  1  1  0     2.000    389  404
            0  0  2  0     2.000    390  405

 H                                   28   29   30   31   32   33   34   35   36   37   38   39   40   41   42
                                     43   44   45   46   47   48   49   50   51   52   53   54   55   56   57
                                     58   59   60   61   62
                                  ---------------------------------------------------------------------------
            0  0  0  0     0.760    406  411  416  421  426  431  436  441  446  451  456  461  466  471  476
                                    481  486  491  496  501  506  511  516  521  526  531  536  541  546  551
                                    556  561  566  571  576
            0  0  0  0     1.280    407  412  417  422  427  432  437  442  447  452  457  462  467  472  477
                                    482  487  492  497  502  507  512  517  522  527  532  537  542  547  552
                                    557  562  567  572  577
            1  0  0  0     1.250    408  413  418  423  428  433  438  443  448  453  458  463  468  473  478
                                    483  488  493  498  503  508  513  518  523  528  533  538  543  548  553
                                    558  563  568  573  578
            0  1  0  0     1.250    409  414  419  424  429  434  439  444  449  454  459  464  469  474  479
                                    484  489  494  499  504  509  514  519  524  529  534  539  544  549  554
                                    559  564  569  574  579
            0  0  1  0     1.250    410  415  420  425  430  435  440  445  450  455  460  465  470  475  480
                                    485  490  495  500  505  510  515  520  525  530  535  540  545  550  555
                                    560  565  570  575  580

 N                                   63   64
                                  ---------------------------------------------------------------------------
    Core    0  0  0  0     6.380    581  596
            0  0  0  1     1.460    582  597
            0  0  0  1     2.380    583  598
            1  0  0  0     1.120    584  599
            0  1  0  0     1.120    585  600
            0  0  1  0     1.120    586  601
            1  0  0  0     2.580    587  602
            0  1  0  0     2.580    588  603
            0  0  1  0     2.580    589  604
            2  0  0  0     2.200    590  605
            1  1  0  0     2.200    591  606
            1  0  1  0     2.200    592  607
            0  2  0  0     2.200    593  608
            0  1  1  0     2.200    594  609
            0  0  2  0     2.200    595  610

 Total number of charge fitting functions (nprimf)      4128
 Total number of Cartesian basis functions (naos)        610
 Total number of Cartesian core functions  (ncos)         29

1
 ***************************************************************************************************



                                              ***********************
                                              *  T E C H N I C A L  *
                                              ***********************
  



 =============================================================
 P A R A L L E L I Z A T I O N  and  V E C T O R I Z A T I O N
 =============================================================
  
 Nr of parallel processes:                                4
 Maximum vector length in NumInt loops:                 128



 =====================
 S C F   U P D A T E S
 =====================
  
 Max. nr. of cycles:                               300
 Convergence criterion:                              0.0000010000
   secondary criterion:                              0.0010000000

 Mix parameter (when DIIS does not apply):           0.2000000000
 Mixed ADIIS+SDIIS will be used                  
    Max number of expansion vectors:                10
    Pure ADIIS when Max([F,P]) is above              0.1000000000
    Pure SDIIS when Max([F,P]) is below              0.0010000000
 Automatic ElectronSmearing (in case of problematic SCF convergence) disabled



 =================
 P R E C I S I O N  ***  (General: NumInt, NeglectFunctionTails, ...)  ***
 =================
  

 NumInt:           Target precision:                 4.0000000000
 -------           Initial precision:                4.0000000000
                   Min. precision (optimization):    4.0000000000

 Neglect Functions:          Basis functions:        0.1000000000E-05
 ------------------          Fit functions:          0.1000000000E-05



 ===========================
 L I N E A R   S C A L I N G
 ===========================
  

 Cut-off radii density fit:                        0.1000000000E-07
 Overlap cut-off criterion AO matrix elements:     0.1000000000E-05
 Cut-offs for Coulomb potential and fitted density:0.1000000000E-07
 Cut-off criterion for Coulomb multipole terms:    0.1000000000E-07
 Progressive Convergence parameter:                 0.000000000    
1
 ***************************************************************************************************



                                            ***************************
                                            *  C O M P U T A T I O N  *
                                            ***************************
  

 Number of elements of the density matrix on this node (used, total):     46760    186355



 ===========================================
 Numerical Integration : Fuzzy Cells (Becke)
 ===========================================
  
 Becke grid quality: NORMAL         
  
 Lebedev angular grid order:             min:  11 max:  23
 Nr. of radial points:                   min:  46 max:  49

 Total nr. of points:     384813
 Nr. of blocks:             3007
 Block length:               128
 Nr. of dummy points:         83


 Test of Precision of the Numerical Integration Grid
 ===================================================

 Integral of the Total Core Density:                  57.99999323488738
 Relative Error:                                      -1.166E-07



 ========================
 Density Fitting (zlmFit)
 ========================
  
 ZlmFit Fit Quality: NORMAL         
  
 Max L-expansion:                        min:   5 max:   6
 Nr. of radial interpolation points:     min:  36 max:  45



 =====
 S C F  ***  ScaSCF  ***
 =====
  
 Initial density matrix is calculated as sum of fragments

 CYCLE    1
 SCF Error: norm([F,P])=      3.921090647519, max([F,P])=      0.101994424400
 ***** SPIN 1 *****
 orbitals (Q,E):
 ---------------
 A :70...89          ( 1.00    -0.4930)  ( 1.00    -0.4420)  ( 1.00    -0.4259)  ( 1.00    -0.4231)
                     ( 1.00    -0.4215)  ( 1.00    -0.4140)  ( 1.00    -0.4117)  ( 1.00    -0.4045)
                     ( 1.00    -0.3998)  ( 1.00    -0.3529)  ( 0.00    -0.2329)  ( 0.00    -0.2310)
                     ( 0.00    -0.2232)  ( 0.00    -0.2208)  ( 0.00    -0.1659)  ( 0.00    -0.1414)
                     ( 0.00    -0.0915)  ( 0.00    -0.0892)  ( 0.00    -0.0859)  ( 0.00    -0.0775)
 ***** SPIN 2 *****
 orbitals (Q,E):
 ---------------
 A :69...88          ( 1.00    -0.4999)  ( 1.00    -0.4930)  ( 1.00    -0.4420)  ( 1.00    -0.4259)
                     ( 1.00    -0.4231)  ( 1.00    -0.4215)  ( 1.00    -0.4140)  ( 1.00    -0.4117)
                     ( 1.00    -0.4045)  ( 1.00    -0.3998)  ( 0.00    -0.3529)  ( 0.00    -0.2329)
                     ( 0.00    -0.2310)  ( 0.00    -0.2232)  ( 0.00    -0.2208)  ( 0.00    -0.1659)
                     ( 0.00    -0.1414)  ( 0.00    -0.0915)  ( 0.00    -0.0892)  ( 0.00    -0.0859)
  
 Spin polar: 1 (Spin_A minus Spin_B electrons)

 CYCLE    2
  SDIIS (wt  0.000):  0.3037  0.6963
 A-DIIS (wt  1.000):  0.0000  1.0000
  DIIS coefficients:  0.0000  1.0000
 SCF Error: norm([F,P])=      2.213905548361, max([F,P])=      0.136622168483
 ***** SPIN 1 *****
 orbitals (Q,E):
 ---------------
 A :70...80          ( 1.00    -0.1058)  ( 1.00    -0.0875)  ( 1.00    -0.0858)  ( 1.00    -0.0777)
                     ( 1.00    -0.0743)  ( 1.00    -0.0619)  ( 1.00    -0.0495)  ( 1.00    -0.0360)
                     ( 1.00    -0.0204)  ( 1.00    -0.0061)  ( 0.00     0.0349)
 ***** SPIN 2 *****
 orbitals (Q,E):
 ---------------
 A :69...79          ( 1.00    -0.1076)  ( 1.00    -0.0893)  ( 1.00    -0.0873)  ( 1.00    -0.0798)
                     ( 1.00    -0.0743)  ( 1.00    -0.0659)  ( 1.00    -0.0610)  ( 1.00    -0.0493)
                     ( 1.00    -0.0355)  ( 1.00    -0.0202)  ( 0.00    -0.0057)
  
 Spin polar: 1 (Spin_A minus Spin_B electrons)

 CYCLE    3
  SDIIS (wt  0.000):  0.0677  0.5979  0.3344
 A-DIIS (wt  1.000):  0.0000  0.7098  0.2902
  DIIS coefficients:  0.0000  0.7098  0.2902
 SCF Error: norm([F,P])=      3.599593699612, max([F,P])=      0.305658862350
 ***** SPIN 1 *****
 orbitals (Q,E):
 ---------------
 A :70...80          ( 1.00    -0.2603)  ( 1.00    -0.2526)  ( 1.00    -0.2401)  ( 1.00    -0.2043)
                     ( 1.00    -0.2006)  ( 1.00    -0.1864)  ( 1.00    -0.1806)  ( 1.00    -0.1786)
                     ( 1.00    -0.1486)  ( 1.00    -0.1270)  ( 0.00    -0.0153)
 ***** SPIN 2 *****
 orbitals (Q,E):
 ---------------
 A :69...79          ( 1.00    -0.2609)  ( 1.00    -0.2596)  ( 1.00    -0.2498)  ( 1.00    -0.2376)
                     ( 1.00    -0.2042)  ( 1.00    -0.2002)  ( 1.00    -0.1862)  ( 1.00    -0.1799)
                     ( 1.00    -0.1777)  ( 1.00    -0.1433)  ( 0.00    -0.0940)
  
 Spin polar: 1 (Spin_A minus Spin_B electrons)

 CYCLE    4
  SDIIS (wt  0.120):  0.4191  0.1959  0.3849
 A-DIIS (wt  0.880):  0.1301  0.0000  0.8699
  DIIS coefficients:  0.1647  0.0234  0.8119
 SCF Error: norm([F,P])=      1.068757009371, max([F,P])=      0.088162851970
 ***** SPIN 1 *****
 orbitals (Q,E):
 ---------------
 A :70...80          ( 1.00    -0.2982)  ( 1.00    -0.2930)  ( 1.00    -0.2802)  ( 1.00    -0.2727)
                     ( 1.00    -0.2621)  ( 1.00    -0.2550)  ( 1.00    -0.2356)  ( 1.00    -0.1946)
                     ( 1.00    -0.1373)  ( 1.00    -0.1313)  ( 0.00    -0.0857)
 ***** SPIN 2 *****
 orbitals (Q,E):
 ---------------
 A :69...79          ( 1.00    -0.2982)  ( 1.00    -0.2933)  ( 1.00    -0.2846)  ( 1.00    -0.2747)
                     ( 1.00    -0.2695)  ( 1.00    -0.2618)  ( 1.00    -0.2549)  ( 1.00    -0.2353)
                     ( 1.00    -0.1939)  ( 1.00    -0.1309)  ( 0.00    -0.1103)
  
 Spin polar: 1 (Spin_A minus Spin_B electrons)

 CYCLE    5
  SDIIS (wt  0.000):  0.2924  0.0943  0.5107  0.1026
 A-DIIS (wt  1.000):  0.0323  0.0000  0.8277  0.1400
  DIIS coefficients:  0.0323  0.0000  0.8277  0.1400
 SCF Error: norm([F,P])=      2.867094786447, max([F,P])=      0.391747273823
 ***** SPIN 1 *****
 orbitals (Q,E):
 ---------------
 A :70...80          ( 1.00    -0.3207)  ( 1.00    -0.2846)  ( 1.00    -0.2787)  ( 1.00    -0.2720)
                     ( 1.00    -0.2667)  ( 1.00    -0.2624)  ( 1.00    -0.2597)  ( 1.00    -0.2509)
                     ( 1.00    -0.2484)  ( 1.00    -0.2403)  ( 0.00    -0.0887)
 ***** SPIN 2 *****
 orbitals (Q,E):
 ---------------
 A :69...79          ( 1.00    -0.3244)  ( 1.00    -0.3206)  ( 1.00    -0.2836)  ( 1.00    -0.2777)
                     ( 1.00    -0.2670)  ( 1.00    -0.2653)  ( 1.00    -0.2616)  ( 1.00    -0.2572)
                     ( 1.00    -0.2483)  ( 1.00    -0.2389)  ( 0.00    -0.2075)
  
 Spin polar: 1 (Spin_A minus Spin_B electrons)

 CYCLE    6
  SDIIS (wt  0.555):  0.0471  0.0576  0.3739  0.0279  0.4936
 A-DIIS (wt  0.445):  0.0000  0.0000  0.3635  0.0000  0.6365
  DIIS coefficients:  0.0261  0.0319  0.3693  0.0155  0.5573
 SCF Error: norm([F,P])=      0.796119209594, max([F,P])=      0.045102621890
 ***** SPIN 1 *****
 orbitals (Q,E):
 ---------------
 A :70...80          ( 1.00    -0.2766)  ( 1.00    -0.2526)  ( 1.00    -0.2458)  ( 1.00    -0.2435)
                     ( 1.00    -0.2340)  ( 1.00    -0.2265)  ( 1.00    -0.2197)  ( 1.00    -0.2042)
                     ( 1.00    -0.1962)  ( 1.00    -0.1818)  ( 0.00    -0.0652)
 ***** SPIN 2 *****
 orbitals (Q,E):
 ---------------
 A :69...79          ( 1.00    -0.2818)  ( 1.00    -0.2765)  ( 1.00    -0.2468)  ( 1.00    -0.2441)
                     ( 1.00    -0.2394)  ( 1.00    -0.2264)  ( 1.00    -0.2195)  ( 1.00    -0.2031)
                     ( 1.00    -0.1944)  ( 1.00    -0.1914)  ( 0.00    -0.1806)
  
 Spin polar: 1 (Spin_A minus Spin_B electrons)

 CYCLE    7
  SDIIS (wt  0.555): -0.0012  0.0344  0.2987  0.0055  0.5057  0.1570
 A-DIIS (wt  0.445):  0.0000  0.0000  0.2370  0.0000  0.4753  0.2877
  DIIS coefficients: -0.0006  0.0191  0.2712  0.0030  0.4921  0.2152
 SCF Error: norm([F,P])=      0.693774926702, max([F,P])=      0.056668071280
 ***** SPIN 1 *****
 orbitals (Q,E):
 ---------------
 A :70...80          ( 1.00    -0.2860)  ( 1.00    -0.2413)  ( 1.00    -0.2386)  ( 1.00    -0.2326)
                     ( 1.00    -0.2256)  ( 1.00    -0.2240)  ( 1.00    -0.2206)  ( 1.00    -0.2199)
                     ( 1.00    -0.2126)  ( 1.00    -0.1924)  ( 0.00    -0.0506)
 ***** SPIN 2 *****
 orbitals (Q,E):
 ---------------
 A :69...79          ( 1.00    -0.2909)  ( 1.00    -0.2858)  ( 1.00    -0.2410)  ( 1.00    -0.2378)
                     ( 1.00    -0.2289)  ( 1.00    -0.2243)  ( 1.00    -0.2201)  ( 1.00    -0.2183)
                     ( 1.00    -0.2161)  ( 1.00    -0.2067)  ( 0.00    -0.1549)
  
 Spin polar: 1 (Spin_A minus Spin_B electrons)

 CYCLE    8
  SDIIS (wt  0.742): -0.0018  0.0112  0.1764 -0.0013  0.3147  0.1902  0.3107
 A-DIIS (wt  0.258):  0.0000  0.0000  0.0000  0.0000  0.0000  0.1564  0.8436
  DIIS coefficients: -0.0014  0.0083  0.1309 -0.0010  0.2335  0.1815  0.4481
 SCF Error: norm([F,P])=      0.279264720280, max([F,P])=      0.026533306082
 ***** SPIN 1 *****
 orbitals (Q,E):
 ---------------
 A :70...80          ( 1.00    -0.2854)  ( 1.00    -0.2470)  ( 1.00    -0.2437)  ( 1.00    -0.2358)
                     ( 1.00    -0.2313)  ( 1.00    -0.2285)  ( 1.00    -0.2234)  ( 1.00    -0.2219)
                     ( 1.00    -0.2134)  ( 1.00    -0.2064)  ( 0.00    -0.0543)
 ***** SPIN 2 *****
 orbitals (Q,E):
 ---------------
 A :69...79          ( 1.00    -0.2907)  ( 1.00    -0.2853)  ( 1.00    -0.2462)  ( 1.00    -0.2427)
                     ( 1.00    -0.2311)  ( 1.00    -0.2289)  ( 1.00    -0.2268)  ( 1.00    -0.2222)
                     ( 1.00    -0.2189)  ( 1.00    -0.2026)  ( 0.00    -0.1712)
  
 Spin polar: 1 (Spin_A minus Spin_B electrons)

 CYCLE    9
  SDIIS (wt  0.884): -0.0006  0.0033  0.0338 -0.0017  0.0822  0.1396  0.2884  0.4550
 A-DIIS (wt  0.116):  0.0000  0.0000  0.0000  0.0000  0.0000  0.0285  0.1007  0.8709
  DIIS coefficients: -0.0005  0.0029  0.0298 -0.0015  0.0726  0.1267  0.2666  0.5034
 SCF Error: norm([F,P])=      0.123651219751, max([F,P])=      0.012517426143
 ***** SPIN 1 *****
 orbitals (Q,E):
 ---------------
 A :70...80          ( 1.00    -0.2838)  ( 1.00    -0.2465)  ( 1.00    -0.2439)  ( 1.00    -0.2335)
                     ( 1.00    -0.2282)  ( 1.00    -0.2251)  ( 1.00    -0.2218)  ( 1.00    -0.2167)
                     ( 1.00    -0.2148)  ( 1.00    -0.2063)  ( 0.00    -0.0546)
 ***** SPIN 2 *****
 orbitals (Q,E):
 ---------------
 A :69...79          ( 1.00    -0.2891)  ( 1.00    -0.2837)  ( 1.00    -0.2457)  ( 1.00    -0.2428)
                     ( 1.00    -0.2286)  ( 1.00    -0.2266)  ( 1.00    -0.2232)  ( 1.00    -0.2197)
                     ( 1.00    -0.2138)  ( 1.00    -0.2028)  ( 0.00    -0.1731)
  
 Spin polar: 1 (Spin_A minus Spin_B electrons)

 CYCLE   10
  SDIIS (wt  0.905): -0.0015  0.0004 -0.0266  0.0006 -0.0318  0.0618  0.0314  0.4333  0.5323
 A-DIIS (wt  0.095):  0.0000  0.0000  0.0000  0.0000  0.0000  0.0017  0.0000  0.2877  0.7106
  DIIS coefficients: -0.0014  0.0004 -0.0241  0.0006 -0.0288  0.0561  0.0284  0.4196  0.5492
 SCF Error: norm([F,P])=      0.080762503210, max([F,P])=      0.010364908285
 ***** SPIN 1 *****
 orbitals (Q,E):
 ---------------
 A :70...80          ( 1.00    -0.2822)  ( 1.00    -0.2480)  ( 1.00    -0.2456)  ( 1.00    -0.2395)
                     ( 1.00    -0.2282)  ( 1.00    -0.2234)  ( 1.00    -0.2216)  ( 1.00    -0.2193)
                     ( 1.00    -0.2126)  ( 1.00    -0.2008)  ( 0.00    -0.0563)
 ***** SPIN 2 *****
 orbitals (Q,E):
 ---------------
 A :69...79          ( 1.00    -0.2874)  ( 1.00    -0.2821)  ( 1.00    -0.2466)  ( 1.00    -0.2440)
                     ( 1.00    -0.2326)  ( 1.00    -0.2276)  ( 1.00    -0.2220)  ( 1.00    -0.2198)
                     ( 1.00    -0.2118)  ( 1.00    -0.1987)  ( 0.00    -0.1761)
  
 Spin polar: 1 (Spin_A minus Spin_B electrons)

 CYCLE   11
  SDIIS (wt  0.990): -0.0009  0.0013 -0.0188  0.0001 -0.0222  0.0198 -0.0584  0.1568  0.3807  0.5417
 A-DIIS (wt  0.010):  0.0000  0.0000  0.0000  0.0000  0.0000  0.0000  0.0000  0.0000  0.0000  1.0000
  DIIS coefficients: -0.0009  0.0013 -0.0186  0.0001 -0.0220  0.0196 -0.0579  0.1553  0.3770  0.5461
 SCF Error: norm([F,P])=      0.025513166261, max([F,P])=      0.001954113731
 ***** SPIN 1 *****
 orbitals (Q,E):
 ---------------
 A :70...80          ( 1.00    -0.2814)  ( 1.00    -0.2485)  ( 1.00    -0.2460)  ( 1.00    -0.2396)
                     ( 1.00    -0.2286)  ( 1.00    -0.2242)  ( 1.00    -0.2222)  ( 1.00    -0.2191)
                     ( 1.00    -0.2113)  ( 1.00    -0.1993)  ( 0.00    -0.0572)
 ***** SPIN 2 *****
 orbitals (Q,E):
 ---------------
 A :69...79          ( 1.00    -0.2866)  ( 1.00    -0.2813)  ( 1.00    -0.2471)  ( 1.00    -0.2446)
                     ( 1.00    -0.2322)  ( 1.00    -0.2280)  ( 1.00    -0.2222)  ( 1.00    -0.2191)
                     ( 1.00    -0.2107)  ( 1.00    -0.1982)  ( 0.00    -0.1771)
  
 Spin polar: 1 (Spin_A minus Spin_B electrons)

 CYCLE   12
  SDIIS (wt  0.994):  0.0014 -0.0080 -0.0002 -0.0070  0.0060 -0.0478  0.0263  0.1675  0.4031  0.4588
 A-DIIS (wt  0.006):  0.0000  0.0000  0.0000  0.0000  0.0000  0.0000  0.0000  0.0000  0.0715  0.9285
  DIIS coefficients:  0.0014 -0.0079 -0.0002 -0.0069  0.0060 -0.0475  0.0261  0.1664  0.4009  0.4619
 SCF Error: norm([F,P])=      0.012686694646, max([F,P])=      0.001639641064
 ***** SPIN 1 *****
 orbitals (Q,E):
 ---------------
 A :70...80          ( 1.00    -0.2812)  ( 1.00    -0.2487)  ( 1.00    -0.2461)  ( 1.00    -0.2403)
                     ( 1.00    -0.2286)  ( 1.00    -0.2244)  ( 1.00    -0.2222)  ( 1.00    -0.2187)
                     ( 1.00    -0.2107)  ( 1.00    -0.1987)  ( 0.00    -0.0572)
 ***** SPIN 2 *****
 orbitals (Q,E):
 ---------------
 A :69...79          ( 1.00    -0.2864)  ( 1.00    -0.2811)  ( 1.00    -0.2471)  ( 1.00    -0.2445)
                     ( 1.00    -0.2329)  ( 1.00    -0.2279)  ( 1.00    -0.2221)  ( 1.00    -0.2186)
                     ( 1.00    -0.2102)  ( 1.00    -0.1980)  ( 0.00    -0.1773)
  
 Spin polar: 1 (Spin_A minus Spin_B electrons)

 CYCLE   13
  SDIIS (wt  1.000): -0.0007  0.0001 -0.0004  0.0008 -0.0105 -0.0221  0.0015  0.1099  0.3489  0.5725
  DIIS coefficients: -0.0007  0.0001 -0.0004  0.0008 -0.0105 -0.0221  0.0015  0.1099  0.3489  0.5725
 SCF Error: norm([F,P])=      0.005748674609, max([F,P])=      0.000468511148
 ***** SPIN 1 *****
 orbitals (Q,E):
 ---------------
 A :70...80          ( 1.00    -0.2812)  ( 1.00    -0.2487)  ( 1.00    -0.2461)  ( 1.00    -0.2403)
                     ( 1.00    -0.2286)  ( 1.00    -0.2245)  ( 1.00    -0.2221)  ( 1.00    -0.2188)
                     ( 1.00    -0.2108)  ( 1.00    -0.1986)  ( 0.00    -0.0572)
 ***** SPIN 2 *****
 orbitals (Q,E):
 ---------------
 A :69...79          ( 1.00    -0.2864)  ( 1.00    -0.2812)  ( 1.00    -0.2471)  ( 1.00    -0.2445)
                     ( 1.00    -0.2328)  ( 1.00    -0.2279)  ( 1.00    -0.2220)  ( 1.00    -0.2187)
                     ( 1.00    -0.2103)  ( 1.00    -0.1981)  ( 0.00    -0.1773)
  
 Spin polar: 1 (Spin_A minus Spin_B electrons)

 CYCLE   14
  SDIIS (wt  1.000):  0.0000  0.0007  0.0007 -0.0041 -0.0164 -0.0099  0.0479  0.1944  0.3862  0.4006
  DIIS coefficients:  0.0000  0.0007  0.0007 -0.0041 -0.0164 -0.0099  0.0479  0.1944  0.3862  0.4006
 SCF Error: norm([F,P])=      0.002896269630, max([F,P])=      0.000289102452
 ***** SPIN 1 *****
 orbitals (Q,E):
 ---------------
 A :70...80          ( 1.00    -0.2813)  ( 1.00    -0.2487)  ( 1.00    -0.2461)  ( 1.00    -0.2404)
                     ( 1.00    -0.2286)  ( 1.00    -0.2245)  ( 1.00    -0.2222)  ( 1.00    -0.2187)
                     ( 1.00    -0.2107)  ( 1.00    -0.1986)  ( 0.00    -0.0573)
 ***** SPIN 2 *****
 orbitals (Q,E):
 ---------------
 A :69...79          ( 1.00    -0.2865)  ( 1.00    -0.2812)  ( 1.00    -0.2471)  ( 1.00    -0.2446)
                     ( 1.00    -0.2329)  ( 1.00    -0.2280)  ( 1.00    -0.2221)  ( 1.00    -0.2187)
                     ( 1.00    -0.2103)  ( 1.00    -0.1982)  ( 0.00    -0.1773)
  
 Spin polar: 1 (Spin_A minus Spin_B electrons)

 CYCLE   15
  SDIIS (wt  1.000): -0.0001  0.0002 -0.0012 -0.0027 -0.0063 -0.0011  0.0210  0.0870  0.1997  0.7035
  DIIS coefficients: -0.0001  0.0002 -0.0012 -0.0027 -0.0063 -0.0011  0.0210  0.0870  0.1997  0.7035
 SCF Error: norm([F,P])=      0.001075395948, max([F,P])=      0.000103228756
 ***** SPIN 1 *****
 orbitals (Q,E):
 ---------------
 A :70...80          ( 1.00    -0.2812)  ( 1.00    -0.2487)  ( 1.00    -0.2462)  ( 1.00    -0.2404)
                     ( 1.00    -0.2287)  ( 1.00    -0.2246)  ( 1.00    -0.2222)  ( 1.00    -0.2187)
                     ( 1.00    -0.2107)  ( 1.00    -0.1985)  ( 0.00    -0.0573)
 ***** SPIN 2 *****
 orbitals (Q,E):
 ---------------
 A :69...79          ( 1.00    -0.2864)  ( 1.00    -0.2812)  ( 1.00    -0.2471)  ( 1.00    -0.2446)
                     ( 1.00    -0.2329)  ( 1.00    -0.2280)  ( 1.00    -0.2221)  ( 1.00    -0.2187)
                     ( 1.00    -0.2103)  ( 1.00    -0.1981)  ( 0.00    -0.1773)
  
 Spin polar: 1 (Spin_A minus Spin_B electrons)

 CYCLE   16
  SDIIS (wt  1.000):  0.0001  0.0011  0.0014 -0.0064 -0.0166 -0.0307 -0.0153  0.0637  0.5678  0.4349
  DIIS coefficients:  0.0001  0.0011  0.0014 -0.0064 -0.0166 -0.0307 -0.0153  0.0637  0.5678  0.4349
 SCF Error: norm([F,P])=      0.000841130308, max([F,P])=      0.000089209465
 ***** SPIN 1 *****
 orbitals (Q,E):
 ---------------
 A :70...80          ( 1.00    -0.2812)  ( 1.00    -0.2487)  ( 1.00    -0.2461)  ( 1.00    -0.2405)
                     ( 1.00    -0.2286)  ( 1.00    -0.2246)  ( 1.00    -0.2222)  ( 1.00    -0.2187)
                     ( 1.00    -0.2107)  ( 1.00    -0.1985)  ( 0.00    -0.0573)
 ***** SPIN 2 *****
 orbitals (Q,E):
 ---------------
 A :69...79          ( 1.00    -0.2864)  ( 1.00    -0.2812)  ( 1.00    -0.2471)  ( 1.00    -0.2446)
                     ( 1.00    -0.2329)  ( 1.00    -0.2280)  ( 1.00    -0.2221)  ( 1.00    -0.2187)
                     ( 1.00    -0.2103)  ( 1.00    -0.1981)  ( 0.00    -0.1773)
  
 Spin polar: 1 (Spin_A minus Spin_B electrons)

 CYCLE   17
  SDIIS (wt  1.000):  0.0012  0.0015 -0.0046 -0.0145 -0.0333 -0.0335  0.0097  0.3134  0.2938  0.4663
  DIIS coefficients:  0.0012  0.0015 -0.0046 -0.0145 -0.0333 -0.0335  0.0097  0.3134  0.2938  0.4663
 SCF Error: norm([F,P])=      0.000311245135, max([F,P])=      0.000028423099
 ***** SPIN 1 *****
 orbitals (Q,E):
 ---------------
 A :70...80          ( 1.00    -0.2812)  ( 1.00    -0.2488)  ( 1.00    -0.2462)  ( 1.00    -0.2405)
                     ( 1.00    -0.2286)  ( 1.00    -0.2246)  ( 1.00    -0.2222)  ( 1.00    -0.2187)
                     ( 1.00    -0.2107)  ( 1.00    -0.1985)  ( 0.00    -0.0573)
 ***** SPIN 2 *****
 orbitals (Q,E):
 ---------------
 A :69...79          ( 1.00    -0.2864)  ( 1.00    -0.2812)  ( 1.00    -0.2471)  ( 1.00    -0.2446)
                     ( 1.00    -0.2329)  ( 1.00    -0.2280)  ( 1.00    -0.2221)  ( 1.00    -0.2186)
                     ( 1.00    -0.2103)  ( 1.00    -0.1981)  ( 0.00    -0.1773)
  
 Spin polar: 1 (Spin_A minus Spin_B electrons)

 CYCLE   18
  SDIIS (wt  1.000):  0.0000 -0.0002 -0.0011 -0.0064 -0.0078 -0.0079  0.0319  0.0432  0.2252  0.7230
  DIIS coefficients:  0.0000 -0.0002 -0.0011 -0.0064 -0.0078 -0.0079  0.0319  0.0432  0.2252  0.7230
 SCF Error: norm([F,P])=      0.000096010198, max([F,P])=      0.000008411542
 ***** SPIN 1 *****
 orbitals (Q,E):
 ---------------
 A :70...80          ( 1.00    -0.2812)  ( 1.00    -0.2488)  ( 1.00    -0.2462)  ( 1.00    -0.2405)
                     ( 1.00    -0.2286)  ( 1.00    -0.2246)  ( 1.00    -0.2222)  ( 1.00    -0.2187)
                     ( 1.00    -0.2107)  ( 1.00    -0.1985)  ( 0.00    -0.0573)
 ***** SPIN 2 *****
 orbitals (Q,E):
 ---------------
 A :69...79          ( 1.00    -0.2864)  ( 1.00    -0.2812)  ( 1.00    -0.2471)  ( 1.00    -0.2446)
                     ( 1.00    -0.2329)  ( 1.00    -0.2280)  ( 1.00    -0.2221)  ( 1.00    -0.2186)
                     ( 1.00    -0.2102)  ( 1.00    -0.1981)  ( 0.00    -0.1774)
  
 Spin polar: 1 (Spin_A minus Spin_B electrons)

 CYCLE   19
  SDIIS (wt  1.000):  0.0000 -0.0004 -0.0032 -0.0044 -0.0072  0.0051  0.0200  0.1365  0.4769  0.3768
  DIIS coefficients:  0.0000 -0.0004 -0.0032 -0.0044 -0.0072  0.0051  0.0200  0.1365  0.4769  0.3768
 SCF Error: norm([F,P])=      0.000066962846, max([F,P])=      0.000002896960
 ***** SPIN 1 *****
 orbitals (Q,E):
 ---------------
 A :70...80          ( 1.00    -0.2812)  ( 1.00    -0.2488)  ( 1.00    -0.2462)  ( 1.00    -0.2405)
                     ( 1.00    -0.2286)  ( 1.00    -0.2246)  ( 1.00    -0.2222)  ( 1.00    -0.2187)
                     ( 1.00    -0.2107)  ( 1.00    -0.1985)  ( 0.00    -0.0573)
 ***** SPIN 2 *****
 orbitals (Q,E):
 ---------------
 A :69...79          ( 1.00    -0.2864)  ( 1.00    -0.2812)  ( 1.00    -0.2471)  ( 1.00    -0.2446)
                     ( 1.00    -0.2329)  ( 1.00    -0.2280)  ( 1.00    -0.2221)  ( 1.00    -0.2186)
                     ( 1.00    -0.2103)  ( 1.00    -0.1981)  ( 0.00    -0.1774)
  
 Spin polar: 1 (Spin_A minus Spin_B electrons)

 CYCLE   20
  SDIIS (wt  1.000): -0.0001 -0.0009 -0.0014 -0.0028 -0.0019  0.0039  0.0502  0.1953  0.2340  0.5238
  DIIS coefficients: -0.0001 -0.0009 -0.0014 -0.0028 -0.0019  0.0039  0.0502  0.1953  0.2340  0.5238
 SCF Error: norm([F,P])=      0.000020894071, max([F,P])=      0.000001772397
 ***** SPIN 1 *****
 orbitals (Q,E):
 ---------------
 A :70...80          ( 1.00    -0.2812)  ( 1.00    -0.2488)  ( 1.00    -0.2462)  ( 1.00    -0.2405)
                     ( 1.00    -0.2286)  ( 1.00    -0.2246)  ( 1.00    -0.2222)  ( 1.00    -0.2187)
                     ( 1.00    -0.2107)  ( 1.00    -0.1985)  ( 0.00    -0.0573)
 ***** SPIN 2 *****
 orbitals (Q,E):
 ---------------
 A :69...79          ( 1.00    -0.2864)  ( 1.00    -0.2812)  ( 1.00    -0.2471)  ( 1.00    -0.2446)
                     ( 1.00    -0.2329)  ( 1.00    -0.2280)  ( 1.00    -0.2221)  ( 1.00    -0.2186)
                     ( 1.00    -0.2103)  ( 1.00    -0.1981)  ( 0.00    -0.1774)
  
 Spin polar: 1 (Spin_A minus Spin_B electrons)

 CYCLE   21
  SDIIS (wt  1.000): -0.0001 -0.0003 -0.0010 -0.0028 -0.0011  0.0136  0.0543  0.0899  0.3322  0.5152
  DIIS coefficients: -0.0001 -0.0003 -0.0010 -0.0028 -0.0011  0.0136  0.0543  0.0899  0.3322  0.5152
 SCF Error: norm([F,P])=      0.000009791699, max([F,P])=      0.000000696233
 ***** SPIN 1 *****
 orbitals (Q,E):
 ---------------
 A :70...80          ( 1.00    -0.2812)  ( 1.00    -0.2488)  ( 1.00    -0.2462)  ( 1.00    -0.2405)
                     ( 1.00    -0.2286)  ( 1.00    -0.2246)  ( 1.00    -0.2222)  ( 1.00    -0.2187)
                     ( 1.00    -0.2107)  ( 1.00    -0.1985)  ( 0.00    -0.0573)
 ***** SPIN 2 *****
 orbitals (Q,E):
 ---------------
 A :69...79          ( 1.00    -0.2864)  ( 1.00    -0.2812)  ( 1.00    -0.2471)  ( 1.00    -0.2446)
                     ( 1.00    -0.2329)  ( 1.00    -0.2280)  ( 1.00    -0.2221)  ( 1.00    -0.2186)
                     ( 1.00    -0.2103)  ( 1.00    -0.1981)  ( 0.00    -0.1774)
  
 Spin polar: 1 (Spin_A minus Spin_B electrons)

 SCF CONVERGED

 CYCLE   22
 *** Using FIT density in Focky
  SDIIS (wt  1.000): -0.0001 -0.0004 -0.0013 -0.0012  0.0011  0.0000  0.0102  0.0999  0.3161  0.5758
  DIIS coefficients: -0.0001 -0.0004 -0.0013 -0.0012  0.0011  0.0000  0.0102  0.0999  0.3161  0.5758
 SCF Error: norm([F,P])=      0.000004396272, max([F,P])=      0.000000347568
 ***** SPIN 1 *****
 orbitals (Q,E):
 ---------------
 A :70...89          ( 1.00    -0.2812)  ( 1.00    -0.2488)  ( 1.00    -0.2462)  ( 1.00    -0.2405)
                     ( 1.00    -0.2286)  ( 1.00    -0.2246)  ( 1.00    -0.2222)  ( 1.00    -0.2187)
                     ( 1.00    -0.2107)  ( 1.00    -0.1985)  ( 0.00    -0.0573)  ( 0.00    -0.0558)
                     ( 0.00    -0.0405)  ( 0.00    -0.0376)  ( 0.00    -0.0341)  ( 0.00     0.0053)
                     ( 0.00     0.0179)  ( 0.00     0.0209)  ( 0.00     0.0304)  ( 0.00     0.0330)
 ***** SPIN 2 *****
 orbitals (Q,E):
 ---------------
 A :69...88          ( 1.00    -0.2864)  ( 1.00    -0.2812)  ( 1.00    -0.2471)  ( 1.00    -0.2446)
                     ( 1.00    -0.2329)  ( 1.00    -0.2280)  ( 1.00    -0.2221)  ( 1.00    -0.2186)
                     ( 1.00    -0.2103)  ( 1.00    -0.1981)  ( 0.00    -0.1774)  ( 0.00    -0.0555)
                     ( 0.00    -0.0545)  ( 0.00    -0.0378)  ( 0.00    -0.0350)  ( 0.00    -0.0146)
                     ( 0.00     0.0054)  ( 0.00     0.0182)  ( 0.00     0.0214)  ( 0.00     0.0306)
  
 Spin polar: 1 (Spin_A minus Spin_B electrons)


 Fit test: (difference of exact and fit density, squared integrated, result summed over spins)
         SCF:                                          0.00134793973190

 Gross Charges per Atom (Z minus electrons)
 ==========================================
            -0.3537   -0.1502    0.5652   -0.7592    0.0462    0.1390    0.3093    0.0135    0.0509    0.0280
             0.0251    0.0466   -0.0690    0.1042    0.0521    0.1505    0.0550    0.0551   -0.5876    1.0510
            -0.8255   -0.5638   -0.0959    0.2791   -0.0261    0.2800    0.1644   -0.0515   -0.0301    0.0255
             0.1703   -0.0855   -0.0344   -0.0027   -0.0270   -0.0083    0.0091    0.0977    0.0129    0.0254
             0.0148   -0.3753   -0.0179    0.0418    0.0433    0.0296   -0.0857    0.0471    0.0286    0.1474
            -0.0973    0.0294    0.0484   -0.0815   -0.0255    0.0048   -0.0212   -0.0080    0.0165    0.0972
             0.0204    0.0194    0.0147    0.0233
 Net Total:  0.00000000



 =================================================================
 M U L T I P O L E   D E R I V E D   C H A R G E   A N A L Y S I S
 =================================================================

 See: M. Swart, P.Th. van Duijnen, J.G. Snijders, J.Comput.Chem., (2001), p. 79-88.

 ----------------------------------------------------- 
 MDC atomic charges (includes spinA + spinB electrons)
 ----------------------------------------------------- 

        Atom    Level:     MDC-m        MDC-d        MDC-q
 ---------------------------------------------------------
     1     C            0.114728     0.091349     0.150663
     2     C            0.131381     0.115296     0.084435
     3     C            0.269412     0.315030     0.279415
     4     O           -0.346644    -0.441823    -0.431845
     5     H           -0.071850    -0.063440    -0.082459
     6     H           -0.071764    -0.052846    -0.051242
     7     H           -0.050884    -0.017623    -0.022159
     8     H           -0.063640    -0.041984    -0.006437
     9     H           -0.074245    -0.069331    -0.094758
    10     H           -0.076371    -0.069770    -0.075969
    11     H           -0.074181    -0.064278    -0.075820
    12     H           -0.068663    -0.041617    -0.045973
    13     C            0.225721     0.186758     0.147011
    14     H           -0.067387    -0.052621    -0.035561
    15     H           -0.070902    -0.060227    -0.075421
    16     H           -0.086640    -0.072723    -0.092221
    17     H           -0.067469    -0.056853    -0.061299
    18     H           -0.072271    -0.052988    -0.040500
    19     N           -0.099903    -0.165080    -0.208041
    20     C            0.302749     0.373001     0.427281
    21     O           -0.437295    -0.553905    -0.554213
    22     N           -0.095755    -0.071757    -0.271213
    23     C            0.188257     0.167437     0.210018
    24     H            0.021208     0.115685     0.151794
    25     C            0.182593     0.153297     0.187779
    26     H            0.022024     0.062383     0.132191
    27     H           -0.049016    -0.021046    -0.007594
    28     C            0.221127     0.181571     0.244275
    29     C            0.220627     0.191003     0.195289
    30     H           -0.064220    -0.039110     0.035976
    31     H           -0.056184    -0.028533    -0.004440
    32     C            0.012311    -0.003852     0.035728
    33     C            0.054351     0.031854    -0.043303
    34     C            0.064826     0.039575    -0.117428
    35     C            0.062289     0.037560    -0.152581
    36     C            0.065230     0.036194    -0.187194
    37     C            0.057671     0.037815    -0.047895
    38     H           -0.066700    -0.046080     0.067795
    39     H           -0.068137    -0.046569     0.106106
    40     H           -0.067169    -0.042202     0.139379
    41     H           -0.066239    -0.041861     0.127895
    42     C            0.060973     0.039926     0.055285
    43     C            0.215683     0.183531     0.210057
    44     H           -0.077248    -0.068332    -0.081475
    45     H           -0.077631    -0.068206    -0.078288
    46     H           -0.075337    -0.063376    -0.075459
    47     C            0.214977     0.181529     0.201380
    48     H           -0.065883    -0.048918    -0.050939
    49     H           -0.082108    -0.077668    -0.076615
    50     H           -0.080151    -0.054171    -0.063494
    51     C            0.209686     0.179443     0.187117
    52     H           -0.078936    -0.070039    -0.074293
    53     H           -0.077473    -0.065673    -0.059120
    54     C            0.011749     0.001716     0.058056
    55     C            0.062700     0.040376    -0.039926
    56     C            0.073756     0.043055    -0.124688
    57     C            0.067887     0.036095    -0.160773
    58     C            0.067782     0.036997    -0.171396
    59     C            0.057182     0.038168    -0.143168
    60     H           -0.057384    -0.029534     0.064279
    61     H           -0.060337    -0.033614     0.131472
    62     H           -0.062753    -0.037253     0.155532
    63     H           -0.063635    -0.039077     0.120665
    64     H           -0.066480    -0.042664     0.078328

 -------------------------------- 
 MDC spin density (spinA - spinB)
 -------------------------------- 

        Atom    Level:     MDC-m        MDC-d        MDC-q
 ---------------------------------------------------------
     1     C            0.014417     0.025295     0.014796
     2     C            0.502411     0.487611     0.536622
     3     C            0.067341     0.080124     0.101520
     4     O            0.261491     0.253990     0.240469
     5     H            0.000119     0.000113     0.000073
     6     H            0.001438     0.004376     0.002274
     7     H            0.010008     0.018685    -0.008628
     8     H            0.000444    -0.002028    -0.022429
     9     H            0.000196     0.000174     0.000300
    10     H            0.000006    -0.000430    -0.000119
    11     H            0.000032     0.000038     0.000065
    12     H            0.000059     0.000031     0.000079
    13     C            0.034817     0.030645     0.033833
    14     H            0.000415    -0.000406    -0.003640
    15     H            0.000032     0.000112     0.000095
    16     H            0.005453     0.009471     0.012114
    17     H            0.006963     0.004031     0.003206
    18     H            0.001555     0.002905     0.003136
    19     N            0.015488     0.015018     0.015544
    20     C           -0.000207    -0.000018    -0.001173
    21     O            0.000787     0.000718     0.000401
    22     N            0.013653     0.011932     0.013945
    23     C            0.000514     0.000765     0.000709
    24     H            0.000837     0.002680     0.002688
    25     C            0.000594     0.000926     0.000235
    26     H            0.001076     0.003379     0.003173
    27     H            0.000194     0.000270     0.000124
    28     C            0.000800     0.000770     0.000812
    29     C            0.001957     0.001646     0.001869
    30     H           -0.000008    -0.000051    -0.000028
    31     H           -0.000015     0.000052    -0.000093
    32     C            0.001810     0.001432     0.002932
    33     C            0.002592     0.002570    -0.001928
    34     C            0.002203     0.002060     0.002805
    35     C           -0.000257    -0.000399    -0.000478
    36     C            0.001734     0.001577     0.001994
    37     C           -0.000061    -0.000010     0.000031
    38     H            0.002060     0.002341     0.005340
    39     H            0.000138     0.000266     0.000898
    40     H            0.000019    -0.000075    -0.000028
    41     H            0.000122     0.000232     0.000156
    42     C            0.001629     0.000973     0.001291
    43     C            0.000987     0.000874     0.000889
    44     H            0.000153     0.000208     0.000225
    45     H            0.000011     0.000000     0.000021
    46     H            0.000075     0.000084     0.000126
    47     C            0.000004    -0.000082     0.000032
    48     H            0.000002    -0.000143    -0.000136
    49     H            0.000036     0.000024    -0.000072
    50     H            0.000224    -0.000056    -0.001116
    51     C            0.003242     0.000440     0.001255
    52     H            0.000259    -0.000617    -0.000336
    53     H            0.000120     0.000089    -0.000494
    54     C            0.026623     0.022558     0.022762
    55     C            0.003257     0.003361     0.004266
    56     C            0.000172    -0.000073    -0.001235
    57     C            0.003068     0.002866     0.004351
    58     C            0.001894     0.001718     0.000608
    59     C            0.003751     0.004076     0.007336
    60     H            0.000206    -0.000043    -0.002068
    61     H            0.000066    -0.000059    -0.000035
    62     H            0.000231     0.000407    -0.000211
    63     H            0.000516     0.000565     0.000204
    64     H            0.000246     0.000009    -0.001360



 ==========
 S**2 value  ***  see also R. Bulo et al., J.Am.Chem.Soc., 124 (2002) 13903-13910, note (29)  ***
 ==========
  
                                       exact      expectation value

 Total S2 (S squared)                  0.75000             0.75536



 =======================================================================
 Electrostatic potential at the Nuclei due to electrons and other nuclei
 =======================================================================
  
         Atom                  Potential
         ----                  ---------
     1)   C                  14.67934126
     2)   C                  14.69219987
     3)   C                  14.65748458
     4)   O                  22.30602648
     5)   H                   1.12070088
     6)   H                   1.09036375
     7)   H                   1.07690142
     8)   H                   1.08556849
     9)   H                   1.12167690
    10)   H                   1.12045173
    11)   H                   1.12032565
    12)   H                   1.12337467
    13)   C                  14.72223241
    14)   H                   1.10404405
    15)   H                   1.12211242
    16)   H                   1.12409074
    17)   H                   1.10186212
    18)   H                   1.10426385
    19)   N                  18.32957899
    20)   C                  14.64666447
    21)   O                  22.36855343
    22)   N                  18.33157167
    23)   C                  14.68457167
    24)   H                   1.02765690
    25)   C                  14.69185094
    26)   H                   1.02933681
    27)   H                   1.11420533
    28)   C                  14.74604704
    29)   C                  14.74694108
    30)   H                   1.10209133
    31)   H                   1.12346738
    32)   C                  14.72177512
    33)   C                  14.73177156
    34)   C                  14.73247985
    35)   C                  14.73409782
    36)   C                  14.73335963
    37)   C                  14.73436566
    38)   H                   1.10011618
    39)   H                   1.10208375
    40)   H                   1.10310262
    41)   H                   1.10202992
    42)   C                  14.70387098
    43)   C                  14.74868021
    44)   H                   1.12454255
    45)   H                   1.12584582
    46)   H                   1.12483289
    47)   C                  14.75314068
    48)   H                   1.13382040
    49)   H                   1.12920494
    50)   H                   1.13232425
    51)   C                  14.74555338
    52)   H                   1.12322312
    53)   H                   1.12102684
    54)   C                  14.70409839
    55)   C                  14.72268649
    56)   C                  14.72560245
    57)   C                  14.72646157
    58)   C                  14.72474576
    59)   C                  14.72335367
    60)   H                   1.09278917
    61)   H                   1.09671949
    62)   H                   1.09559306
    63)   H                   1.09371431
    64)   H                   1.09020782
 Mulliken charges used for AMS results%charges...
 Using automatic Hessian for delocalized coordinates.
 *** PESPoint(1)_GOStep1 ***

 Energy gradients wrt nuclear displacements
 ==========================================

     Atom      Cartesian (a.u./angstrom)
                 X         Y         Z
 ----------------------------------------
     1 C     0.001632 -0.004928  0.008650
     2 C     0.008652 -0.010060  0.000644
     3 C     0.018977 -0.010369 -0.004827
     4 O    -0.020307  0.025757 -0.009700
     5 H    -0.000201  0.006814  0.003311
     6 H    -0.001120 -0.001382 -0.000860
     7 H    -0.000235  0.002677 -0.004322
     8 H    -0.000184  0.002564 -0.004005
     9 H    -0.007853 -0.004211 -0.003773
    10 H    -0.001329  0.001902 -0.007076
    11 H     0.001589  0.005376 -0.003928
    12 H    -0.003754  0.004631  0.005921
    13 C    -0.001341  0.005638 -0.004005
    14 H     0.001336 -0.000080  0.003601
    15 H    -0.007030  0.001749 -0.001308
    16 H     0.003581  0.001671 -0.000721
    17 H     0.005867 -0.005394 -0.001351
    18 H     0.003726  0.006996  0.002720
    19 N    -0.009424 -0.023071  0.008943
    20 C     0.007619  0.023705 -0.036381
    21 O    -0.014396 -0.021990  0.035029
    22 N    -0.004867  0.003923  0.024195
    23 C    -0.005997  0.009329 -0.014768
    24 H     0.000588  0.001941  0.000361
    25 C     0.003098  0.007615 -0.010965
    26 H    -0.001215 -0.000057 -0.002408
    27 H     0.002907  0.003564 -0.004001
    28 C     0.000452 -0.005506  0.007046
    29 C     0.001919 -0.007328  0.007267
    30 H    -0.001391 -0.000854  0.003889
    31 H     0.002058  0.000790 -0.004378
    32 C    -0.003619 -0.000795  0.009920
    33 C    -0.001950 -0.001116 -0.001498
    34 C    -0.002057  0.000335 -0.003378
    35 C    -0.003425 -0.002280 -0.002752
    36 C    -0.003974 -0.001694 -0.003098
    37 C    -0.000486  0.000271 -0.003725
    38 H     0.000278 -0.001582 -0.001793
    39 H     0.001683  0.000819 -0.003338
    40 H     0.001568 -0.002080 -0.002269
    41 H    -0.000194 -0.004379  0.000593
    42 C     0.006845 -0.000915  0.008511
    43 C    -0.001343 -0.001988 -0.008807
    44 H     0.006552 -0.000595  0.004305
    45 H     0.000967  0.006173  0.002469
    46 H    -0.003924 -0.001334  0.008119
    47 C     0.001120  0.006106 -0.001121
    48 H    -0.002692 -0.005387  0.003463
    49 H     0.007474 -0.001656  0.002103
    50 H    -0.000272 -0.003262  0.002941
    51 C    -0.007958 -0.001687  0.003905
    52 H     0.002900  0.006616 -0.001998
    53 H     0.007106 -0.000442  0.000455
    54 C     0.000780  0.009903 -0.007317
    55 C     0.000479 -0.002469  0.001701
    56 C     0.002634 -0.001097  0.002483
    57 C     0.004408 -0.001948  0.000649
    58 C     0.004411 -0.002617 -0.000109
    59 C     0.001218 -0.003750  0.000028
    60 H    -0.001212 -0.001777  0.000634
    61 H    -0.002086 -0.001511  0.003084
    62 H    -0.000983 -0.004418 -0.000334
    63 H     0.001144 -0.002772 -0.003881
    64 H     0.001252  0.001919 -0.002739
 ----------------------------------------
 Mulliken charges used for AMS results%charges...
 Residual max backtransformation error   0.5224E-01
 Residual max backtransformation error   0.4604E-01


 Constraint values: difference between the actual and the fixed coord values, a.u.
 =================================================================================

 Index  Constr. value     Atom indices
 ------------- NON-BLOCK constraints -------------------
     1    0.44409E-15     1    13
 -------------------------------------------------------
 
----------------------------------------------------------------------
Geometry Convergence after Step   1       (Hartree/Angstrom,Angstrom)
----------------------------------------------------------------------
current energy                              -13.45786516 Hartree
energy change                     -13.45786516     0.00064000    F
constrained gradient max            0.03638626     0.00100000    F
constrained gradient rms            0.00715074     0.00066667    F
gradient max                        0.03638626
gradient rms                        0.00718386
cart. step max                      0.21145064     0.01000000    F
cart. step rms                      0.06747410     0.00666667    F
 
 
--------
Geometry
--------
Formula: C25H35N2O2
Atoms
  Index Symbol   x (angstrom)   y (angstrom)   z (angstrom)
      1      C    -2.17346706     0.74654599     1.30909841
      2      C    -0.94950513    -0.04512184     1.01044842
      3      C    -0.49623359    -1.13080569     1.79952556
      4      O     0.52606970    -1.79968364     1.53845763
      5      H     1.17434471    -4.33128577    -3.31161908
      6      H    -2.56991933     0.44720865     2.28918132
      7      H    -0.36622450     0.22251799     0.13776496
      8      H    -1.11161144    -1.37440093     2.68988085
      9      H     5.05452321     1.60507435     0.57558390
     10      H     4.33657110     0.22391579     1.42819798
     11      H     0.66976533    -4.24857074    -1.61276659
     12      H     4.77947025     0.07429668    -0.28833747
     13      C    -3.27307259     0.48207006     0.25650868
     14      H    -2.92430766     0.73860815    -0.74421683
     15      H     2.30705369    -3.76462197    -2.07665442
     16      H    -1.52084850    -2.18880247    -1.05011843
     17      H    -4.15079160     1.09021721     0.48995124
     18      H    -3.55819093    -0.57261482     0.26633111
     19      N     2.08333237     0.09526043    -0.12429871
     20      C     1.83518793    -0.39189777    -1.39687017
     21      O     2.16561332     0.19615365    -2.42679514
     22      N     1.13302512    -1.57405208    -1.37320489
     23      C     2.97818286     1.22849478     0.05632715
     24      H     1.99429988    -0.55995638     0.64114208
     25      C     0.81625682    -2.30264962    -2.59833410
     26      H     0.92397057    -1.99455974    -0.47464939
     27      H     3.04434643     1.72503153    -0.91794460
     28      C     1.25965250    -3.75554828    -2.38863227
     29      C     4.38111492     0.75070754     0.47158144
     30      H     3.02758607     3.94586744    -0.01617307
     31      H     1.43824026    -1.84772825    -3.37966275
     32      C     2.43407450     2.19868793     1.08957372
     33      C     1.83734546     1.74418672     2.26586082
     34      C     1.37532737     2.64385141     3.21942692
     35      C     1.51239512     4.01119526     3.01716453
     36      C     2.10968823     4.47583818     1.85203344
     37      C     2.56546768     3.57463036     0.89440123
     38      H     1.72901115     0.68159484     2.44740921
     39      H     0.90762776     2.27335640     4.12698281
     40      H     1.15397710     4.71234757     3.76435343
     41      H     2.21908150     5.54369880     1.68585468
     42      C    -0.67356832    -2.16011014    -3.05753339
     43      C    -0.87576768    -2.92484262    -4.37709371
     44      H    -1.87585116    -2.72801396    -4.77376137
     45      H    -0.77935994    -4.00342583    -4.23434520
     46      H    -0.14350685    -2.60617650    -5.12477468
[...]
      9      H     5.66919207     0.45603005     1.34994756
     10      H     4.45706308    -0.66449421     2.01969735
     11      H     0.70432406    -4.25393363    -1.94907236
     12      H     5.33910165    -1.10117698     0.54942096
     13      C    -3.49622236     0.53336445     0.61165169
     14      H    -3.08519138     0.79299493    -0.36790191
     15      H     2.36129401    -3.83526091    -2.42037815
     16      H    -1.43024588    -1.94802327    -1.32806321
     17      H    -4.49424804     0.97751230     0.70410415
     18      H    -3.58590366    -0.55740639     0.65694784
     19      N     2.77668388    -0.58129105    -0.13256726
     20      C     2.42839850    -0.83488871    -1.44249957
     21      O     3.08221878    -0.43798183    -2.40691471
     22      N     1.25910562    -1.57126362    -1.56953660
     23      C     3.82231524     0.38320707     0.20400917
     24      H     2.08345732    -0.75854627     0.58934413
     25      C     0.95193577    -2.25582747    -2.82569448
     26      H     0.95995446    -2.05611862    -0.72988667
     27      H     4.29036019     0.63539970    -0.75435740
     28      C     1.30799570    -3.74449592    -2.70975294
     29      C     4.88543726    -0.26576680     1.09313753
     30      H     2.59596284     2.32273681    -1.19328340
     31      H     1.63096358    -1.80448215    -3.55804336
     32      C     3.19469277     1.65591047     0.76196442
     33      C     3.15767364     1.95523670     2.12522670
     34      C     2.50397455     3.09595137     2.58905185
     35      C     1.87995425     3.95957066     1.69700436
     36      C     1.92317531     3.68036720     0.33221488
     37      C     2.57385732     2.54193456    -0.12811304
     38      H     3.63265947     1.29561324     2.84410663
     39      H     2.47961410     3.30526055     3.65680828
     40      H     1.35552738     4.83884721     2.06159636
     41      H     1.44570715     4.35382806    -0.37622786
     42      C    -0.50477985    -1.94019941    -3.31130204
     43      C    -0.75549636    -2.60981114    -4.67520332
     44      H    -1.71101716    -2.26621871    -5.09146592
     45      H    -0.80593984    -3.70088948    -4.59861036
     46      H     0.03230340    -2.35131182    -5.39464884
     47      C    -0.64041681    -0.41650403    -3.49002368
     48      H     0.07246084    -0.04360194    -4.23574734
     49      H    -1.65242353    -0.16214976    -3.82916970
     50      H    -0.44519942     0.10913271    -2.55040791
     51      C    -1.56203007    -2.42598091    -2.30449609
     52      H    -1.52787165    -3.51286538    -2.16716222
     53      H    -2.56861662    -2.17291277    -2.66114345
     54      C    -2.61100231     2.55991691     1.89878832
     55      C    -2.46367584     3.40340591     0.79423992
     56      C    -2.49671392     4.78612540     0.94427863
     57      C    -2.67476009     5.35212300     2.20366471
     58      C    -2.80688230     4.52308932     3.31338222
     59      C    -2.76999654     3.13963059     3.16060963
     60      H    -2.32457289     2.98724943    -0.19878016
     61      H    -2.38789781     5.42415047     0.06996441
     62      H    -2.70908332     6.43294917     2.31905627
     63      H    -2.94427241     4.95269084     4.30322232
     64      H    -2.87517319     2.50296300     4.03631567
 
Total System Charge             0.00000
Bonding info available!
 
 *** PESPoint(1)_GOStep74 ***

 Energy gradients wrt nuclear displacements
 ==========================================

     Atom      Cartesian (a.u./angstrom)
                 X         Y         Z
 ----------------------------------------
     1 C    -0.001985 -0.001084 -0.002669
     2 C     0.000065 -0.000230 -0.000066
     3 C     0.000151  0.000408 -0.000360
     4 O     0.000384 -0.000203  0.000137
     5 H    -0.000021  0.000013 -0.000001
     6 H    -0.000190  0.000001 -0.000067
     7 H    -0.000275  0.000048  0.000075
     8 H    -0.000035  0.000191 -0.000020
     9 H    -0.000022 -0.000010 -0.000028
    10 H    -0.000002  0.000028 -0.000023
    11 H    -0.000004  0.000013  0.000015
    12 H    -0.000077  0.000034  0.000055
    13 C     0.002222  0.001225  0.002547
    14 H     0.000007 -0.000018  0.000012
    15 H    -0.000045  0.000002  0.000005
    16 H     0.000010 -0.000021 -0.000060
    17 H     0.000023  0.000007 -0.000027
    18 H    -0.000032  0.000024 -0.000019
    19 N    -0.000783  0.001869  0.000229
    20 C     0.000301 -0.000066 -0.000266
    21 O    -0.000090 -0.000044  0.000120
    22 N    -0.000435  0.000445  0.000038
    23 C     0.000197  0.000137 -0.000038
    24 H     0.000277 -0.001919 -0.000118
    25 C     0.000305 -0.000177  0.000129
    26 H     0.000000 -0.000086 -0.000064
    27 H     0.000259  0.000145  0.000133
    28 C     0.000057 -0.000187  0.000042
    29 C     0.000094 -0.000339  0.000181
    30 H    -0.000021 -0.000028  0.000019
    31 H     0.000017 -0.000058  0.000026
    32 C    -0.000292 -0.000456  0.000126
    33 C     0.000324  0.000228 -0.000052
    34 C     0.000007  0.000103  0.000060
    35 C     0.000364 -0.000388 -0.000311
    36 C    -0.000356 -0.000026  0.000370
    37 C    -0.000351  0.000079 -0.000364
    38 H    -0.000070  0.000004  0.000086
    39 H     0.000003  0.000010  0.000031
    40 H     0.000004 -0.000068  0.000309
    41 H    -0.000078 -0.000028  0.000107
    42 C    -0.000034  0.000035  0.000040
    43 C     0.000015 -0.000083 -0.000118
    44 H    -0.000003  0.000022  0.000001
    45 H     0.000021  0.000045 -0.000003
    46 H     0.000013 -0.000001  0.000003
    47 C     0.000021  0.000079 -0.000034
    48 H     0.000036 -0.000018  0.000020
    49 H    -0.000005  0.000011 -0.000027
    50 H     0.000003  0.000001  0.000023
    51 C     0.000007  0.000025  0.000067
    52 H     0.000013 -0.000013 -0.000036
    53 H    -0.000005  0.000019 -0.000015
    54 C    -0.000266  0.000043 -0.000080
    55 C    -0.000114  0.000030  0.000248
    56 C     0.000289  0.000140 -0.000243
    57 C    -0.000061  0.000037 -0.000024
    58 C     0.000039  0.000171  0.000007
    59 C     0.000332 -0.000115  0.000059
    60 H    -0.000046 -0.000022 -0.000027
    61 H    -0.000033 -0.000058 -0.000053
    62 H    -0.000025  0.000029 -0.000092
    63 H    -0.000053  0.000016 -0.000036
    64 H    -0.000048  0.000027  0.000020
 ----------------------------------------
 Mulliken charges used for AMS results%charges...

 dE(predicted):    -0.21106E-04, dE(actual):    -0.12576E-04, Trust radius:    0.020000, all in a.u.
 Residual max backtransformation error   0.1754E-02


 Constraint values: difference between the actual and the fixed coord values, a.u.
 =================================================================================

 Index  Constr. value     Atom indices
 ------------- NON-BLOCK constraints -------------------
     1   -0.44409E-15     1    13
 -------------------------------------------------------
 
----------------------------------------------------------------------
Geometry Convergence after Step  74       (Hartree/Angstrom,Angstrom)
----------------------------------------------------------------------
current energy                              -13.48170370 Hartree
energy change                      -0.00001258     0.00064000    T
constrained gradient max            0.00191229     0.00100000    F
constrained gradient rms            0.00024844     0.00066667    T
gradient max                        0.00265596
gradient rms                        0.00043910
cart. step max                      0.02967600     0.01000000    F
cart. step rms                      0.00891087     0.00666667    F
 
 
--------
Geometry
--------
Formula: C25H35N2O2
Atoms
  Index Symbol   x (angstrom)   y (angstrom)   z (angstrom)
      1      C    -2.60278460     1.04709060     1.77258404
      2      C    -1.21016040     0.53134135     1.62690427
      3      C    -0.74209532    -0.63153502     2.30475402
      4      O     0.35479836    -1.17885576     2.09174410
      5      H     1.17621586    -4.27882391    -3.65840903
      6      H    -3.02319999     0.63093166     2.70097917
      7      H    -0.52632049     1.02841634     0.94145910
      8      H    -1.43471191    -1.06677666     3.05638175
      9      H     5.66923737     0.44808471     1.35812850
     10      H     4.45151151    -0.66788050     2.02520030
     11      H     0.70215991    -4.25655028    -1.94938044
     12      H     5.33959187    -1.11068942     0.56042444
     13      C    -3.49798407     0.53907893     0.62038308
     14      H    -3.08937883     0.80233767    -0.35925611
     15      H     2.36076806    -3.84258067    -2.41915032
     16      H    -1.42722525    -1.94342189    -1.33341528
     17      H    -4.49718347     0.98010317     0.71551524
     18      H    -3.58459976    -0.55206895     0.66290498
     19      N     2.78101215    -0.58687698    -0.13417173
     20      C     2.43491704    -0.84139900    -1.44442309
     21      O     3.09173074    -0.44810312    -2.40817015
     22      N     1.26337827    -1.57450871    -1.57212533
     23      C     3.82785183     0.37597509     0.20368585
     24      H     2.08466680    -0.75914472     0.58595407
     25      C     0.95603151    -2.25978758    -2.82777751
     26      H     0.96219419    -2.05749899    -0.73209131
     27      H     4.30086331     0.62467537    -0.75313387
     28      C     1.30806629    -3.74947211    -2.70985501
     29      C     4.88514515    -0.27276323     1.09958927
     30      H     2.62054642     2.31573367    -1.20731249
     31      H     1.63708107    -1.81111202    -3.55987538
     32      C     3.19933438     1.65137280     0.75465728
     33      C     3.15061159     1.95334870     2.11675130
     34      C     2.49388089     3.09571071     2.57259634
     35      C     1.87907727     3.95813459     1.67301529
     36      C     1.93542506     3.67734648     0.30906368
     37      C     2.58843916     2.53698602    -0.14286436
     38      H     3.61793806     1.29435810     2.84126036
     39      H     2.45940928     3.30690784     3.63963258
     40      H     1.35211083     4.83831363     2.03192036
     41      H     1.46623905     4.35084372    -0.40489842
     42      C    -0.49947917    -1.94081587    -3.31556040
     43      C    -0.75043372    -2.61160592    -4.67903888
     44      H    -1.70454710    -2.26591203    -5.09678999
     45      H    -0.80391095    -3.70241058    -4.60108238
     46      H     0.03890985    -2.35611393    -5.39786558
     47      C    -0.63092046    -0.41699408    -3.49645292
     48      H     0.08365443    -0.04695115    -4.24199496
     49      H    -1.64192762    -0.16042156    -3.83695376
     50      H    -0.43530019     0.10947611    -2.55734994
     51      C    -1.55913570    -2.42241036    -2.30932568
     52      H    -1.52803961    -3.50921243    -2.17045125
     53      H    -2.56467902    -2.16715645    -2.66746232
     54      C    -2.61698206     2.56494618     1.91101438
     55      C    -2.47313234     3.41161200     0.80836172
     56      C    -2.51204686     4.79392303     0.96157484
     57      C    -2.69193494     5.35629506     2.22225712
     58      C    -2.82037018     4.52422854     3.33005439
     59      C    -2.77803900     3.14121856     3.17420099
     60      H    -2.33237808     2.99849842    -0.18570294
     61      H    -2.40607820     5.43425425     0.08862639
     62      H    -2.73081564     6.43669813     2.34014007
     63      H    -2.95923325     4.95103258     4.32090757
     64      H    -2.88064181     2.50234018     4.04861793
 
Total System Charge             0.00000
Bonding info available!
 
 *** PESPoint(1)_GOStep75 ***

 Energy gradients wrt nuclear displacements
 ==========================================

     Atom      Cartesian (a.u./angstrom)
                 X         Y         Z
 ----------------------------------------
     1 C    -0.002057 -0.001119 -0.002655
     2 C     0.000128 -0.000238 -0.000044
     3 C    -0.000027  0.000878 -0.000687
     4 O     0.000652 -0.000729  0.000351
     5 H    -0.000029  0.000033  0.000010
     6 H    -0.000201  0.000005 -0.000039
     7 H    -0.000432  0.000139  0.000081
     8 H     0.000054  0.000156  0.000004
     9 H    -0.000004 -0.000015 -0.000026
    10 H    -0.000012  0.000037 -0.000053
    11 H    -0.000008  0.000001  0.000023
    12 H    -0.000077  0.000051  0.000054
    13 C     0.002359  0.001237  0.002586
    14 H    -0.000019 -0.000050  0.000021
    15 H    -0.000061  0.000014  0.000004
    16 H    -0.000003 -0.000039 -0.000090
    17 H    -0.000025  0.000007 -0.000038
    18 H    -0.000048  0.000023 -0.000043
    19 N    -0.001018  0.001933  0.000088
    20 C     0.000636  0.000099 -0.000274
    21 O    -0.000137 -0.000053  0.000162
    22 N    -0.000653  0.000372  0.000087
    23 C     0.000420 -0.000028 -0.000144
    24 H     0.000275 -0.001859 -0.000104
    25 C     0.000480 -0.000044  0.000147
    26 H     0.000040 -0.000065  0.000025
    27 H     0.000308  0.000246  0.000154
    28 C     0.000099 -0.000387  0.000039
    29 C     0.000002 -0.000408  0.000077
    30 H     0.000021 -0.000028  0.000038
    31 H     0.000005 -0.000070  0.000036
    32 C    -0.000439 -0.000603  0.000566
    33 C     0.000422  0.000119 -0.000386
    34 C    -0.000076  0.000411  0.000365
    35 C     0.000407 -0.000729 -0.000606
    36 C    -0.000278  0.000096  0.000168
    37 C    -0.000410  0.000076 -0.000288
    38 H    -0.000104  0.000029  0.000111
    39 H    -0.000002  0.000004 -0.000002
    40 H    -0.000015 -0.000065  0.000456
    41 H    -0.000059 -0.000005  0.000143
    42 C    -0.000134  0.000112  0.000128
    43 C    -0.000019 -0.000187 -0.000263
    44 H    -0.000001  0.000023  0.000007
    45 H     0.000023  0.000068 -0.000005
    46 H     0.000022 -0.000002 -0.000003
    47 C    -0.000005  0.000081 -0.000044
    48 H     0.000043 -0.000012  0.000014
    49 H    -0.000016  0.000022 -0.000031
    50 H     0.000003  0.000018  0.000026
    51 C     0.000057  0.000060  0.000087
    52 H     0.000016 -0.000032 -0.000040
    53 H    -0.000037  0.000025 -0.000018
    54 C    -0.000289 -0.000009 -0.000035
    55 C    -0.000102 -0.000022  0.000170
    56 C     0.000169  0.000323 -0.000159
    57 C    -0.000013 -0.000040 -0.000024
    58 C     0.000029  0.000256 -0.000087
    59 C     0.000337 -0.000146  0.000097
    60 H    -0.000022  0.000016 -0.000049
    61 H    -0.000039 -0.000084 -0.000041
    62 H    -0.000037  0.000034 -0.000085
    63 H    -0.000058  0.000021 -0.000019
    64 H    -0.000044  0.000042  0.000056
 ----------------------------------------
 Mulliken charges used for AMS results%charges...

 dE(predicted):    -0.25405E-04, dE(actual):    -0.20480E-04, Trust radius:    0.040000, all in a.u.
 Residual max backtransformation error   0.3620E-02


 Constraint values: difference between the actual and the fixed coord values, a.u.
 =================================================================================

 Index  Constr. value     Atom indices
 ------------- NON-BLOCK constraints -------------------
     1    0.44409E-15     1    13
 -------------------------------------------------------
 
----------------------------------------------------------------------
Geometry Convergence after Step  75       (Hartree/Angstrom,Angstrom)
----------------------------------------------------------------------
current energy                              -13.48172418 Hartree
energy change                      -0.00002048     0.00064000    T
constrained gradient max            0.00194185     0.00100000    F
constrained gradient rms            0.00029816     0.00066667    T
gradient max                        0.00264215
gradient rms                        0.00047535
cart. step max                      0.05892119     0.01000000    F
cart. step rms                      0.01641340     0.00666667    F
 
 
--------
Geometry
--------
Formula: C25H35N2O2
Atoms
  Index Symbol   x (angstrom)   y (angstrom)   z (angstrom)
      1      C    -2.60616305     1.05497344     1.78733237
      2      C    -1.21158758     0.54569014     1.63562457
      3      C    -0.73992616    -0.61907180     2.30777649
      4      O     0.35569080    -1.16716323     2.09003472
      5      H     1.17344936    -4.28837206    -3.65823447
      6      H    -3.02172517     0.63278953     2.71516881
      7      H    -0.53208136     1.04780031     0.94956104
      8      H    -1.42979116    -1.05653644     3.06070293
      9      H     5.66998748     0.43736583     1.37259828
     10      H     4.44382939    -0.67073844     2.03704954
     11      H     0.69535629    -4.26150328    -1.95035081
     12      H     5.34269468    -1.12600299     0.58280167
     13      C    -3.50249650     0.54815517     0.63548751
     14      H    -3.09819515     0.81799465    -0.34425312
     15      H     2.35749458    -3.85760460    -2.41654871
     16      H    -1.42156127    -1.93320648    -1.34183067
     17      H    -4.50352100     0.98398410     0.73566372
     18      H    -3.58399826    -0.54360298     0.67295422
     19      N     2.78999159    -0.59889168    -0.13538709
     20      C     2.44745648    -0.85540991    -1.44618225
     21      O     3.11006491    -0.46916960    -2.40870543
     22      N     1.27145137    -1.58153908    -1.57535051
     23      C     3.83838024     0.36236325     0.20347630
     24      H     2.08802907    -0.76128883     0.58159053
     25      C     0.96303174    -2.26714034    -2.83049521
     26      H     0.96598618    -2.06082111    -0.73462770
     27      H     4.31960692     0.60337003    -0.75112425
     28      C     1.30607141    -3.75889530    -2.70987799
     29      C     4.88608124    -0.28313213     1.11240145
     30      H     2.66479053     2.30096938    -1.23418355
     31      H     1.64836992    -1.82360965    -3.56173883
     32      C     3.20778103     1.64297506     0.73996970
     33      C     3.13727685     1.95079851     2.09961866
     34      C     2.47574159     3.09682316     2.53970665
     35      C     1.87827044     3.95680526     1.62607843
     36      C     1.95822946     3.67106108     0.26440960
     37      C     2.61505730     2.52685736    -0.17145271
     38      H     3.59058775     1.29341313     2.83451372
     39      H     2.42310879     3.31236201     3.60504416
     40      H     1.34729178     4.83943689     1.97299917
     41      H     1.50418296     4.34351002    -0.46037537
     42      C    -0.48964249    -1.93981283    -3.32190158
     43      C    -0.74191948    -2.61101787    -4.68515103
     44      H    -1.69298577    -2.25986618    -5.10527460
     45      H    -0.80232796    -3.70131614    -4.60581797
     46      H     0.05054912    -2.36128533    -5.40254588
     47      C    -0.61131864    -0.41547042    -3.50539259
     48      H     0.10682218    -0.05093481    -4.25022778
     49      H    -1.62011771    -0.15327799    -3.84817734
     50      H    -0.41431679     0.11136683    -2.56675124
     51      C    -1.55440517    -2.41311133    -2.31718853
     52      H    -1.53051233    -3.49985347    -2.17636215
     53      H    -2.55755246    -2.15212741    -2.67794684
     54      C    -2.62812809     2.57214572     1.93215472
     55      C    -2.49027110     3.42448193     0.83296329
     56      C    -2.53944475     4.80591576     0.99235072
     57      C    -2.72256298     5.36156125     2.25548874
     58      C    -2.84455736     4.52390795     3.35967776
     59      C    -2.79301389     3.14189856     3.19781985
     60      H    -2.34673862     3.01685026    -0.16294626
     61      H    -2.43844509     5.45064974     0.12207172
     62      H    -2.76918345     6.44111332     2.37820539
     63      H    -2.98584633     4.94545045     4.35243708
     64      H    -2.89124874     2.49869390     4.06957289
 
Total System Charge             0.00000
Bonding info available!
 
 *** PESPoint(1)_GOStep76 ***
