

 Parallel Execution: Process Information
 ==============================================================================
 Rank   Node Name                              NodeID   MyNodeRank  NodeMaster
    0   DESKTOP-1M8FOJT                           0          0          0
    1   DESKTOP-1M8FOJT                           0          1         -1
    2   DESKTOP-1M8FOJT                           0          2         -1
    3   DESKTOP-1M8FOJT                           0          3         -1
 ==============================================================================


May use up to 4096MB of RAM as shared memory on node 0

 *******************************************************************************
 *                                                                             *
 *  --------------------------------                                           *
 *   Amsterdam Modeling Suite (AMS)              2022.101                      *
 *  --------------------------------                                           *
 *                                               r100871 2022-01-28            *
 *                                                                             *
 *                                                                             *
 *                              =================                              *
 *                              |               |                              *
 *                              |     A M S     |                              *
 *                              |               |                              *
 *                              =================                              *
 *                                                                             *
 *                                                                             *
 *   Online information and documentation:  https://www.scm.com/support/       *
 *   E-mail:  support@scm.com   info@scm.com                                   *
 *                                                                             *
 *   Scientific publications using AMS results must be properly referenced     *
 *   See the User Manuals (or the web site) for recommended citations          *
 *   The terms and conditions of the End User License Agreement apply to       *
 *   the use of AMS, https://www.scm.com/license-terms/                        *
 *                                                                             *
 *********************  x86_64_windows_intel / intelmpi  ***********************
 
 Licensed to: Mr. Yuman Hordijk / SCM / Amsterdam / Netherlands 2022-01-24 11:07:43
 SCM User ID: u24430
  
 AMS 2022.101  RunTime: Jan30-2022 15:07:28  ShM Nodes: 1  Procs: 4

 AMS jobname: ams
 AMS jobid  : 184947177

 Start   directory: Z:/SCMTMP/user/
 Results directory: Z:/SCMTMP/user/ams.results/
 Scratch directory: Z:/SCMTMP/amstmp_ams_kid0.184947177/


 Communication costs MPI_COMM_WORLD:      1.591 usec per message,   0.0041 usec per 8-byte item
 Communication costs for intra-node:      1.652 usec per message,   0.0051 usec per 8-byte item

 RNG seed: 2111690690 895190466 1217863891 14716016 -508436126 709111242 1255106209 -900159971
       ***************************
       *  GEOMETRY OPTIMIZATION  *
       ***************************

Optimization Method                    Quasi Newton
Optimization Coordinates               Delocalized Coordinates
Optimize lattice                       F
 
 ------------------------------------------------------
 Convergence criteria (Hartree,Angstrom)
 ------------------------------------------------------
 Maximum gradient               0.001000000000
 Maximum rms gradient           0.000666666667
 Maximum step allowed           0.010000000000
 Maximum rms step allowed       0.006666666667
 Maximum energy change allowe   0.000540000000
 Maximum stress energy allowe   0.000500000000
 
Initial model Hessian                  Automatic Hessian
 
------------------------------------
Quasi-Newton Optimizer Parameters
------------------------------------
Hessian Update Method                  BFGS
Maximum number of steps                  324
First GDIIS cycle                          0
Maximum GDIIS vectors                      0
Trust radius (bohr)                        0.200000
Trust radius varies                        T
Constraints converged at all steps         T
Use projector                              T
 
 Rigid motions settings for: old optimizer
 Atomic rotations (x,y,z):     T T T
 Atomic translations (x,y,z):  T T T
 Tolerance:                   1.000000000000000E-006
 
--------
Geometry
--------
Formula: C22H28N2OS
Atoms
  Index Symbol   x (angstrom)   y (angstrom)   z (angstrom)
      1      C     0.77102443    -0.92595019    -0.78625637
      2      C     0.74792474    -1.99754723     0.03067658
      3      C     1.12293913    -3.33320043    -0.39535933
      4      O     1.18005259    -4.28675494     0.35669142
      5      C    -0.07496408     3.09487686     0.28713928
      6      H     1.03942518    -1.06609541    -1.83214218
      7      H     0.47625109    -1.89768092     1.07345445
      8      H     1.37336406    -3.43408431    -1.47205090
      9      C     0.10998875     2.74111092    -1.04383890
     10      C     0.38460395     1.42679035    -1.37966774
     11      H     0.37752929     0.07712494     1.74974093
     12      H    -0.11484734     2.40201738     2.31926073
     13      H    -0.28535171     4.12515700     0.55071066
     14      H     0.04327646     3.49460443    -1.82067847
     15      H     0.53144363     1.15441582    -2.41962335
     16      C     0.47093294     0.43726540    -0.38941768
     17      C     0.28639955     0.80917434     0.95087951
     18      C     0.01833632     2.12612663     1.27931000
     19      N     2.36545875    -3.24673817     2.94015511
     20      C     1.20605848    -2.58975010     3.26023617
     21      S     1.14697534    -1.06741412     3.90388284
     22      N     0.10960142    -3.36495327     3.04289153
     23      C     3.62527814    -2.51629983     2.91498777
     24      H     2.27716762    -3.96544444     2.23118758
     25      C    -1.23720360    -2.85143403     3.21132410
     26      H     0.22254399    -4.17564654     2.45106025
     27      H     3.61482496    -1.81539623     3.75589950
     28      H    -1.16513349    -1.75947063     3.30400527
     29      H     4.43604771    -3.23938589     3.05027326
     30      H     3.25118381     0.13020606     2.43139321
     31      H    -1.82290119    -3.10043198     2.31907066
     32      C     3.78943383    -1.77436276     1.60724719
     33      C     4.15186765    -2.46274524     0.45132000
     34      C     4.28206090    -1.78879546    -0.75464952
     35      C     4.05169001    -0.42046204    -0.81632730
     36      C     3.68733097     0.27003554     0.33179142
     37      C     3.55238901    -0.40449502     1.53712103
     38      H     4.33541311    -3.53113142     0.49509681
     39      H     4.56589969    -2.33246827    -1.64914879
     40      H     4.15665139     0.10663893    -1.75817170
     41      H     3.50386609     1.33791361     0.28735674
     42      C    -1.91537597    -3.43299793     4.46962916
     43      C    -3.30362323    -2.79198341     4.60587814
     44      H    -3.82054408    -3.19140402     5.47891141
     45      H    -3.21342045    -1.71123489     4.72145448
     46      H    -3.90836498    -2.99737278     3.72134381
     47      C    -2.05903616    -4.95448440     4.32357337
     48      H    -2.66139862    -5.20004399     3.44771343
     49      H    -2.54064621    -5.37662226     5.20611277
     50      H    -1.07735152    -5.41589180     4.21076238
     51      C    -1.06959821    -3.10847519     5.70800737
     52      H    -0.89353427    -2.03424838     5.77504881
     53      H    -1.57758453    -3.44246634     6.61329794
     54      H    -0.10370970    -3.60968835     5.64526141
 
Total System Charge             0.00000
Bonding info available!
 
 
-------------------------
DFTB Engine configuration
-------------------------
DFTB Resources dir                     Z:/AMS2022.101/atomicdata/DFTB/GFN1-xTB
 
SCC convergence enabled.
Maximum SCC cycles                       500
SCC charge convergence                   0.000000010000
SCC charge mixing                        0.150000000000
DIIS max dimension                       20
DIIS maximum coeff.                     10.000000000000
Adaptive SCC charge mixing             T
Adaptive SCC mixing strategy              3
Spin polarization                      F
Orbital-dependent SCC                  T
Orbital fill strategy                  Fermi
Fermi temperature (kelvin)                     300.0000
  ... kT (Hartree)                               0.0010
Use of symmetry                        T
Radial function extrapolation method   Auto

 Settings for Grimme D3 dispersion correction

      damping                        BJ
      s6                          1.000
      s8                          2.400
      a1                          0.630
      a2                          5.000

 Other (technical) parameters

      alpha                      14.000
      version                         4
 

---------------------
Periodic DFTB options
---------------------
 kpoints config
 grid method with params
Assume insulator                        F
Ewald tolerance                    1.00E-10
Ewald range factor                  2.00

 BZStruct config
 ---------------
 Enabled        T
 Automatic      T
 CalcFatBands   T
 useSymmetry    T
 deltaK          0.100000000000000     
 
 Using automatic Hessian for delocalized coordinates.
 
----------------------------------------------------------------------
Geometry Convergence after Step   1       (Hartree/Angstrom,Angstrom)
----------------------------------------------------------------------
current energy                              -76.35413901 Hartree
energy change                     -76.35413901     0.00054000    F
constrained gradient max            0.00038204     0.00100000    T
constrained gradient rms            0.00007822     0.00066667    T
gradient max                        0.00038204
gradient rms                        0.00007822
cart. step max                      0.00152244     0.01000000    T
cart. step rms                      0.00035796     0.00666667    T
 
 
--------
Geometry
--------
Formula: C22H28N2OS
Atoms
  Index Symbol   x (angstrom)   y (angstrom)   z (angstrom)
      1      C     0.77099294    -0.92575212    -0.78626799
      2      C     0.74802977    -1.99737472     0.03063693
      3      C     1.12273597    -3.33310459    -0.39546564
      4      O     1.18013110    -4.28656063     0.35652878
      5      C    -0.07464799     3.09506422     0.28737090
      6      H     1.03908991    -1.06586292    -1.83225556
      7      H     0.47685293    -1.89728662     1.07354488
      8      H     1.37268478    -3.43419235    -1.47219436
      9      C     0.11008420     2.74132833    -1.04364991
     10      C     0.38467244     1.42703034    -1.37956293
     11      H     0.37793223     0.07721955     1.74972787
     12      H    -0.11512250     2.40201282     2.31940214
     13      H    -0.28588147     4.12518102     0.55090593
     14      H     0.04342030     3.49489130    -1.82042989
     15      H     0.53187588     1.15477824    -2.41949378
     16      C     0.47108640     0.43746251    -0.38935037
     17      C     0.28671503     0.80933663     0.95098581
     18      C     0.01884479     2.12631336     1.27951043
     19      N     2.36547005    -3.24680103     2.94012685
     20      C     1.20613266    -2.58977640     3.26024770
     21      S     1.14717356    -1.06749100     3.90389139
     22      N     0.10958010    -3.36495023     3.04258560
     23      C     3.62530041    -2.51648071     2.91496961
     24      H     2.27698777    -3.96560038     2.23126959
     25      C    -1.23723952    -2.85155438     3.21124156
     26      H     0.22250219    -4.17543994     2.45036183
     27      H     3.61493109    -1.81543941     3.75576876
     28      H    -1.16546985    -1.75957075     3.30375712
     29      H     4.43612676    -3.23945609     3.05029412
     30      H     3.25148565     0.13012861     2.43129525
     31      H    -1.82307781    -3.10076456     2.31913828
     32      C     3.78954233    -1.77449323     1.60711778
     33      C     4.15183700    -2.46291234     0.45117125
     34      C     4.28201698    -1.78894116    -0.75478741
     35      C     4.05171389    -0.42059309    -0.81648505
     36      C     3.68754343     0.26989567     0.33167952
     37      C     3.55262320    -0.40460508     1.53702880
     38      H     4.33514320    -3.53133733     0.49483249
     39      H     4.56557312    -2.33264896    -1.64935890
     40      H     4.15646830     0.10643881    -1.75838463
     41      H     3.50408209     1.33777810     0.28729972
     42      C    -1.91540174    -3.43303616     4.46973429
     43      C    -3.30393801    -2.79257512     4.60548483
     44      H    -3.82081691    -3.19185875     5.47860492
     45      H    -3.21420681    -1.71173963     4.72062186
     46      H    -3.90844205    -2.99860581     3.72093947
     47      C    -2.05844662    -4.95463331     4.32408131
     48      H    -2.66084287    -5.20064893     3.44837294
     49      H    -2.53973527    -5.37674273     5.20680411
     50      H    -1.07656338    -5.41560269     4.21121999
     51      C    -1.07014219    -3.10788424     5.70829561
     52      H    -0.89364189    -2.03367548     5.77458501
     53      H    -1.57871448    -3.44094390     6.61359425
     54      H    -0.10440548    -3.60951711     5.64648321
 
Total System Charge             0.00000
Bonding info available!
 

 dE(predicted):    -0.47374E-06, dE(actual):    -0.10214E-05, Trust radius:    0.200000, all in a.u.
 
---------------------------------------------------------
Geometry Convergence after Step   2       ** CONVERGED **
---------------------------------------------------------
current energy                              -76.35414003 Hartree
energy change                      -0.00000102     0.00054000    T
constrained gradient max            0.00033986     0.00100000    T
constrained gradient rms            0.00005880     0.00066667    T
gradient max                        0.00033986
gradient rms                        0.00005880
cart. step max                      0.00633373     0.01000000    T
cart. step rms                      0.00126483     0.00666667    T
 
Geometry optimization converged

Optimized geometry:
 
--------
Geometry
--------
Formula: C22H28N2OS
Atoms
  Index Symbol   x (angstrom)   y (angstrom)   z (angstrom)
      1      C     0.77099294    -0.92575212    -0.78626799
      2      C     0.74802977    -1.99737472     0.03063693
      3      C     1.12273597    -3.33310459    -0.39546564
      4      O     1.18013110    -4.28656063     0.35652878
      5      C    -0.07464799     3.09506422     0.28737090
      6      H     1.03908991    -1.06586292    -1.83225556
      7      H     0.47685293    -1.89728662     1.07354488
      8      H     1.37268478    -3.43419235    -1.47219436
      9      C     0.11008420     2.74132833    -1.04364991
     10      C     0.38467244     1.42703034    -1.37956293
     11      H     0.37793223     0.07721955     1.74972787
     12      H    -0.11512250     2.40201282     2.31940214
     13      H    -0.28588147     4.12518102     0.55090593
     14      H     0.04342030     3.49489130    -1.82042989
     15      H     0.53187588     1.15477824    -2.41949378
     16      C     0.47108640     0.43746251    -0.38935037
     17      C     0.28671503     0.80933663     0.95098581
     18      C     0.01884479     2.12631336     1.27951043
     19      N     2.36547005    -3.24680103     2.94012685
     20      C     1.20613266    -2.58977640     3.26024770
     21      S     1.14717356    -1.06749100     3.90389139
     22      N     0.10958010    -3.36495023     3.04258560
     23      C     3.62530041    -2.51648071     2.91496961
     24      H     2.27698777    -3.96560038     2.23126959
     25      C    -1.23723952    -2.85155438     3.21124156
     26      H     0.22250219    -4.17543994     2.45036183
     27      H     3.61493109    -1.81543941     3.75576876
     28      H    -1.16546985    -1.75957075     3.30375712
     29      H     4.43612676    -3.23945609     3.05029412
     30      H     3.25148565     0.13012861     2.43129525
     31      H    -1.82307781    -3.10076456     2.31913828
     32      C     3.78954233    -1.77449323     1.60711778
     33      C     4.15183700    -2.46291234     0.45117125
     34      C     4.28201698    -1.78894116    -0.75478741
     35      C     4.05171389    -0.42059309    -0.81648505
     36      C     3.68754343     0.26989567     0.33167952
     37      C     3.55262320    -0.40460508     1.53702880
     38      H     4.33514320    -3.53133733     0.49483249
     39      H     4.56557312    -2.33264896    -1.64935890
     40      H     4.15646830     0.10643881    -1.75838463
     41      H     3.50408209     1.33777810     0.28729972
     42      C    -1.91540174    -3.43303616     4.46973429
     43      C    -3.30393801    -2.79257512     4.60548483
     44      H    -3.82081691    -3.19185875     5.47860492
     45      H    -3.21420681    -1.71173963     4.72062186
     46      H    -3.90844205    -2.99860581     3.72093947
     47      C    -2.05844662    -4.95463331     4.32408131
     48      H    -2.66084287    -5.20064893     3.44837294
     49      H    -2.53973527    -5.37674273     5.20680411
     50      H    -1.07656338    -5.41560269     4.21121999
     51      C    -1.07014219    -3.10788424     5.70829561
     52      H    -0.89364189    -2.03367548     5.77458501
     53      H    -1.57871448    -3.44094390     6.61359425
     54      H    -0.10440548    -3.60951711     5.64648321
 
Total System Charge             0.00000
Bonding info available!
 
Performing a single point calculation on the final geometry ...

Estimated upper bound for memory consumption:    2.359 MiB

Number of basis functions:          165
    Cycle:   1, MaxQDiff:   0.000000012695, PartialEnergy:     -77.4262264891, Used mix:   0.150 nvec:    0
    Cycle:   2, MaxQDiff:   0.000000009503, PartialEnergy:     -77.4262264891, Used mix:   0.150 nvec:    1
 Evaluation was successful


    =====================
     CALCULATION RESULTS
    =====================

Energy (hartree)           -76.35414003

Gradients (hartree/bohr)
  Index   Atom            d/dx            d/dy            d/dz
      1      C    0.0000438612   -0.0000023018   -0.0000027416
      2      C   -0.0000208746    0.0000535715    0.0000108891
      3      C    0.0000553787   -0.0000150034    0.0000647343
      4      O    0.0000143137    0.0000075974   -0.0001798463
      5      C    0.0000292153    0.0000087207   -0.0000035455
      6      H    0.0000176612    0.0000003441    0.0000126521
      7      H   -0.0000995937   -0.0000426318   -0.0000495688
      8      H    0.0000331620    0.0000118419   -0.0000048538
      9      C   -0.0000139750    0.0000041996    0.0000025460
     10      C   -0.0000132663   -0.0000086637    0.0000033150
     11      H   -0.0000235549    0.0000003189    0.0000363499
     12      H   -0.0000143015   -0.0000017158    0.0000016187
     13      H   -0.0000148568   -0.0000034685    0.0000002662
     14      H    0.0000031063   -0.0000018406   -0.0000005655
     15      H    0.0000088194    0.0000020002   -0.0000010327
     16      C   -0.0000044328    0.0000059629    0.0000047729
     17      C    0.0000151454   -0.0000097660   -0.0000208467
     18      C    0.0000206989   -0.0000021779    0.0000025870
     19      N   -0.0000538923   -0.0000378045    0.0000254420
     20      C   -0.0000065474   -0.0000465125   -0.0000398734
     21      S    0.0000114618    0.0000347743   -0.0000040411
     22      N    0.0000478027    0.0000491372    0.0000645638
     23      C    0.0000525616    0.0000840901   -0.0000734081
     24      H    0.0000224020    0.0000190455   -0.0000296855
     25      C   -0.0000678089   -0.0000320569    0.0000291272
     26      H   -0.0000570971   -0.0000295567    0.0001650864
     27      H   -0.0000040056   -0.0000082625    0.0000059001
     28      H    0.0000081299    0.0000052177    0.0000035068
     29      H   -0.0000007469   -0.0000165388    0.0000039972
     30      H   -0.0000009244   -0.0000013521    0.0000051239
     31      H    0.0000113884    0.0000047742   -0.0000085952
     32      C    0.0000019076   -0.0000430741    0.0000703322
     33      C    0.0000040624   -0.0000064432   -0.0000316728
     34      C   -0.0000093657   -0.0000013524   -0.0000137676
     35      C   -0.0000008772   -0.0000135510   -0.0000043323
     36      C   -0.0000333112    0.0000085424   -0.0000024597
     37      C    0.0000012995    0.0000006594   -0.0000181066
     38      H    0.0000054722   -0.0000020696    0.0000086340
     39      H    0.0000022691    0.0000013896    0.0000027260
     40      H    0.0000045002    0.0000058269    0.0000000540
     41      H    0.0000089281   -0.0000013230   -0.0000044979
     42      C    0.0000249763    0.0000033514   -0.0000574252
     43      C    0.0000014717    0.0000093318    0.0000075991
     44      H   -0.0000016450   -0.0000009177   -0.0000004054
     45      H   -0.0000002393   -0.0000013452    0.0000013100
     46      H    0.0000010320    0.0000011284   -0.0000018458
     47      C   -0.0000100739    0.0000177298    0.0000070099
     48      H    0.0000040100   -0.0000013276   -0.0000029736
     49      H   -0.0000050363   -0.0000027681   -0.0000006210
     50      H   -0.0000008000   -0.0000043330    0.0000061227
     51      C    0.0000163623    0.0000042977    0.0000094706
     52      H   -0.0000152221   -0.0000025250    0.0000061033
     53      H    0.0000035095   -0.0000114775    0.0000018485
     54      H   -0.0000024605    0.0000083074   -0.0000069769

-----------
Bond orders
-----------

Description: Mayer bond orders
Only bonds with bond orders > 0.200 are printed.

 Index  Atom    Index  Atom    BondOrder
     1     C        2     C        1.728
     1     C        6     H        0.967
     1     C       16     C        1.130
     2     C        3     C        1.115
     2     C        7     H        0.955
     3     C        4     O        1.730
     3     C        8     H        0.942
     5     C        9     C        1.428
     5     C       13     H        0.973
     5     C       18     C        1.426
     9     C       10     C        1.465
     9     C       14     H        0.972
    10     C       15     H        0.971
    10     C       16     C        1.360
    11     H       17     C        0.953
    12     H       18     C        0.971
    16     C       17     C        1.357
    17     C       18     C        1.468
    19     N       20     C        1.172
    19     N       23     C        0.953
    19     N       24     H        0.901
    20     C       21     S        1.451
    20     C       22     N        1.203
    22     N       25     C        0.958
    22     N       26     H        0.904
    23     C       27     H        0.969
    23     C       29     H        0.975
    23     C       32     C        0.995
    25     C       28     H        0.963
    25     C       31     H        0.977
    25     C       42     C        0.978
    30     H       37     C        0.967
    32     C       33     C        1.415
    32     C       37     C        1.420
    33     C       34     C        1.447
    33     C       38     H        0.972
    34     C       35     C        1.438
    34     C       39     H        0.973
    35     C       36     C        1.440
    35     C       40     H        0.974
    36     C       37     C        1.443
    36     C       41     H        0.973
    42     C       43     C        1.001
    42     C       47     C        1.002
    42     C       51     C        1.002
    43     C       44     H        0.985
    43     C       45     H        0.986
    43     C       46     H        0.986
    47     C       48     H        0.986
    47     C       49     H        0.986
    47     C       50     H        0.984
    51     C       52     H        0.982
    51     C       53     H        0.987
    51     C       54     H        0.984


--------------
Atomic charges
--------------
  Index   Atom    Charge
      1      C    0.0168
      2      C   -0.0937
      3      C    0.3806
      4      O   -0.5105
      5      C   -0.0176
      6      H    0.0341
      7      H    0.0622
      8      H    0.0098
      9      C   -0.0261
     10      C   -0.0274
     11      H    0.0428
     12      H    0.0420
     13      H    0.0360
     14      H    0.0349
     15      H    0.0336
     16      C    0.0026
     17      C   -0.0220
     18      C   -0.0209
     19      N   -0.3585
     20      C    0.3414
     21      S   -0.3499
     22      N   -0.3494
     23      C    0.0871
     24      H    0.2344
     25      C    0.0775
     26      H    0.2331
     27      H    0.0399
     28      H    0.0316
     29      H    0.0298
     30      H    0.0352
     31      H    0.0228
     32      C   -0.0054
     33      C   -0.0410
     34      C   -0.0333
     35      C   -0.0375
     36      C   -0.0297
     37      C   -0.0344
     38      H    0.0337
     39      H    0.0279
     40      H    0.0266
     41      H    0.0284
     42      C    0.0278
     43      C   -0.1019
     44      H    0.0337
     45      H    0.0326
     46      H    0.0276
     47      C   -0.1006
     48      H    0.0276
     49      H    0.0319
     50      H    0.0333
     51      C   -0.0974
     52      H    0.0348
     53      H    0.0267
     54      H    0.0367


Dipole moment vector    (Debye):    -0.74770743    1.39095692   -2.89013650
              magnitude (Debye):     3.29343537

 
--------------------
Energy Decomposition
--------------------
Total Energy (hartree)               -76.35414003
Total Energy (eV)                  -2077.70186450
Electronic Energy (hartree)          -77.51606046
Coulomb Energy (hartree)               0.08983397
Repulsion Energy (hartree)             1.11575549
Dispersion Energy (hartree)           -0.04366903
 
----------------------
Gradient Decomposition
----------------------
Total Gradients (hartree/bohr)
  Index   Atom            d/dx            d/dy            d/dz
      1      C    0.0000438612   -0.0000023018   -0.0000027416
      2      C   -0.0000208746    0.0000535715    0.0000108891
      3      C    0.0000553787   -0.0000150034    0.0000647343
      4      O    0.0000143137    0.0000075974   -0.0001798463
      5      C    0.0000292153    0.0000087207   -0.0000035455
      6      H    0.0000176612    0.0000003441    0.0000126521
      7      H   -0.0000995937   -0.0000426318   -0.0000495688
      8      H    0.0000331620    0.0000118419   -0.0000048538
      9      C   -0.0000139750    0.0000041996    0.0000025460
     10      C   -0.0000132663   -0.0000086637    0.0000033150
     11      H   -0.0000235549    0.0000003189    0.0000363499
     12      H   -0.0000143015   -0.0000017158    0.0000016187
     13      H   -0.0000148568   -0.0000034685    0.0000002662
     14      H    0.0000031063   -0.0000018406   -0.0000005655
     15      H    0.0000088194    0.0000020002   -0.0000010327
     16      C   -0.0000044328    0.0000059629    0.0000047729
     17      C    0.0000151454   -0.0000097660   -0.0000208467
     18      C    0.0000206989   -0.0000021779    0.0000025870
     19      N   -0.0000538923   -0.0000378045    0.0000254420
     20      C   -0.0000065474   -0.0000465125   -0.0000398734
     21      S    0.0000114618    0.0000347743   -0.0000040411
     22      N    0.0000478027    0.0000491372    0.0000645638
     23      C    0.0000525616    0.0000840901   -0.0000734081
     24      H    0.0000224020    0.0000190455   -0.0000296855
     25      C   -0.0000678089   -0.0000320569    0.0000291272
     26      H   -0.0000570971   -0.0000295567    0.0001650864
     27      H   -0.0000040056   -0.0000082625    0.0000059001
     28      H    0.0000081299    0.0000052177    0.0000035068
     29      H   -0.0000007469   -0.0000165388    0.0000039972
     30      H   -0.0000009244   -0.0000013521    0.0000051239
     31      H    0.0000113884    0.0000047742   -0.0000085952
     32      C    0.0000019076   -0.0000430741    0.0000703322
     33      C    0.0000040624   -0.0000064432   -0.0000316728
     34      C   -0.0000093657   -0.0000013524   -0.0000137676
     35      C   -0.0000008772   -0.0000135510   -0.0000043323
     36      C   -0.0000333112    0.0000085424   -0.0000024597
     37      C    0.0000012995    0.0000006594   -0.0000181066
     38      H    0.0000054722   -0.0000020696    0.0000086340
     39      H    0.0000022691    0.0000013896    0.0000027260
     40      H    0.0000045002    0.0000058269    0.0000000540
     41      H    0.0000089281   -0.0000013230   -0.0000044979
     42      C    0.0000249763    0.0000033514   -0.0000574252
     43      C    0.0000014717    0.0000093318    0.0000075991
     44      H   -0.0000016450   -0.0000009177   -0.0000004054
     45      H   -0.0000002393   -0.0000013452    0.0000013100
     46      H    0.0000010320    0.0000011284   -0.0000018458
     47      C   -0.0000100739    0.0000177298    0.0000070099
     48      H    0.0000040100   -0.0000013276   -0.0000029736
     49      H   -0.0000050363   -0.0000027681   -0.0000006210
     50      H   -0.0000008000   -0.0000043330    0.0000061227
     51      C    0.0000163623    0.0000042977    0.0000094706
     52      H   -0.0000152221   -0.0000025250    0.0000061033
     53      H    0.0000035095   -0.0000114775    0.0000018485
     54      H   -0.0000024605    0.0000083074   -0.0000069769
 
Total Gradients (eV/angstrom)
  Index   Atom            d/dx            d/dy            d/dz
      1      C    0.0022554335   -0.0001183631   -0.0001409789
      2      C   -0.0010734158    0.0027547564    0.0005599382
      3      C    0.0028476856   -0.0007715047    0.0033287707
      4      O    0.0007360399    0.0003906760   -0.0092480691
      5      C    0.0015023089    0.0004484388   -0.0001823171
      6      H    0.0009081775    0.0000176946    0.0006505994
      7      H   -0.0051213149   -0.0021922148   -0.0025489276
      8      H    0.0017052564    0.0006089359   -0.0002495926
      9      C   -0.0007186213    0.0002159509    0.0001309210
     10      C   -0.0006821828   -0.0004455057    0.0001704633
     11      H   -0.0012112404    0.0000163992    0.0018691893
     12      H   -0.0007354105   -0.0000882316    0.0000832368
     13      H   -0.0007639667   -0.0001783595    0.0000136871
     14      H    0.0001597319   -0.0000946467   -0.0000290803
     15      H    0.0004535117    0.0001028527   -0.0000531038
     16      C   -0.0002279425    0.0003066263    0.0002454346
     17      C    0.0007788094   -0.0005021870   -0.0010719799
     18      C    0.0010643789   -0.0001119925    0.0001330275
     19      N   -0.0027712523   -0.0019439846    0.0013082811
     20      C   -0.0003366804   -0.0023917711   -0.0020503748
     21      S    0.0005893907    0.0017881670   -0.0002078000
     22      N    0.0024581138    0.0025267369    0.0033200023
     23      C    0.0027028238    0.0043240890   -0.0037747956
     24      H    0.0011519547    0.0009793593   -0.0015264912
     25      C   -0.0034868729   -0.0016484321    0.0014977822
     26      H   -0.0029360520   -0.0015198649    0.0084890826
     27      H   -0.0002059787   -0.0004248763    0.0003033961
     28      H    0.0004180554    0.0002683030    0.0001803281
     29      H   -0.0000384060   -0.0008504602    0.0002055458
     30      H   -0.0000475327   -0.0000695296    0.0002634841
     31      H    0.0005856148    0.0002455012   -0.0004419852
     32      C    0.0000980935   -0.0022149599    0.0036166280
     33      C    0.0002088964   -0.0003313228   -0.0016286784
     34      C   -0.0004816040   -0.0000695429   -0.0007079608
     35      C   -0.0000451050   -0.0006968208   -0.0002227783
     36      C   -0.0017129284    0.0004392666   -0.0001264818
     37      C    0.0000668253    0.0000339069   -0.0009310803
     38      H    0.0002813899   -0.0001064226    0.0004439806
     39      H    0.0001166821    0.0000714564    0.0001401756
     40      H    0.0002314071    0.0002996317    0.0000027745
     41      H    0.0004591027   -0.0000680339   -0.0002312911
     42      C    0.0012843332    0.0001723378   -0.0029529212
     43      C    0.0000756757    0.0004798609    0.0003907602
     44      H   -0.0000845869   -0.0000471919   -0.0000208441
     45      H   -0.0000123047   -0.0000691727    0.0000673619
     46      H    0.0000530661    0.0000580232   -0.0000949162
     47      C   -0.0005180222    0.0009117054    0.0003604629
     48      H    0.0002062035   -0.0000682671   -0.0001529091
     49      H   -0.0002589746   -0.0001423418   -0.0000319316
     50      H   -0.0000411380   -0.0002228129    0.0003148438
     51      C    0.0008413809    0.0002209947    0.0004869997
     52      H   -0.0007827534   -0.0001298409    0.0003138442
     53      H    0.0001804661   -0.0005901982    0.0000950543
     54      H   -0.0001265224    0.0004271819   -0.0003587669
 
Electronic Gradients (hartree/bohr)
  Index   Atom            d/dx            d/dy            d/dz
      1      C    0.0013165223    0.0538918280   -0.0423961291
      2      C   -0.0035939212   -0.0531656601    0.0403551887
      3      C   -0.0001853300    0.0435417888   -0.0493301236
      4      O    0.0068215307   -0.1062897717    0.0875300373
      5      C   -0.0083755999    0.0384648923    0.0100960429
      6      H    0.0170554450   -0.0087611913   -0.0659930739
      7      H   -0.0180491311    0.0065583296    0.0699168172
      8      H    0.0133425212   -0.0053506376   -0.0568652859
      9      C   -0.0036465363    0.0319150836   -0.0280194967
     10      C    0.0071669713   -0.0197242322   -0.0329220627
     11      H    0.0060068623   -0.0469942859    0.0514575364
     12      H   -0.0087264663    0.0179329227    0.0683893087
     13      H   -0.0138737244    0.0676436758    0.0173335592
     14      H   -0.0043498562    0.0493787739   -0.0509060072
     15      H    0.0096497248   -0.0177406132   -0.0677162322
     16      C    0.0044456696   -0.0292234191   -0.0045399962
     17      C    0.0033607589   -0.0368927906    0.0193732714
     18      C   -0.0060300659    0.0144281808    0.0389792130
     19      N    0.0348530679    0.0012173220    0.0374745304
     20      C    0.0045936102    0.0083840981    0.0008358755
     21      S   -0.0029993883    0.0717132812    0.0286202847
     22      N   -0.0347932652    0.0057492284    0.0289825439
     23      C   -0.0204219972   -0.0036756849   -0.0157421647
     24      H   -0.0075989566   -0.0561275497   -0.0562362053
     25      C    0.0114086159   -0.0189206983    0.0190051943
     26      H    0.0094883453   -0.0651117346   -0.0483674959
     27      H   -0.0010969830    0.0422463271    0.0506574835
     28      H    0.0045690446    0.0638442184    0.0054883760
     29      H    0.0485723800   -0.0435285225    0.0081309641
     30      H   -0.0199497454    0.0348782726    0.0585408464
     31      H   -0.0346530665   -0.0148187378   -0.0530730030
     32      C   -0.0044589700   -0.0296707250    0.0524509871
     33      C    0.0055451258   -0.0392293585    0.0049471125
     34      C    0.0103624779   -0.0200391451   -0.0348085442
     35      C    0.0037181551    0.0199977904   -0.0364071977
     36      C   -0.0069351111    0.0409819333   -0.0021277469
     37      C   -0.0103402676    0.0184187340    0.0340588132
     38      H    0.0118052989   -0.0696462663    0.0028608028
     39      H    0.0184873916   -0.0355337561   -0.0583989445
     40      H    0.0067920075    0.0344935965   -0.0615792973
     41      H   -0.0121203525    0.0698290681   -0.0028619848
     42      C    0.0013591977    0.0000838583   -0.0012899492
     43      C    0.0248547325   -0.0113539755   -0.0030899059
     44      H   -0.0320586126   -0.0248565272    0.0543134716
     45      H    0.0056992184    0.0670825553    0.0071680583
     46      H   -0.0373418980   -0.0127729088   -0.0547294290
     47      C    0.0021898895    0.0272404527    0.0020446365
     48      H   -0.0372243892   -0.0151691832   -0.0541944606
     49      H   -0.0298821469   -0.0261682844    0.0548909633
     50      H    0.0610781410   -0.0284920698   -0.0070010334
     51      C   -0.0157325594   -0.0055259958   -0.0214044083
     52      H    0.0111182876    0.0667455088    0.0039617465
     53      H   -0.0315702826   -0.0206898457    0.0561842481
     54      H    0.0603476302   -0.0311881495   -0.0040477354
 
Coulomb Gradients (hartree/bohr)
  Index   Atom            d/dx            d/dy            d/dz
      1      C    0.0000160993   -0.0000328496   -0.0001888630
      2      C   -0.0000825069    0.0000386130    0.0006722676
      3      C   -0.0006808220    0.0129758781   -0.0102980554
      4      O    0.0004840980   -0.0136585130    0.0072354139
      5      C   -0.0000166845    0.0000830765    0.0000404613
      6      H   -0.0000482705   -0.0000509218    0.0001426760
      7      H   -0.0000422983    0.0001224259   -0.0003647696
      8      H   -0.0000474804    0.0001262441    0.0000944642
      9      C   -0.0000075581    0.0000666425   -0.0000378497
     10      C    0.0000036140    0.0000074693   -0.0000461786
     11      H   -0.0001164249    0.0000971174   -0.0004157373
     12      H   -0.0000278791    0.0000529115   -0.0001838872
     13      H    0.0000125364   -0.0000795029   -0.0000384902
     14      H    0.0000041853   -0.0000546465    0.0000417698
     15      H    0.0000003949   -0.0000428598    0.0000662883
     16      C    0.0000092226   -0.0000860815   -0.0000353117
     17      C    0.0000129793   -0.0000556317    0.0001174835
     18      C   -0.0000049624    0.0000147347    0.0001213653
     19      N    0.0013800055    0.0010205877    0.0032988793
     20      C   -0.0001560145   -0.0005470093   -0.0020082555
     21      S    0.0000058391    0.0032084587    0.0025840207
     22      N   -0.0014208786    0.0013807225    0.0029214634
     23      C    0.0016569122    0.0005861976   -0.0001494486
     24      H    0.0003444137   -0.0024354012   -0.0017135091
     25      C   -0.0015072983    0.0004370737   -0.0002190031
     26      H   -0.0000252864   -0.0030372355   -0.0013098709
     27      H    0.0003826024   -0.0001729010   -0.0002845088
     28      H   -0.0002950178   -0.0001969734   -0.0001525026
     29      H    0.0000008372    0.0001641309   -0.0000685516
     30      H    0.0001382485    0.0000046068   -0.0001543037
     31      H   -0.0000195630    0.0000605885    0.0000740511
     32      C    0.0000063656   -0.0000690515    0.0001419130
     33      C    0.0000162588   -0.0000579812    0.0000189296
     34      C    0.0000660193   -0.0000287382   -0.0000143852
     35      C    0.0000711596    0.0000273108    0.0000043162
     36      C    0.0000274080    0.0000595117    0.0000424513
     37      C   -0.0000309439    0.0000331098    0.0001144950
     38      H    0.0000301721    0.0000580130    0.0000262655
     39      H   -0.0000497394    0.0000102252   -0.0000114644
     40      H   -0.0000475663   -0.0000083143   -0.0000180387
     41      H   -0.0000253216   -0.0000114951   -0.0000378234
     42      C   -0.0000086379    0.0001201094   -0.0002736032
     43      C    0.0000042065   -0.0000084023    0.0001606590
     44      H   -0.0000534995   -0.0000138676    0.0000218063
     45      H   -0.0000227373    0.0000329479   -0.0000479128
     46      H   -0.0000051194    0.0000045161   -0.0000643812
     47      C    0.0000891184   -0.0000149817    0.0000997187
     48      H   -0.0000261598    0.0000090218   -0.0000537901
     49      H   -0.0000420344   -0.0000366113    0.0000258164
     50      H    0.0000105462   -0.0000606981   -0.0000404336
     51      C    0.0002530553    0.0001243490   -0.0000144625
     52      H   -0.0001488693   -0.0000251287    0.0000621614
     53      H   -0.0000475184   -0.0000294802    0.0000438544
     54      H   -0.0000192051   -0.0001113168    0.0000724007
 
Repulsion Gradients (hartree/bohr)
  Index   Atom            d/dx            d/dy            d/dz
      1      C   -0.0011238670   -0.0539185461    0.0428686688
      2      C    0.0038067222    0.0532837761   -0.0407951493
      3      C    0.0010220374   -0.0563000557    0.0599877683
      4      O   -0.0072362990    0.1201973844   -0.0947955723
      5      C    0.0085053341   -0.0386444533   -0.0101065611
      6      H   -0.0169124513    0.0088366003    0.0659858548
      7      H    0.0180834078   -0.0066733432   -0.0695452861
      8      H   -0.0132034983    0.0053423104    0.0568756641
      9      C    0.0037367323   -0.0320956644    0.0280906005
     10      C   -0.0070350052    0.0195715693    0.0330229474
     11      H   -0.0058275809    0.0467734735   -0.0510277214
     12      H    0.0087923222   -0.0180944746   -0.0682477940
     13      H    0.0138696000   -0.0676373895   -0.0173037359
     14      H    0.0043691762   -0.0493881966    0.0509094478
     15      H   -0.0095897780    0.0177364806    0.0677471832
     16      C   -0.0042618567    0.0290687329    0.0047301512
     17      C   -0.0031885130    0.0366312631   -0.0193588746
     18      C    0.0061940773   -0.0146898466   -0.0390363565
     19      N   -0.0364429786   -0.0021774458   -0.0408803428
     20      C   -0.0045027988   -0.0077811163    0.0009494024
     21      S    0.0029030959   -0.0749789453   -0.0317029784
     22      N    0.0363067329   -0.0069747573   -0.0319355068
     23      C    0.0186356351    0.0032108251    0.0156826469
     24      H    0.0072185929    0.0587037961    0.0578838920
     25      C   -0.0098295622    0.0185070332   -0.0188616545
     26      H   -0.0094995918    0.0682299050    0.0498509362
     27      H    0.0006219304   -0.0420797382   -0.0504726813
     28      H   -0.0041834412   -0.0636616225   -0.0053914773
     29      H   -0.0486828869    0.0434096033   -0.0081274838
     30      H    0.0196869209   -0.0349586496   -0.0584628364
     31      H    0.0348092178    0.0148071415    0.0530097010
     32      C    0.0041679238    0.0296850877   -0.0525106148
     33      C   -0.0058186192    0.0392534412   -0.0049436277
     34      C   -0.0106876754    0.0200431068    0.0348903755
     35      C   -0.0040739078   -0.0200439372    0.0364531262
     36      C    0.0065431286   -0.0410630608    0.0021450092
     37      C    0.0100444882   -0.0184617998   -0.0341814530
     38      H   -0.0119511663    0.0696592305   -0.0028467863
     39      H   -0.0185415848    0.0355526769    0.0584956572
     40      H   -0.0068595987   -0.0345114633    0.0616781157
     41      H    0.0120093915   -0.0699038689    0.0029052079
     42      C   -0.0011949782   -0.0001459202    0.0014141803
     43      C   -0.0246959507    0.0113739900    0.0028793045
     44      H    0.0321908959    0.0248650388   -0.0543746563
     45      H   -0.0055739125   -0.0671600250   -0.0071543398
     46      H    0.0374507212    0.0127628915    0.0547975978
     47      C   -0.0021783229   -0.0270795576   -0.0021920947
     48      H    0.0373221633    0.0152438598    0.0542554602
     49      H    0.0299631776    0.0262805650   -0.0549543612
     50      H   -0.0610547969    0.0286657080    0.0070181011
     51      C    0.0155566898    0.0054240141    0.0212785065
     52      H   -0.0109697882   -0.0667588173   -0.0041213351
     53      H    0.0316451638    0.0207243273   -0.0563342764
     54      H   -0.0603348689    0.0313388627    0.0038600514
 
Dispersion Gradients (hartree/bohr)
  Index   Atom            d/dx            d/dy            d/dz
      1      C   -0.0001648934    0.0000572659   -0.0002864184
      2      C   -0.0001511687   -0.0001031576   -0.0002214179
      3      C   -0.0001005068   -0.0002326146   -0.0002948550
      4      O   -0.0000550159   -0.0002415022   -0.0001497252
      5      C   -0.0000838344    0.0001052053   -0.0000334885
      6      H   -0.0000770621   -0.0000241431   -0.0001228048
      7      H   -0.0000915721   -0.0000500440   -0.0000563303
      8      H   -0.0000583805   -0.0001060750   -0.0001096962
      9      C   -0.0000966129    0.0001181379   -0.0000307081
     10      C   -0.0001488464    0.0001365298   -0.0000513911
     11      H   -0.0000864113    0.0001240139    0.0000222723
     12      H   -0.0000522783    0.0001069246    0.0000439912
     13      H   -0.0000232688    0.0000697480    0.0000089331
     14      H   -0.0000203989    0.0000622287   -0.0000457759
     15      H   -0.0000515223    0.0000489925   -0.0000982720
     16      C   -0.0001974683    0.0002467306   -0.0001500704
     17      C   -0.0001700797    0.0003073933   -0.0001527269
     18      C   -0.0001383501    0.0002447533   -0.0000616348
     19      N    0.0001560129   -0.0000982684    0.0001323752
     20      C    0.0000586557   -0.0001024851    0.0001831043
     21      S    0.0001019151    0.0000919798    0.0004946320
     22      N   -0.0000447864   -0.0001060564    0.0000960633
     23      C    0.0001820114   -0.0000372477    0.0001355583
     24      H    0.0000583519   -0.0001217996    0.0000361369
     25      C   -0.0001395642   -0.0000554655    0.0001045905
     26      H   -0.0000205642   -0.0001104916   -0.0000084830
     27      H    0.0000884446   -0.0000019504    0.0001056066
     28      H   -0.0000824557    0.0000195951    0.0000591108
     29      H    0.0001089228   -0.0000617505    0.0000690684
     30      H    0.0001236516    0.0000744180    0.0000814177
     31      H   -0.0001251999   -0.0000442180   -0.0000193443
     32      C    0.0002865882    0.0000116147   -0.0000119531
     33      C    0.0002612970    0.0000274553   -0.0000540870
     34      C    0.0002498125    0.0000234241   -0.0000812138
     35      C    0.0002837159    0.0000052851   -0.0000545772
     36      C    0.0003312633    0.0000301581   -0.0000621733
     37      C    0.0003280228    0.0000106154   -0.0000099618
     38      H    0.0001211674   -0.0000730468   -0.0000316479
     39      H    0.0001062017   -0.0000277564   -0.0000825223
     40      H    0.0001196576    0.0000320081   -0.0000807257
     41      H    0.0001452107    0.0000849729   -0.0000098976
     42      C   -0.0001306053   -0.0000546961    0.0000919469
     43      C   -0.0001615166   -0.0000022803    0.0000575415
     44      H   -0.0000804288    0.0000044382    0.0000389731
     45      H   -0.0001028079    0.0000431765    0.0000355043
     46      H   -0.0001026718    0.0000066296   -0.0000056334
     47      C   -0.0001107589   -0.0001281835    0.0000547494
     48      H   -0.0000676042   -0.0000850259   -0.0000101832
     49      H   -0.0000440326   -0.0000784374    0.0000369604
     50      H   -0.0000346903   -0.0001172731    0.0000294887
     51      C   -0.0000608234   -0.0000180696    0.0001498349
     52      H   -0.0000148522    0.0000359122    0.0001035305
     53      H   -0.0000238532   -0.0000164789    0.0001080224
     54      H    0.0000039833   -0.0000310890    0.0001083064
 
----------------
Mulliken Charges
----------------
  Index   Atom          Charge      Population
      1      C    0.0168320249        3.983168
      2      C   -0.0936815686        4.093682
      3      C    0.3805627795        3.619437
      4      O   -0.5105312422        6.510531
      5      C   -0.0176207948        4.017621
      6      H    0.0341440371        0.965856
      7      H    0.0621880279        0.937812
      8      H    0.0098473927        0.990153
      9      C   -0.0260534400        4.026053
     10      C   -0.0274449420        4.027445
     11      H    0.0427788720        0.957221
     12      H    0.0420081093        0.957992
     13      H    0.0359909431        0.964009
     14      H    0.0348593718        0.965141
     15      H    0.0336121115        0.966388
     16      C    0.0025574258        3.997443
     17      C   -0.0219525451        4.021953
     18      C   -0.0209225963        4.020923
     19      N   -0.3585312120        5.358531
     20      C    0.3414132937        3.658587
     21      S   -0.3498837899        6.349884
     22      N   -0.3494212862        5.349421
     23      C    0.0870831466        3.912917
     24      H    0.2343569802        0.765643
     25      C    0.0774906145        3.922509
     26      H    0.2330906496        0.766909
     27      H    0.0399052461        0.960095
     28      H    0.0315711225        0.968429
     29      H    0.0297685611        0.970231
     30      H    0.0351968857        0.964803
     31      H    0.0227528351        0.977247
     32      C   -0.0053835347        4.005384
     33      C   -0.0410199909        4.041020
     34      C   -0.0332951226        4.033295
     35      C   -0.0374631522        4.037463
     36      C   -0.0296574915        4.029657
     37      C   -0.0343911644        4.034391
     38      H    0.0336774813        0.966323
     39      H    0.0278886679        0.972111
     40      H    0.0266105722        0.973389
     41      H    0.0284491148        0.971551
     42      C    0.0278050134        3.972195
     43      C   -0.1018663001        4.101866
     44      H    0.0336823944        0.966318
     45      H    0.0325878402        0.967412
     46      H    0.0275641670        0.972436
     47      C   -0.1006162405        4.100616
     48      H    0.0275560316        0.972444
     49      H    0.0318782807        0.968122
     50      H    0.0332684555        0.966732
     51      C   -0.0974296449        4.097430
     52      H    0.0348168956        0.965183
     53      H    0.0266883925        0.973312
     54      H    0.0366823209        0.963318
         Total    0.0000000001      138.000000
 
----------------------
Mulliken Shell Charges
----------------------
  Index   Atom      L          Charge      Population
      1      C      0    0.9166288114        1.083371
      2      C      1   -0.8997967866        2.899797
      3      C      0    0.9250047560        1.074995
      4      C      1   -1.0186863246        3.018686
      5      C      0    0.9642060517        1.035794
      6      C      1   -0.5836432722        2.583643
      7      O      0    0.2674961718        1.732504
      8      O      1   -0.7780274140        4.778027
      9      C      0    0.9363418171        1.063658
     10      C      1   -0.9539626120        2.953963
     11      H      0    0.0421107854        0.957889
     12      H      0   -0.0079667483        0.007967
     13      H      0    0.0743295233        0.925670
     14      H      0   -0.0121414954        0.012141
     15      H      0    0.0235232077        0.976477
     16      H      0   -0.0136758149        0.013676
     17      C      0    0.9423643686        1.057636
     18      C      1   -0.9684178085        2.968418
     19      C      0    0.9343602933        1.065640
     20      C      1   -0.9618052353        2.961805
     21      H      0    0.0690627842        0.930937
     22      H      0   -0.0262839121        0.026284
     23      H      0    0.0498633631        0.950137
     24      H      0   -0.0078552537        0.007855
     25      H      0    0.0440614939        0.955939
     26      H      0   -0.0080705508        0.008071
     27      H      0    0.0427888025        0.957211
     28      H      0   -0.0079294308        0.007929
     29      H      0    0.0407274523        0.959273
     30      H      0   -0.0071153408        0.007115
     31      C      0    0.9246102441        1.075390
     32      C      1   -0.9220528183        2.922053
     33      C      0    0.9278194210        1.072181
     34      C      1   -0.9497719662        2.949772
     35      C      0    0.9403154159        1.059685
     36      C      1   -0.9612380122        2.961238
     37      N      0    0.5594448947        1.440555
     38      N      1   -0.9179761067        3.917976
     39      C      0    0.9686716187        1.031328
     40      C      1   -0.6272583250        2.627258
     41      S      0    0.0773236897        1.922676
     42      S      1   -0.4382881298        4.438288
     43      S      2    0.0110806503       -0.011081
     44      N      0    0.5731054894        1.426895
     45      N      1   -0.9225267756        3.922527
     46      C      0    0.9931956680        1.006804
     47      C      1   -0.9061125215        2.906113
     48      H      0    0.2575765831        0.742423
     49      H      0   -0.0232196029        0.023220
     50      C      0    0.9857398196        1.014260
     51      C      1   -0.9082492051        2.908249
     52      H      0    0.2572943724        0.742706
     53      H      0   -0.0242037228        0.024204
     54      H      0    0.0668098873        0.933190
     55      H      0   -0.0269046412        0.026905
     56      H      0    0.0602317042        0.939768
     57      H      0   -0.0286605817        0.028661
     58      H      0    0.0451796690        0.954820
     59      H      0   -0.0154111078        0.015411
     60      H      0    0.0545119949        0.945488
     61      H      0   -0.0193151092        0.019315
     62      H      0    0.0351150253        0.964885
     63      H      0   -0.0123621902        0.012362
     64      C      0    0.9100240578        1.089976
     65      C      1   -0.9154075925        2.915408
     66      C      0    0.9388815498        1.061118
     67      C      1   -0.9799015407        2.979902
     68      C      0    0.9419174841        1.058083
     69      C      1   -0.9752126067        2.975213
     70      C      0    0.9421475120        1.057852
     71      C      1   -0.9796106642        2.979611
     72      C      0    0.9411548415        1.058845
     73      C      1   -0.9708123330        2.970812
     74      C      0    0.9359125122        1.064087
     75      C      1   -0.9703036766        2.970304
     76      H      0    0.0406601326        0.959340
     77      H      0   -0.0069826512        0.006983
     78      H      0    0.0362717770        0.963728
     79      H      0   -0.0083831091        0.008383
     80      H      0    0.0349721001        0.965028
     81      H      0   -0.0083615279        0.008362
     82      H      0    0.0374644222        0.962536
     83      H      0   -0.0090153074        0.009015
     84      C      0    0.9153009137        1.084699
     85      C      1   -0.8874959002        2.887496
     86      C      0    0.9853579532        1.014642
     87      C      1   -1.0872242533        3.087224
     88      H      0    0.0437170131        0.956283
     89      H      0   -0.0100346187        0.010035
     90      H      0    0.0423667498        0.957633
     91      H      0   -0.0097789096        0.009779
     92      H      0    0.0373872981        0.962613
     93      H      0   -0.0098231311        0.009823
     94      C      0    0.9861243372        1.013876
     95      C      1   -1.0867405778        3.086741
     96      H      0    0.0370969467        0.962903
     97      H      0   -0.0095409151        0.009541
     98      H      0    0.0417642789        0.958236
     99      H      0   -0.0098859981        0.009886
    100      H      0    0.0446776462        0.955322
    101      H      0   -0.0114091907        0.011409
    102      C      0    0.9865557911        1.013444
    103      C      1   -1.0839854360        3.083985
    104      H      0    0.0523154813        0.947685
    105      H      0   -0.0174985857        0.017499
    106      H      0    0.0363835090        0.963616
    107      H      0   -0.0096951165        0.009695
    108      H      0    0.0485914941        0.951409
    109      H      0   -0.0119091732        0.011909
                Total    0.0000000001      138.000000
 
 
--------
Orbitals
--------
Index of HOMO                   70
Fermi Energy (hartree)           -0.34607244
Orbitals
   Index  Energy (hartree)       Energy (eV)        Occupation  Degeneracy
       1       -0.79556835      -21.64851633        2.00000000           1
       2       -0.79221767      -21.55733954        2.00000000           1
       3       -0.78313032      -21.31006037        2.00000000           1
       4       -0.77264266      -21.02467649        2.00000000           1
       5       -0.68487476      -18.63639053        2.00000000           1
       6       -0.68284173      -18.58106879        2.00000000           1
       7       -0.67068407      -18.25024206        2.00000000           1
       8       -0.66775059      -18.17041809        2.00000000           1
       9       -0.66299722      -18.04107226        2.00000000           1
      10       -0.65847906      -17.91812690        2.00000000           1
      11       -0.65517509      -17.82822127        2.00000000           1
      12       -0.64738442      -17.61622631        2.00000000           1
      13       -0.64598164      -17.57805488        2.00000000           1
      14       -0.64072049      -17.43489150        2.00000000           1
      15       -0.63801527      -17.36127898        2.00000000           1
      16       -0.63097740      -17.16976853        2.00000000           1
      17       -0.62836435      -17.09866382        2.00000000           1
      18       -0.62639778      -17.04515075        2.00000000           1
      19       -0.62513133      -17.01068913        2.00000000           1
      20       -0.61973555      -16.86386222        2.00000000           1
      21       -0.61695067      -16.78808192        2.00000000           1
      22       -0.60960856      -16.58829290        2.00000000           1
      23       -0.60536560      -16.47283614        2.00000000           1
      24       -0.59481667      -16.18578508        2.00000000           1
      25       -0.58978174      -16.04877772        2.00000000           1
      26       -0.58741450      -15.98436177        2.00000000           1
      27       -0.58307634      -15.86631455        2.00000000           1
      28       -0.57929162      -15.76332690        2.00000000           1
      29       -0.57770144      -15.72005615        2.00000000           1
      30       -0.57007143      -15.51243297        2.00000000           1
      31       -0.56167788      -15.28403266        2.00000000           1
      32       -0.55449715      -15.08863511        2.00000000           1
      33       -0.55104313      -14.99464653        2.00000000           1
      34       -0.54665661      -14.87528327        2.00000000           1
      35       -0.54483456      -14.82570277        2.00000000           1
      36       -0.54353640      -14.79037797        2.00000000           1
      37       -0.53964810      -14.68457196        2.00000000           1
      38       -0.53643963      -14.59726494        2.00000000           1
      39       -0.53536336      -14.56797812        2.00000000           1
      40       -0.53345835      -14.51614041        2.00000000           1
      41       -0.53087525      -14.44585055        2.00000000           1
      42       -0.52851261      -14.38155985        2.00000000           1
      43       -0.52440772      -14.26986013        2.00000000           1
      44       -0.52089680      -14.17432301        2.00000000           1
      45       -0.51572589      -14.03361558        2.00000000           1
      46       -0.51189985      -13.92950364        2.00000000           1
      47       -0.50733772      -13.80536167        2.00000000           1
      48       -0.50240660      -13.67117923        2.00000000           1
      49       -0.49998425      -13.60526355        2.00000000           1
      50       -0.49684081      -13.51972645        2.00000000           1
      51       -0.49365072      -13.43291960        2.00000000           1
      52       -0.49080478      -13.35547758        2.00000000           1
      53       -0.48786905      -13.27559229        2.00000000           1
      54       -0.48434746      -13.17976508        2.00000000           1
      55       -0.47648761      -12.96588758        2.00000000           1
      56       -0.47630352      -12.96087832        2.00000000           1
      57       -0.47311902      -12.87422364        2.00000000           1
      58       -0.46656019      -12.69574875        2.00000000           1
      59       -0.46511108      -12.65631652        2.00000000           1
      60       -0.46402266      -12.62669900        2.00000000           1
      61       -0.46043800      -12.52915548        2.00000000           1
      62       -0.45116689      -12.27687560        2.00000000           1
      63       -0.44875644      -12.21128418        2.00000000           1
      64       -0.44097226      -11.99946569        2.00000000           1
      65       -0.43636027      -11.87396711        2.00000000           1
      66       -0.43413565      -11.81343208        2.00000000           1
      67       -0.40483270      -11.01605838        2.00000000           1
      68       -0.36945180      -10.05329490        2.00000000           1
      69       -0.35214924       -9.58246845        1.99667024           1
      70       -0.33999563       -9.25175188        0.00332976           1
      71       -0.27165431       -7.39208983        0.00000000           1
      72       -0.26643280       -7.25000547        0.00000000           1
      73       -0.26081618       -7.09716949        0.00000000           1
      74       -0.25948944       -7.06106687        0.00000000           1
      75       -0.23520812       -6.40033854        0.00000000           1
      76       -0.20700119       -5.63278907        0.00000000           1
      77       -0.13829071       -3.76308156        0.00000000           1
      78       -0.13720100       -3.73342928        0.00000000           1
      79       -0.13441749       -3.65768612        0.00000000           1
      80       -0.12516783       -3.40599006        0.00000000           1
      81       -0.12252692       -3.33412714        0.00000000           1
      82       -0.11548406       -3.14248123        0.00000000           1
      83       -0.11473572       -3.12211790        0.00000000           1
      84       -0.11019887       -2.99866385        0.00000000           1
      85       -0.10927978       -2.97365405        0.00000000           1
      86       -0.10630022       -2.89257630        0.00000000           1
      87       -0.10267302       -2.79387496        0.00000000           1
      88       -0.09956620       -2.70933428        0.00000000           1
      89       -0.09561950       -2.60193897        0.00000000           1
      90       -0.09251514       -2.51746501        0.00000000           1
      91       -0.08903140       -2.42266759        0.00000000           1
      92       -0.08475934       -2.30641895        0.00000000           1
      93       -0.07920072       -2.15516125        0.00000000           1
      94       -0.07835911       -2.13225982        0.00000000           1
      95       -0.07649123       -2.08143231        0.00000000           1
      96       -0.07270015       -1.97827164        0.00000000           1
      97       -0.07061697       -1.92158552        0.00000000           1
      98       -0.06458282       -1.75738799        0.00000000           1
      99       -0.06266323       -1.70515333        0.00000000           1
     100       -0.05521602       -1.50250441        0.00000000           1
     101       -0.05019424       -1.36585488        0.00000000           1
     102       -0.04426312       -1.20446066        0.00000000           1
     103       -0.04125125       -1.12250365        0.00000000           1
     104       -0.03640627       -0.99066499        0.00000000           1
     105       -0.03346222       -0.91055337        0.00000000           1
     106       -0.03027132       -0.82372449        0.00000000           1
     107       -0.02585649       -0.70359093        0.00000000           1
     108        0.02373119        0.64575841        0.00000000           1
     109        0.03923872        1.06774000        0.00000000           1
     110        0.04130455        1.12395398        0.00000000           1
     111        0.05410058        1.47215180        0.00000000           1
     112        0.07204033        1.96031712        0.00000000           1
     113        0.08083319        2.19958300        0.00000000           1
     114        0.08458504        2.30167595        0.00000000           1
     115        0.09545129        2.59736175        0.00000000           1
     116        0.09949366        2.70736024        0.00000000           1
     117        0.10041901        2.73254032        0.00000000           1
     118        0.11610416        3.15935482        0.00000000           1
     119        0.13462903        3.66344227        0.00000000           1
     120        0.17895849        4.86970841        0.00000000           1
     121        0.19079764        5.19186795        0.00000000           1
     122        0.20227887        5.50428811        0.00000000           1
     123        0.20759969        5.64907504        0.00000000           1
     124        0.21063964        5.73179612        0.00000000           1
     125        0.21483556        5.84597316        0.00000000           1
     126        0.21661798        5.89447526        0.00000000           1
     127        0.22576342        6.14333511        0.00000000           1
     128        0.23588750        6.41882541        0.00000000           1
     129        0.23928630        6.51131162        0.00000000           1
     130        0.24171305        6.57734679        0.00000000           1
     131        0.25317830        6.88933201        0.00000000           1
     132        0.25444421        6.92377915        0.00000000           1
     133        0.25638129        6.97648991        0.00000000           1
     134        0.26084042        7.09782907        0.00000000           1
     135        0.28056368        7.63452623        0.00000000           1
     136        0.28559869        7.77153582        0.00000000           1
     137        0.29683778        8.07736691        0.00000000           1
     138        0.29903627        8.13719106        0.00000000           1
     139        0.30278009        8.23906539        0.00000000           1
     140        0.31105094        8.46412668        0.00000000           1
     141        0.32402802        8.81725096        0.00000000           1
     142        0.35006959        9.52587823        0.00000000           1
     143        0.35938204        9.77928301        0.00000000           1
     144        0.37463637       10.19437435        0.00000000           1
     145        0.37625062       10.23830042        0.00000000           1
     146        0.39305454       10.69555813        0.00000000           1
     147        0.39928777       10.86517314        0.00000000           1
     148        0.40200796       10.93919316        0.00000000           1
     149        0.40831217       11.11073937        0.00000000           1
     150        0.42509224       11.56734827        0.00000000           1
     151        0.43664667       11.88176040        0.00000000           1
     152        0.43904149       11.94692675        0.00000000           1
     153        0.44198689       12.02707535        0.00000000           1
     154        0.44268378       12.04603855        0.00000000           1
     155        0.44352194       12.06884598        0.00000000           1
     156        0.45387003       12.35043193        0.00000000           1
     157        0.46062339       12.53420025        0.00000000           1
     158        0.48831026       13.28759814        0.00000000           1
     159        0.49020949       13.33927882        0.00000000           1
     160        0.55587146       15.12603198        0.00000000           1
     161        0.56384002       15.34286766        0.00000000           1
     162        0.57620357       15.67929684        0.00000000           1
     163        0.64915336       17.66436176        0.00000000           1
     164        0.65952761       17.94665952        0.00000000           1
     165        0.69770672       18.98556585        0.00000000           1
 

AMS application finished. Exiting.
NORMAL TERMINATION
     Total cpu time:       1.75
  Total system time:       0.41
 Total elapsed time:       2.38
NORMAL TERMINATION
