

 Parallel Execution: Process Information
 ==============================================================================
 Rank   Node Name                              NodeID   MyNodeRank  NodeMaster
    0   DESKTOP-1M8FOJT                           0          0          0
    1   DESKTOP-1M8FOJT                           0          1         -1
    2   DESKTOP-1M8FOJT                           0          2         -1
    3   DESKTOP-1M8FOJT                           0          3         -1
 ==============================================================================


May use up to 4096MB of RAM as shared memory on node 0

 *******************************************************************************
 *                                                                             *
 *  --------------------------------                                           *
 *   Amsterdam Modeling Suite (AMS)              2022.101                      *
 *  --------------------------------                                           *
 *                                               r100871 2022-01-28            *
 *                                                                             *
 *                                                                             *
 *                              =================                              *
 *                              |               |                              *
 *                              |     A M S     |                              *
 *                              |               |                              *
 *                              =================                              *
 *                                                                             *
 *                                                                             *
 *   Online information and documentation:  https://www.scm.com/support/       *
 *   E-mail:  support@scm.com   info@scm.com                                   *
 *                                                                             *
 *   Scientific publications using AMS results must be properly referenced     *
 *   See the User Manuals (or the web site) for recommended citations          *
 *   The terms and conditions of the End User License Agreement apply to       *
 *   the use of AMS, https://www.scm.com/license-terms/                        *
 *                                                                             *
 *********************  x86_64_windows_intel / intelmpi  ***********************
 
 Licensed to: Mr. Yuman Hordijk / SCM / Amsterdam / Netherlands 2022-01-24 11:07:43
 SCM User ID: u24430
  
 AMS 2022.101  RunTime: Jan31-2022 09:31:53  ShM Nodes: 1  Procs: 4

 AMS jobname: ams
 AMS jobid  : 469540477

 Start   directory: D:/Users/Yuman/Desktop/MasterProject/manual_calculations/urea/tmp..12016.0.noindex/
 Results directory: D:/Users/Yuman/Desktop/MasterProject/manual_calculations/urea/urea_complex.results/
 Scratch directory: Z:/SCMTMP/amstmp_ams_kid0.469540477/


 Communication costs MPI_COMM_WORLD:      0.952 usec per message,   0.0094 usec per 8-byte item
 Communication costs for intra-node:      1.820 usec per message,   0.0060 usec per 8-byte item

 RNG seed: 1202836359 -409100241 -1583942893 549758376 1220635232 1244957960 -574220172 -602172456



                      ************************************************************************
                      *  ADF 2022.101  RunTime: Jan31-2022 09:31:54  ShM Nodes: 1  Procs: 4  *
                      ************************************************************************
  
       ***************************
       *  GEOMETRY OPTIMIZATION  *
       ***************************

Optimization Method                    Quasi Newton
Optimization Coordinates               Delocalized Coordinates
Optimize lattice                       F
 
 ------------------------------------------------------
 Convergence criteria (Hartree,Angstrom)
 ------------------------------------------------------
 Maximum gradient               0.001000000000
 Maximum rms gradient           0.000666666667
 Maximum step allowed           0.010000000000
 Maximum rms step allowed       0.006666666667
 Maximum energy change allowe   0.000540000000
 Maximum stress energy allowe   0.000500000000
 
Initial model Hessian                  Automatic Hessian
 
------------------------------------
Quasi-Newton Optimizer Parameters
------------------------------------
Hessian Update Method                  BFGS
Maximum number of steps                  324
First GDIIS cycle                          0
Maximum GDIIS vectors                      0
Trust radius (bohr)                        0.200000
Trust radius varies                        T
Constraints converged at all steps         T
Use projector                              T
 
 Rigid motions settings for: old optimizer
 Atomic rotations (x,y,z):     T T T
 Atomic translations (x,y,z):  T T T
 Tolerance:                   1.000000000000000E-006
 
--------
Geometry
--------
Formula: C22H28N2OS
Atoms
  Index Symbol   x (angstrom)   y (angstrom)   z (angstrom)
      1      C     0.77099294    -0.92575212    -0.78626799
      2      C     0.74802977    -1.99737472     0.03063693
      3      C     1.12273597    -3.33310459    -0.39546564
      4      O     1.18013110    -4.28656063     0.35652878
      5      C    -0.07464799     3.09506422     0.28737090
      6      H     1.03908991    -1.06586292    -1.83225556
      7      H     0.47685293    -1.89728662     1.07354488
      8      H     1.37268477    -3.43419235    -1.47219436
      9      C     0.11008420     2.74132832    -1.04364991
     10      C     0.38467244     1.42703034    -1.37956292
     11      H     0.37793223     0.07721955     1.74972787
     12      H    -0.11512250     2.40201282     2.31940214
     13      H    -0.28588147     4.12518102     0.55090593
     14      H     0.04342030     3.49489130    -1.82042989
     15      H     0.53187588     1.15477824    -2.41949378
     16      C     0.47108640     0.43746251    -0.38935037
     17      C     0.28671503     0.80933663     0.95098581
     18      C     0.01884479     2.12631336     1.27951043
     19      N     2.36547005    -3.24680103     2.94012685
     20      C     1.20613266    -2.58977640     3.26024770
     21      S     1.14717356    -1.06749100     3.90389139
     22      N     0.10958010    -3.36495023     3.04258560
     23      C     3.62530041    -2.51648071     2.91496961
     24      H     2.27698777    -3.96560038     2.23126959
     25      C    -1.23723952    -2.85155438     3.21124156
     26      H     0.22250219    -4.17543994     2.45036183
     27      H     3.61493109    -1.81543941     3.75576876
     28      H    -1.16546985    -1.75957075     3.30375712
     29      H     4.43612676    -3.23945609     3.05029412
     30      H     3.25148565     0.13012861     2.43129525
     31      H    -1.82307781    -3.10076456     2.31913828
     32      C     3.78954233    -1.77449323     1.60711778
     33      C     4.15183700    -2.46291234     0.45117125
     34      C     4.28201697    -1.78894116    -0.75478741
     35      C     4.05171389    -0.42059309    -0.81648505
     36      C     3.68754343     0.26989567     0.33167952
     37      C     3.55262320    -0.40460508     1.53702880
     38      H     4.33514320    -3.53133733     0.49483249
     39      H     4.56557312    -2.33264896    -1.64935890
     40      H     4.15646830     0.10643881    -1.75838463
     41      H     3.50408209     1.33777810     0.28729972
     42      C    -1.91540174    -3.43303616     4.46973429
     43      C    -3.30393801    -2.79257512     4.60548483
     44      H    -3.82081691    -3.19185875     5.47860492
     45      H    -3.21420681    -1.71173963     4.72062186
     46      H    -3.90844205    -2.99860581     3.72093947
     47      C    -2.05844662    -4.95463331     4.32408131
     48      H    -2.66084287    -5.20064893     3.44837294
     49      H    -2.53973527    -5.37674273     5.20680411
     50      H    -1.07656338    -5.41560269     4.21121999
     51      C    -1.07014219    -3.10788424     5.70829560
     52      H    -0.89364189    -2.03367548     5.77458500
     53      H    -1.57871448    -3.44094390     6.61359425
     54      H    -0.10440548    -3.60951711     5.64648320
 
Total System Charge             0.00000
Bonding info available!
 
 
----------------
ADF Engine Input
----------------
 
 Basis
 Type TZ2P
 Core None
 End
 XC
 GGA OLYP
 End
 

 Title: *** (NO TITLE) ***

 Using automatic Hessian for delocalized coordinates.
 *** GO1_GOStep1 ***

 Energy gradients wrt nuclear displacements
 ==========================================

     Atom      Cartesian (a.u./angstrom)
                 X         Y         Z
 ----------------------------------------
     1 C     0.006349 -0.000319  0.001220
     2 C     0.005241  0.008518  0.000379
     3 C     0.008218 -0.040318  0.020443
     4 O    -0.002825  0.051112 -0.016454
     5 C     0.001377 -0.008117  0.000814
     6 H     0.000188  0.002156  0.002059
     7 H     0.000115 -0.002292  0.006797
     8 H    -0.000796  0.004376  0.004938
     9 C     0.000830 -0.007142  0.006333
    10 C     0.000517  0.001637  0.003027
    11 H     0.001057 -0.005408  0.004974
    12 H     0.000494 -0.000840 -0.004424
    13 H     0.001044 -0.004793 -0.000838
    14 H     0.000491 -0.003249  0.003349
    15 H    -0.000668  0.000677  0.003997
    16 C     0.002609  0.001824  0.007334
    17 C     0.005418  0.002715 -0.004581
    18 C     0.001519  0.001163 -0.005580
    19 N    -0.010499 -0.010036 -0.015085
    20 C    -0.002900  0.042766  0.003667
    21 S    -0.001705 -0.026583 -0.023914
    22 N     0.012741 -0.021174  0.000968
    23 C    -0.003246 -0.001130  0.005002
    24 H     0.001925  0.001420 -0.002261
    25 C     0.002198  0.005416 -0.007023
    26 H    -0.002410 -0.001192  0.001291
    27 H    -0.003249  0.006168  0.003503
    28 H     0.002395  0.008040  0.002894
    29 H    -0.001058  0.000469 -0.001557
    30 H    -0.002862  0.000297  0.001241
    31 H     0.001217 -0.000153  0.001274
    32 C    -0.010544  0.000837 -0.010058
    33 C    -0.006988 -0.000173  0.002233
    34 C    -0.005116  0.004187  0.005741
    35 C    -0.003920 -0.004114  0.004755
    36 C    -0.006113 -0.006079  0.001027
    37 C    -0.007468 -0.008677 -0.003213
    38 H    -0.002252  0.003851  0.001008
    39 H    -0.001994  0.002143  0.004068
    40 H    -0.001154 -0.002201  0.004212
    41 H    -0.000170 -0.002927  0.000159
    42 C     0.009414  0.000501 -0.003584
    43 C    -0.007185  0.002278  0.003166
    44 H     0.004893 -0.000058 -0.002925
    45 H     0.003381 -0.005897 -0.000933
    46 H     0.006845 -0.000900  0.003184
    47 C    -0.000907 -0.006080  0.000394
    48 H     0.003894  0.005168  0.003861
    49 H     0.001835  0.005021 -0.002562
    50 H    -0.001309  0.006592 -0.001064
    51 C     0.003577 -0.001710  0.001761
    52 H    -0.000982  0.000386 -0.004860
    53 H     0.001533  0.002392 -0.005094
    54 H    -0.002994 -0.000553 -0.005062
 ----------------------------------------
 Mulliken charges used for AMS results%charges...
 
----------------------------------------------------------------------
Geometry Convergence after Step   1       (Hartree/Angstrom,Angstrom)
----------------------------------------------------------------------
current energy                              -11.56668746 Hartree
energy change                     -11.56668746     0.00054000    F
constrained gradient max            0.05103163     0.00100000    F
constrained gradient rms            0.00841871     0.00066667    F
gradient max                        0.05103163
gradient rms                        0.00841871
cart. step max                      0.21174637     0.01000000    F
cart. step rms                      0.05021117     0.00666667    F
 
 
--------
Geometry
--------
Formula: C22H28N2OS
Atoms
  Index Symbol   x (angstrom)   y (angstrom)   z (angstrom)
      1      C     0.76320320    -0.93119040    -0.76964413
      2      C     0.75928403    -2.00586836     0.05345075
      3      C     1.13432784    -3.34020191    -0.37903403
      4      O     1.21153551    -4.30486836     0.38391523
      5      C    -0.07449839     3.10881607     0.30576793
      6      H     1.01075548    -1.07593704    -1.82100986
      7      H     0.50331821    -1.90448168     1.10106031
      8      H     1.36474214    -3.44499568    -1.46220725
      9      C     0.08224378     2.74946378    -1.03155223
     10      C     0.35427918     1.42901058    -1.36715500
     11      H     0.41830432     0.09129209     1.77473666
     12      H    -0.06824103     2.41805191     2.34569549
     13      H    -0.28350343     4.14123643     0.57112729
     14      H    -0.00403237     3.50095676    -1.81116999
     15      H     0.47969162     1.15357725    -2.41082519
     16      C     0.46670638     0.43845090    -0.37350005
     17      C     0.31021921     0.81730025     0.97317711
     18      C     0.04423150     2.13905644     1.30201181
     19      N     2.44100903    -3.23671169     2.94136013
     20      C     1.27467467    -2.58907748     3.28151709
     21      S     1.22341984    -1.05002098     3.92387704
     22      N     0.17111934    -3.37417249     3.08312689
     23      C     3.70322509    -2.50076428     2.87551534
     24      H     2.34198870    -3.96064169     2.23738489
     25      C    -1.19166743    -2.88441203     3.26356723
     26      H     0.28422263    -4.18402116     2.48982449
     27      H     3.71348594    -1.79818738     3.71116248
     28      H    -1.12698729    -1.79486240     3.34610905
     29      H     4.51829118    -3.22218322     2.99782381
     30      H     3.31986350     0.15375013     2.38650270
     31      H    -1.75965430    -3.14698493     2.36289602
     32      C     3.84149174    -1.75871556     1.56015706
     33      C     4.18053970    -2.45022728     0.39459673
     34      C     4.28096788    -1.77923922    -0.81919957
     35      C     4.04303876    -0.40868803    -0.88160239
     36      C     3.70243780     0.28698031     0.27422718
     37      C     3.59999870    -0.38403047     1.48828095
     38      H     4.37068537    -3.51934665     0.43591039
     39      H     4.54739715    -2.32596806    -1.71976628
     40      H     4.12412212     0.11532518    -1.82991337
     41      H     3.51410579     1.35524226     0.22920119
     42      C    -1.95209158    -3.44689618     4.49582553
     43      C    -3.33691569    -2.77663068     4.52841252
     44      H    -3.92720484    -3.15741056     5.36500498
     45      H    -3.24051290    -1.69400907     4.64427003
     46      H    -3.88903568    -2.97347312     3.60508168
     47      C    -2.11449883    -4.97132547     4.34836805
     48      H    -2.66189513    -5.21888498     3.43429593
     49      H    -2.66510334    -5.38292836     5.19743198
     50      H    -1.13993738    -5.46278214     4.30737419
     51      C    -1.20128250    -3.13637474     5.80233046
     52      H    -1.00992012    -2.06679231     5.89581304
     53      H    -1.79046085    -3.46367770     6.66268961
     54      H    -0.24083867    -3.65312098     5.82952435
 
Total System Charge             0.00000
Bonding info available!
 
 *** GO1_GOStep2 ***

 Energy gradients wrt nuclear displacements
 ==========================================

     Atom      Cartesian (a.u./angstrom)
                 X         Y         Z
 ----------------------------------------
     1 C     0.007479  0.000860 -0.003484
     2 C     0.004541  0.003945  0.005162
     3 C     0.007098 -0.010525 -0.002910
     4 O    -0.000619  0.015812  0.010728
     5 C     0.000235 -0.001943  0.000678
     6 H     0.000267  0.001721  0.000842
     7 H    -0.000503 -0.002226  0.007705
     8 H    -0.000080  0.004523  0.000177
     9 C     0.000209 -0.001442  0.002043
    10 C     0.000880  0.000524 -0.000534
    11 H     0.000795 -0.004430  0.004753
    12 H     0.000093 -0.000324 -0.001799
    13 H     0.000473 -0.001935 -0.000266
    14 H     0.000299 -0.001061  0.001648
    15 H    -0.000300  0.000338  0.002016
    16 C     0.003267  0.000320  0.005794
    17 C     0.006514 -0.003304  0.000421
    18 C     0.000914  0.001018 -0.000314
    19 N    -0.003960 -0.012334 -0.011940
    20 C    -0.000936  0.033554 -0.001157
    21 S     0.001517 -0.007783 -0.018576
    22 N     0.010827 -0.020333 -0.013286
    23 C     0.001776 -0.001198  0.006874
    24 H     0.002149  0.000803 -0.003394
    25 C     0.000169  0.003297 -0.002451
    26 H    -0.002982 -0.000425  0.000839
    27 H    -0.002726  0.003537  0.000688
    28 H     0.002912  0.003246  0.001986
    29 H     0.000184  0.000434 -0.000718
    30 H    -0.002097 -0.000175  0.000215
    31 H     0.000450 -0.002843  0.001571
    32 C    -0.008515 -0.001564 -0.005544
    33 C    -0.006552 -0.002731  0.001488
    34 C    -0.004410  0.001454  0.003689
    35 C    -0.003627 -0.001850  0.002517
    36 C    -0.007350 -0.001886  0.000659
    37 C    -0.008599 -0.001890  0.000712
    38 H    -0.001479  0.001615  0.000833
    39 H    -0.001196  0.000849  0.001691
    40 H    -0.000773 -0.000934  0.001845
    41 H    -0.000399 -0.001270 -0.000078
    42 C    -0.000534  0.005651 -0.002116
    43 C    -0.004983  0.001392  0.003660
    44 H     0.002322  0.000005 -0.001087
    45 H     0.002024 -0.002964 -0.000411
    46 H     0.003625 -0.000749  0.001546
    47 C     0.000676 -0.004726  0.000831
    48 H     0.001958  0.002849  0.001781
    49 H     0.001305  0.002923 -0.001197
    50 H    -0.001195  0.003324 -0.000645
    51 C     0.001507 -0.000872  0.003932
    52 H    -0.000472 -0.001532 -0.002787
    53 H     0.000535  0.001206 -0.002397
    54 H    -0.002712  0.000046 -0.002234
 ----------------------------------------
 Mulliken charges used for AMS results%charges...

 dE(predicted):    -0.70279E-02, dE(actual):    -0.59907E-02, Trust radius:    0.400000, all in a.u.
 
----------------------------------------------------------------------
Geometry Convergence after Step   2       (Hartree/Angstrom,Angstrom)
----------------------------------------------------------------------
current energy                              -11.57267812 Hartree
energy change                      -0.00599066     0.00054000    F
constrained gradient max            0.03364958     0.00100000    F
constrained gradient rms            0.00510753     0.00066667    F
gradient max                        0.03364958
gradient rms                        0.00510753
cart. step max                      0.15638048     0.01000000    F
cart. step rms                      0.05338875     0.00666667    F
 
 
--------
Geometry
--------
Formula: C22H28N2OS
Atoms
  Index Symbol   x (angstrom)   y (angstrom)   z (angstrom)
      1      C     0.75220605    -0.92472565    -0.74023262
      2      C     0.74992569    -1.98849426     0.10036503
      3      C     1.10874137    -3.33163930    -0.31671565
      4      O     1.19076703    -4.29079133     0.45789464
      5      C    -0.01047827     3.15807142     0.26439814
      6      H     0.97465757    -1.09600398    -1.79396245
      7      H     0.50186400    -1.86985789     1.14742985
      8      H     1.31898067    -3.46584030    -1.40125065
      9      C     0.10980665     2.76692232    -1.07000615
     10      C     0.35671325     1.43301360    -1.38117620
     11      H     0.46487784     0.16489833     1.79560320
     12      H     0.02831200     2.50798333     2.32129702
     13      H    -0.20108486     4.20000568     0.51276610
     14      H     0.01349931     3.50247393    -1.86552557
     15      H     0.45353591     1.13395799    -2.42288699
     16      C     0.48243060     0.46027515    -0.36837700
     17      C     0.36242979     0.87166517     0.97660948
     18      C     0.11676208     2.20541104     1.28020747
     19      N     2.45233368    -3.16655210     2.98689445
     20      C     1.28059700    -2.53013810     3.34357144
     21      S     1.22868269    -0.97302911     3.97445277
     22      N     0.17028284    -3.31300121     3.15835113
     23      C     3.72920405    -2.45005547     2.85812034
     24      H     2.33717807    -3.90496615     2.29915833
     25      C    -1.20905318    -2.86239369     3.33084624
     26      H     0.28872493    -4.12600411     2.56961064
     27      H     3.78260087    -1.73662671     3.67977338
     28      H    -1.18465342    -1.77610697     3.43715766
     29      H     4.52733109    -3.19029216     2.98175339
     30      H     3.42601984     0.20997817     2.31906012
     31      H    -1.75436938    -3.11934402     2.41384520
     32      C     3.87995842    -1.73344553     1.52462541
     33      C     4.18669019    -2.45055543     0.36133202
     34      C     4.26765056    -1.80760277    -0.87171740
     35      C     4.04084186    -0.43444860    -0.95920413
     36      C     3.73986010     0.28981229     0.19236054
     37      C     3.66812395    -0.35283778     1.42575138
     38      H     4.36894820    -3.52184829     0.41667410
     39      H     4.51003108    -2.37695095    -1.76707802
     40      H     4.10407776     0.06913465    -1.92177356
     41      H     3.56455734     1.36035490     0.12987653
     42      C    -1.98533332    -3.49859836     4.52152235
     43      C    -3.38668770    -2.85639620     4.52548078
     44      H    -4.00355362    -3.28320945     5.32188643
     45      H    -3.32648042    -1.77549750     4.69154867
     46      H    -3.90826561    -3.02120844     3.57571841
     47      C    -2.11437375    -5.02097891     4.29814176
     48      H    -2.63012264    -5.24330105     3.35651972
     49      H    -2.68447441    -5.48805006     5.10739207
     50      H    -1.13209817    -5.50219429     4.26650279
     51      C    -1.27978451    -3.23064201     5.86541123
     52      H    -1.12115944    -2.16253024     6.02759915
     53      H    -1.88374944    -3.62005818     6.69149109
     54      H    -0.30283660    -3.71933580     5.90473217
 
Total System Charge             0.00000
Bonding info available!
 
 *** GO1_GOStep3 ***

 Energy gradients wrt nuclear displacements
 ==========================================

     Atom      Cartesian (a.u./angstrom)
                 X         Y         Z
 ----------------------------------------
     1 C     0.007739  0.000541 -0.003466
     2 C     0.004936  0.000593  0.006570
     3 C     0.007282 -0.001592 -0.004471
     4 O     0.000356  0.008423  0.012827
     5 C     0.000029  0.000799  0.000443
     6 H    -0.000385  0.000809  0.000048
     7 H    -0.001528 -0.002528  0.006129
     8 H     0.000018  0.001738 -0.000563
     9 C     0.000085  0.000612 -0.000396
    10 C     0.000095  0.000534 -0.001184
    11 H    -0.000701 -0.002895  0.005129
    12 H    -0.000120  0.000036  0.000164
    13 H     0.000037  0.000169  0.000222
    14 H     0.000049  0.000401  0.000312
    15 H    -0.000016  0.000210  0.000268
    16 C     0.003978  0.000210  0.002252
    17 C     0.009058 -0.006009  0.004792
    18 C     0.000165 -0.000026  0.001601
    19 N    -0.000507 -0.009079 -0.003049
    20 C    -0.000039  0.013353 -0.003028
    21 S     0.000545  0.004346 -0.013360
    22 N     0.002223 -0.013298 -0.009771
    23 C     0.003773 -0.001125  0.003125
    24 H     0.002493  0.000855 -0.004696
    25 C    -0.003154  0.006621 -0.003290
    26 H    -0.003675  0.000032  0.000436
    27 H    -0.001699  0.000281 -0.001134
    28 H     0.001072  0.000413 -0.000656
    29 H     0.000428  0.000553 -0.000474
    30 H    -0.000507 -0.001055 -0.000666
    31 H    -0.001062 -0.003853  0.001933
    32 C    -0.002094 -0.000519 -0.001143
    33 C    -0.006152 -0.001958  0.000371
    34 C    -0.004396 -0.000392  0.001081
    35 C    -0.003534 -0.000459  0.001007
    36 C    -0.009863 -0.000603  0.000485
    37 C    -0.005695  0.002266  0.001688
    38 H    -0.000164  0.000255  0.000206
    39 H    -0.000557  0.000072 -0.000455
    40 H    -0.000210  0.000082 -0.000103
    41 H    -0.000641 -0.000153 -0.000181
    42 C    -0.000970  0.002988  0.001381
    43 C    -0.001372  0.000148 -0.000283
    44 H     0.001022 -0.000177 -0.000224
    45 H     0.000467 -0.000282 -0.000209
    46 H     0.000264  0.000088 -0.000047
    47 C     0.000658 -0.002455  0.000263
    48 H     0.000267  0.000322 -0.000144
    49 H     0.000193  0.000357 -0.000320
    50 H    -0.000016  0.000832 -0.000702
    51 C     0.001860  0.000599  0.002574
    52 H     0.000597 -0.001043 -0.000695
    53 H    -0.000263  0.000183 -0.000502
    54 H    -0.000370 -0.000222 -0.000096
 ----------------------------------------
 Mulliken charges used for AMS results%charges...

 dE(predicted):    -0.39100E-02, dE(actual):    -0.38045E-02, Trust radius:    0.800000, all in a.u.
 
----------------------------------------------------------------------
Geometry Convergence after Step   3       (Hartree/Angstrom,Angstrom)
----------------------------------------------------------------------
current energy                              -11.57648258 Hartree
energy change                      -0.00380446     0.00054000    F
constrained gradient max            0.01344863     0.00100000    F
constrained gradient rms            0.00340335     0.00066667    F
gradient max                        0.01344863
gradient rms                        0.00340335
cart. step max                      0.21286314     0.01000000    F
cart. step rms                      0.05408734     0.00666667    F
 
 
--------
Geometry
--------
Formula: C22H28N2OS
Atoms
  Index Symbol   x (angstrom)   y (angstrom)   z (angstrom)
      1      C     0.74033501    -0.92165091    -0.71856233
      2      C     0.73659655    -1.97068145     0.13924250
      3      C     1.08109140    -3.32334851    -0.25869581
      4      O     1.16913972    -4.27406681     0.52596904
      5      C     0.03519143     3.19140035     0.20346337
      6      H     0.94734889    -1.11768629    -1.77136606
      7      H     0.49825851    -1.83114840     1.18501416
      8      H     1.27700491    -3.48063357    -1.34266895
      9      C     0.12904722     2.76733370    -1.12287511
     10      C     0.35933475     1.42422161    -1.40579034
     11      H     0.49790363     0.23130658     1.80054109
     12      H     0.10152046     2.58944105     2.27445694
     13      H    -0.14081304     4.24100273     0.43058143
     14      H     0.02561070     3.48425390    -1.93460553
     15      H     0.43489241     1.09988895    -2.44201511
     16      C     0.49187293     0.47417831    -0.37312351
     17      C     0.39725596     0.91843184     0.96443065
     18      C     0.16972503     2.26152747     1.23920706
     19      N     2.45005124    -3.08992323     3.02831135
     20      C     1.28201537    -2.45719737     3.39654871
     21      S     1.22267563    -0.89070986     4.01321604
     22      N     0.17624421    -3.24414671     3.22710545
     23      C     3.73524249    -2.39234299     2.86008022
     24      H     2.31941580    -3.84677482     2.36280586
     25      C    -1.20901502    -2.81940897     3.40529960
     26      H     0.30024783    -4.06129996     2.64434606
     27      H     3.81733922    -1.66411154     3.66613667
     28      H    -1.20159207    -1.74203944     3.57706816
     29      H     4.51871052    -3.14664266     2.99334523
     30      H     3.49318244     0.26108174     2.26298903
     31      H    -1.73429968    -3.01919499     2.46242959
     32      C     3.89500540    -1.70949450     1.50851681
     33      C     4.18199742    -2.45508599     0.35705597
     34      C     4.25698904    -1.84216482    -0.89192950
     35      C     4.03861264    -0.46949445    -1.00970125
     36      C     3.76552441     0.28471846     0.12984054
     37      C     3.70965638    -0.32770367     1.37931932
     38      H     4.35316754    -3.52737370     0.43261724
     39      H     4.48595443    -2.43481924    -1.77585646
     40      H     4.09238768     0.01113715    -1.98479622
     41      H     3.60400160     1.35619550     0.04630508
     42      C    -2.00151079    -3.54447127     4.53421157
     43      C    -3.40638951    -2.90925208     4.56341892
     44      H    -4.03595518    -3.39505064     5.31584397
     45      H    -3.35676660    -1.84276685     4.81012670
     46      H    -3.91428308    -3.00513669     3.59639368
     47      C    -2.12571396    -5.04749202     4.20129276
     48      H    -2.62545708    -5.20465615     3.23748410
     49      H    -2.71101149    -5.57101035     4.96472926
     50      H    -1.14434810    -5.53075873     4.15473965
     51      C    -1.31959104    -3.37121601     5.90475864
     52      H    -1.18000936    -2.31653886     6.15430060
     53      H    -1.92806568    -3.83292132     6.68998402
     54      H    -0.33508350    -3.84729789     5.92228536
 
Total System Charge             0.00000
Bonding info available!
 
 *** GO1_GOStep4 ***

 Energy gradients wrt nuclear displacements
 ==========================================

     Atom      Cartesian (a.u./angstrom)
                 X         Y         Z
 ----------------------------------------
     1 C     0.007201  0.000114 -0.001353
     2 C     0.004928  0.001488  0.005233
     3 C     0.006594  0.000707 -0.002714
     4 O     0.001192  0.006715  0.010715
     5 C    -0.000160  0.000556  0.000311
     6 H    -0.000612  0.000278 -0.000036
     7 H    -0.001631 -0.002423  0.004460
     8 H     0.000188  0.000257 -0.000154
     9 C    -0.000026  0.000179 -0.000208
    10 C     0.000163  0.000485 -0.000244
    11 H    -0.001353 -0.002289  0.005645
    12 H     0.000017  0.000150  0.000514
    13 H     0.000004  0.000470  0.000357
    14 H    -0.000028  0.000534  0.000055
    15 H    -0.000147  0.000127 -0.000134
    16 C     0.004351  0.000736  0.000420
    17 C     0.009596 -0.005398  0.005262
    18 C     0.000083 -0.000444  0.000959
    19 N    -0.002413 -0.006919  0.000887
    20 C    -0.000534  0.003557 -0.004154
    21 S    -0.001779  0.006698 -0.011708
    22 N     0.003796 -0.006602 -0.008232
    23 C     0.003130  0.000354  0.000786
    24 H     0.001166  0.000040 -0.005244
    25 C    -0.001527  0.006286 -0.001520
    26 H    -0.002900 -0.000069  0.000125
    27 H    -0.000689 -0.000433 -0.001022
    28 H    -0.000208  0.000097 -0.001711
    29 H    -0.000132  0.000138 -0.000397
    30 H     0.000135 -0.001029 -0.000590
    31 H     0.000018 -0.003709  0.001558
    32 C     0.000038 -0.000030 -0.000337
    33 C    -0.005922 -0.000597 -0.000135
    34 C    -0.003905 -0.000882  0.000409
    35 C    -0.004160 -0.000271  0.000679
    36 C    -0.010954 -0.000818  0.000685
    37 C    -0.002930  0.002285  0.000689
    38 H     0.000205 -0.000087 -0.000186
    39 H    -0.000295 -0.000017 -0.000733
    40 H    -0.000087  0.000320 -0.000411
    41 H    -0.000552  0.000067 -0.000055
    42 C    -0.000711  0.002050  0.001432
    43 C     0.000080 -0.000724 -0.000160
    44 H     0.000120  0.000000  0.000063
    45 H    -0.000052  0.000441  0.000049
    46 H    -0.000409  0.000133 -0.000276
    47 C     0.000652 -0.001156  0.000198
    48 H    -0.000319 -0.000218 -0.000679
    49 H    -0.000190 -0.000399 -0.000078
    50 H     0.000318  0.000295 -0.000540
    51 C     0.000389  0.000504  0.001624
    52 H     0.000634 -0.000817 -0.000140
    53 H    -0.000432 -0.000331 -0.000134
    54 H     0.000060 -0.000399  0.000172
 ----------------------------------------
 Mulliken charges used for AMS results%charges...

 dE(predicted):    -0.22854E-02, dE(actual):    -0.18723E-02, Trust radius:    0.800000, all in a.u.
 
----------------------------------------------------------------------
Geometry Convergence after Step   4       (Hartree/Angstrom,Angstrom)
----------------------------------------------------------------------
current energy                              -11.57835485 Hartree
energy change                      -0.00187227     0.00054000    F
constrained gradient max            0.01173696     0.00100000    F
constrained gradient rms            0.00282153     0.00066667    F
gradient max                        0.01173696
gradient rms                        0.00282153
cart. step max                      0.21393405     0.01000000    F
cart. step rms                      0.05300255     0.00666667    F
 
 
--------
Geometry
--------
Formula: C22H28N2OS
Atoms
  Index Symbol   x (angstrom)   y (angstrom)   z (angstrom)
      1      C     0.73013325    -0.91959652    -0.70373230
      2      C     0.72110620    -1.95477240     0.17065321
      3      C     1.05335101    -3.31631202    -0.20761344
      4      O     1.14395425    -4.26011522     0.58713235
      5      C     0.07473065     3.21998152     0.13674589
      6      H     0.92959613    -1.13778287    -1.75386569
      7      H     0.49076825    -1.79367789     1.21431626
      8      H     1.23861886    -3.49285467    -1.29053076
      9      C     0.15137742     2.76574398    -1.18056026
     10      C     0.36445118     1.41403169    -1.43552732
     11      H     0.52221501     0.29303696     1.79742755
     12      H     0.15318920     2.66216635     2.21975410
     13      H    -0.08758190     4.27623560     0.34277729
     14      H     0.04826149     3.46543112    -2.00728666
     15      H     0.42915140     1.06706254    -2.46525482
     16      C     0.49774231     0.48510837    -0.38415883
     17      C     0.41980851     0.95989813     0.94470133
     18      C     0.20787875     2.31116717     1.19113250
     19      N     2.43973040    -3.01588475     3.06556622
     20      C     1.27565487    -2.38526153     3.44297032
     21      S     1.21573147    -0.81090052     4.04609113
     22      N     0.17310778    -3.17652911     3.28739322
     23      C     3.73172737    -2.33721860     2.86990120
     24      H     2.29631548    -3.79056759     2.42330211
     25      C    -1.21538272    -2.77559625     3.47916447
     26      H     0.30211343    -3.99669621     2.70866837
     27      H     3.83358540    -1.59475033     3.66084936
     28      H    -1.21536516    -1.71426609     3.72925826
     29      H     4.50366565    -3.10134049     3.01627661
     30      H     3.53695849     0.30684707     2.21592632
     31      H    -1.73250093    -2.90061728     2.51827352
     32      C     3.89964290    -1.68739710     1.50272682
     33      C     4.17477850    -2.46057703     0.36581066
     34      C     4.25115659    -1.87598107    -0.89662639
     35      C     4.04207899    -0.50430228    -1.04426818
     36      C     3.78769288     0.27846647     0.08056447
     37      C     3.73709161    -0.30582189     1.34382155
     38      H     4.33443959    -3.53318850     0.46249875
     39      H     4.47224128    -2.49029319    -1.76766249
     40      H     4.09232294    -0.04606463    -2.03033345
     41      H     3.63955825     1.35012538    -0.02448253
     42      C    -2.01161763    -3.58876208     4.54359529
     43      C    -3.41645826    -2.95656851     4.61926525
     44      H    -4.04948474    -3.49969127     5.32908762
     45      H    -3.36856456    -1.91276524     4.94975097
     46      H    -3.92283170    -2.97567529     3.64665124
     47      C    -2.14087484    -5.06207108     4.09869084
     48      H    -2.63726490    -5.14599129     3.12389787
     49      H    -2.73343551    -5.63761739     4.81825755
     50      H    -1.16362341    -5.55071551     4.02206544
     51      C    -1.32955129    -3.51724931     5.92227084
     52      H    -1.20261739    -2.48367093     6.25606354
     53      H    -1.92943186    -4.04685537     6.67078500
     54      H    -0.33869531    -3.98089747     5.90164407
 
Total System Charge             0.00000
Bonding info available!
 
 *** GO1_GOStep5 ***

 Energy gradients wrt nuclear displacements
 ==========================================

     Atom      Cartesian (a.u./angstrom)
                 X         Y         Z
 ----------------------------------------
     1 C     0.006898  0.000607 -0.000152
     2 C     0.004418  0.001750  0.004417
     3 C     0.005977  0.004050 -0.002717
     4 O     0.002008  0.002764  0.010713
     5 C     0.000070  0.000615  0.000238
     6 H    -0.000516 -0.000110 -0.000129
     7 H    -0.001325 -0.002036  0.003094
     8 H     0.000250 -0.000571 -0.000120
     9 C     0.000006  0.000293 -0.000082
    10 C    -0.000330  0.000140  0.000297
    11 H    -0.001191 -0.001720  0.006271
    12 H     0.000049  0.000172  0.000685
    13 H    -0.000049  0.000554  0.000411
    14 H    -0.000076  0.000561 -0.000074
    15 H     0.000073  0.000190 -0.000314
    16 C     0.004451  0.000735 -0.000890
    17 C     0.009265 -0.005108  0.005107
    18 C    -0.000301 -0.000530  0.000642
    19 N    -0.003073 -0.004049  0.003037
    20 C    -0.000709 -0.003216 -0.004632
    21 S    -0.002669  0.008077 -0.010417
    22 N     0.003792 -0.001236 -0.006066
    23 C     0.002558  0.001196 -0.001092
    24 H    -0.000373 -0.000486 -0.005169
    25 C    -0.000716  0.004750 -0.000534
    26 H    -0.001991 -0.000430 -0.000266
    27 H    -0.000004 -0.000825 -0.000673
    28 H    -0.000563 -0.000368 -0.002299
    29 H    -0.000309 -0.000232 -0.000232
    30 H     0.000329 -0.000643 -0.000282
    31 H     0.000207 -0.003009  0.000978
    32 C     0.000551 -0.000169  0.000295
    33 C    -0.005587 -0.000158 -0.000788
    34 C    -0.003274 -0.001304  0.000151
    35 C    -0.004616 -0.000213  0.000425
    36 C    -0.011410 -0.000291  0.000801
    37 C    -0.000968  0.001774 -0.000133
    38 H     0.000317 -0.000404 -0.000448
    39 H    -0.000069 -0.000059 -0.000718
    40 H    -0.000133  0.000421 -0.000478
    41 H    -0.000406  0.000246  0.000047
    42 C    -0.000639  0.000209  0.001647
    43 C     0.001086 -0.000445 -0.000544
    44 H    -0.000385 -0.000049  0.000297
    45 H    -0.000375  0.000608  0.000211
    46 H    -0.000776  0.000159 -0.000300
    47 C     0.000338 -0.000138  0.000288
    48 H    -0.000636 -0.000594 -0.000770
    49 H    -0.000310 -0.000772 -0.000042
    50 H     0.000353 -0.000163 -0.000307
    51 C     0.000000  0.000884  0.000025
    52 H     0.000750 -0.000380  0.000081
    53 H    -0.000453 -0.000525  0.000173
    54 H     0.000488 -0.000523  0.000336
 ----------------------------------------
 Mulliken charges used for AMS results%charges...

 dE(predicted):    -0.20984E-02, dE(actual):    -0.13681E-02, Trust radius:    0.800000, all in a.u.
 
----------------------------------------------------------------------
Geometry Convergence after Step   5       (Hartree/Angstrom,Angstrom)
----------------------------------------------------------------------
current energy                              -11.57972297 Hartree
energy change                      -0.00136813     0.00054000    F
constrained gradient max            0.01140031     0.00100000    F
constrained gradient rms            0.00259776     0.00066667    F
gradient max                        0.01140031
gradient rms                        0.00259776
cart. step max                      0.21536149     0.01000000    F
cart. step rms                      0.05295141     0.00666667    F
 
 
--------
Geometry
--------
Formula: C22H28N2OS
Atoms
  Index Symbol   x (angstrom)   y (angstrom)   z (angstrom)
      1      C     0.72010286    -0.92013708    -0.69147948
      2      C     0.70559450    -1.94167208     0.19873509
      3      C     1.02611447    -3.31082601    -0.16113758
      4      O     1.11690449    -4.24714127     0.64237963
      5      C     0.10351722     3.24078188     0.06921549
      6      H     0.91480707    -1.15833599    -1.73829722
      7      H     0.48242705    -1.76002196     1.24010976
      8      H     1.20268825    -3.50384876    -1.24268007
      9      C     0.16698973     2.75824717    -1.23851486
     10      C     0.36755875     1.39969198    -1.46591574
     11      H     0.54025058     0.34777493     1.79076000
     12      H     0.19306267     2.72609950     2.16283333
     13      H    -0.04718484     4.30262626     0.25432859
     14      H     0.06412384     3.44085451    -2.07933874
     15      H     0.42137590     1.03057070    -2.48853429
     16      C     0.50019316     0.49166208    -0.39657559
     17      C     0.43426160     0.99485993     0.92275479
     18      C     0.23636614     2.35315598     1.14139770
     19      N     2.43019089    -2.95033465     3.09921146
     20      C     1.27061344    -2.31939234     3.48487034
     21      S     1.21550648    -0.73835994     4.07467203
     22      N     0.16879016    -3.11321380     3.34359929
     23      C     3.72649263    -2.28735265     2.88362543
     24      H     2.27718656    -3.73932096     2.47723653
     25      C    -1.21895280    -2.72766665     3.55616610
     26      H     0.29862689    -3.93443451     2.76530685
     27      H     3.84121629    -1.53142459     3.66037651
     28      H    -1.21801318    -1.68827673     3.88512803
     29      H     4.49067106    -3.05692033     3.04358252
     30      H     3.56691046     0.34608666     2.17627571
     31      H    -1.73584837    -2.77311066     2.58721658
     32      C     3.90061670    -1.66795734     1.50311069
     33      C     4.16785401    -2.46652905     0.38131985
     34      C     4.24820550    -1.90843137    -0.89272704
     35      C     4.04909774    -0.53840619    -1.06846199
     36      C     3.80764709     0.27012205     0.04094235
     37      C     3.75617699    -0.28793669     1.31625883
     38      H     4.31691007    -3.53867552     0.49856732
     39      H     4.46297257    -2.54245472    -1.75098503
     40      H     4.09932706    -0.10122070    -2.06397968
     41      H     3.67160131     1.34118729    -0.08496033
     42      C    -2.01568090    -3.62257991     4.55184869
     43      C    -3.41934345    -2.99640405     4.68158329
     44      H    -4.05381241    -3.59652797     5.34293878
     45      H    -3.36989810    -1.98438275     5.09915541
     46      H    -3.92608148    -2.93260695     3.71101678
     47      C    -2.15334438    -5.05351650     3.98814494
     48      H    -2.64891879    -5.05439815     3.00944681
     49      H    -2.75184151    -5.68090441     4.65791098
     50      H    -1.18120194    -5.54545436     3.87334724
     51      C    -1.33085174    -3.66486050     5.92968526
     52      H    -1.21339027    -2.66256280     6.35245173
     53      H    -1.92239109    -4.26221686     6.63254444
     54      H    -0.33555137    -4.11549760     5.86735875
 
Total System Charge             0.00000
Bonding info available!
 
 *** GO1_GOStep6 ***

 Energy gradients wrt nuclear displacements
 ==========================================

     Atom      Cartesian (a.u./angstrom)
                 X         Y         Z
 ----------------------------------------
     1 C     0.006717  0.001253  0.000369
     2 C     0.004090  0.001289  0.003805
     3 C     0.005621  0.005248 -0.001384
     4 O     0.002396  0.001608  0.009092
     5 C    -0.000006  0.000564  0.000180
     6 H    -0.000371 -0.000362 -0.000157
     7 H    -0.000963 -0.001565  0.002159
     8 H     0.000252 -0.001100  0.000096
     9 C    -0.000080  0.000352 -0.000038
    10 C    -0.000003 -0.000084  0.000569
    11 H    -0.000770 -0.001228  0.006826
    12 H     0.000102  0.000186  0.000693
    13 H     0.000011  0.000548  0.000441
    14 H    -0.000052  0.000490 -0.000087
    15 H    -0.000048  0.000207 -0.000342
    16 C     0.004355  0.000682 -0.001434
    17 C     0.008200 -0.004931  0.004610
    18 C    -0.000209 -0.000381  0.000491
    19 N    -0.003033 -0.001914  0.003949
    20 C    -0.000605 -0.007134 -0.004644
    21 S    -0.002412  0.008859 -0.009889
    22 N     0.002250  0.001962 -0.004448
    23 C     0.001686  0.001425 -0.002395
    24 H    -0.001346 -0.000444 -0.004798
    25 C    -0.000221  0.003062  0.000297
    26 H    -0.001035 -0.000845 -0.000662
    27 H     0.000431 -0.000965 -0.000217
    28 H    -0.000683 -0.000440 -0.002868
    29 H    -0.000371 -0.000464 -0.000125
    30 H     0.000410 -0.000154  0.000016
    31 H     0.000149 -0.002603  0.000432
    32 C     0.000538 -0.000373  0.000769
    33 C    -0.005247 -0.000143 -0.001264
    34 C    -0.002690 -0.001393  0.000022
    35 C    -0.004881 -0.000282  0.000260
    36 C    -0.011282  0.000159  0.000629
    37 C     0.000139  0.001278 -0.000624
    38 H     0.000318 -0.000525 -0.000611
    39 H     0.000021 -0.000006 -0.000630
    40 H    -0.000195  0.000395 -0.000423
    41 H    -0.000241  0.000303  0.000095
    42 C    -0.000020 -0.000333  0.001987
    43 C     0.001414 -0.000788 -0.000489
    44 H    -0.000640 -0.000116  0.000335
    45 H    -0.000413  0.000565  0.000378
    46 H    -0.000906  0.000117 -0.000381
    47 C     0.000002  0.000849  0.000054
    48 H    -0.000725 -0.000599 -0.000723
    49 H    -0.000304 -0.000733 -0.000097
    50 H     0.000272 -0.000485 -0.000236
    51 C    -0.000564  0.000626 -0.000661
    52 H     0.000557 -0.000378  0.000413
    53 H    -0.000245 -0.000645  0.000417
    54 H     0.000630 -0.000616  0.000243
 ----------------------------------------
 Mulliken charges used for AMS results%charges...

 dE(predicted):    -0.26557E-02, dE(actual):    -0.10865E-02, Trust radius:    0.800000, all in a.u.
 
----------------------------------------------------------------------
Geometry Convergence after Step   6       (Hartree/Angstrom,Angstrom)
----------------------------------------------------------------------
current energy                              -11.58080951 Hartree
energy change                      -0.00108654     0.00054000    F
constrained gradient max            0.01127235     0.00100000    F
constrained gradient rms            0.00250001     0.00066667    F
gradient max                        0.01127235
gradient rms                        0.00250001
cart. step max                      0.21536593     0.01000000    F
cart. step rms                      0.05524793     0.00666667    F
 
 
--------
Geometry
--------
Formula: C22H28N2OS
Atoms
  Index Symbol   x (angstrom)   y (angstrom)   z (angstrom)
      1      C     0.70685911    -0.92647193    -0.67718235
      2      C     0.68951509    -1.93481659     0.22802135
      3      C     0.99817547    -3.31080664    -0.11493879
      4      O     1.08957592    -4.24067383     0.69637959
      5      C     0.11685438     3.25227678     0.00518612
      6      H     0.89713186    -1.18271175    -1.72065756
      7      H     0.47579564    -1.73208790     1.26702671
      8      H     1.16448742    -3.51764460    -1.19569650
      9      C     0.16828116     2.74225750    -1.29239815
     10      C     0.35954891     1.37790860    -1.49226426
     11      H     0.55433078     0.39602808     1.78621828
     12      H     0.21926536     2.78012089     2.10826266
     13      H    -0.02610591     4.31860611     0.16951716
     14      H     0.06322714     3.40744609    -2.14667182
     15      H     0.40471994     0.98734175    -2.50723727
     16      C     0.49547570     0.49098415    -0.40563047
     17      C     0.44059593     1.02216031     0.90333870
     18      C     0.25228535     2.38617681     1.09436333
     19      N     2.42793142    -2.88734057     3.13115925
     20      C     1.27318615    -2.25788887     3.53026451
     21      S     1.22038613    -0.67381168     4.11420147
     22      N     0.17175358    -3.05412834     3.40510411
     23      C     3.72614076    -2.23772274     2.89754714
     24      H     2.26634369    -3.69088505     2.53112614
     25      C    -1.21094857    -2.67652506     3.64582833
     26      H     0.29968568    -3.87295524     2.82159217
     27      H     3.85005001    -1.46737132     3.65899840
     28      H    -1.19733547    -1.67110280     4.06745425
     29      H     4.48604848    -3.00886710     3.07182417
     30      H     3.59232437     0.38233843     2.13646239
     31      H    -1.73100318    -2.62049766     2.67793734
     32      C     3.90383192    -1.64909247     1.50411333
     33      C     4.16578920    -2.47258392     0.39856628
     34      C     4.25072686    -1.94114819    -0.88644101
     35      C     4.06183355    -0.57334444    -1.09037520
     36      C     3.82977125     0.26000040     0.00251468
     37      C     3.77400219    -0.27193218     1.28928723
     38      H     4.30543070    -3.54343741     0.53704523
     39      H     4.46029978    -2.59441565    -1.73127820
     40      H     4.11397212    -0.15718958    -2.09469811
     41      H     3.70479122     1.32976825    -0.14446312
     42      C    -2.01698644    -3.64967895     4.55506787
     43      C    -3.41461749    -3.02293209     4.73818225
     44      H    -4.05800231    -3.67452629     5.33979071
     45      H    -3.35639851    -2.05393030     5.24651737
     46      H    -3.91660380    -2.86544489     3.77599715
     47      C    -2.16844744    -5.02323387     3.86638515
     48      H    -2.65726265    -4.93042679     2.88891540
     49      H    -2.78020255    -5.69862389     4.47489112
     50      H    -1.20425614    -5.52097641     3.71330264
     51      C    -1.33508023    -3.81714327     5.92406467
     52      H    -1.22379251    -2.85672722     6.43783958
     53      H    -1.92502342    -4.47758279     6.56938770
     54      H    -0.33771203    -4.25632828     5.82407711
 
Total System Charge             0.00000
Bonding info available!
 
 *** GO1_GOStep7 ***

 Energy gradients wrt nuclear displacements
 ==========================================

     Atom      Cartesian (a.u./angstrom)
                 X         Y         Z
 ----------------------------------------
     1 C     0.006567  0.002032  0.000603
     2 C     0.003576  0.000377  0.003279
     3 C     0.005253  0.006810 -0.000568
     4 O     0.002730 -0.000313  0.008151
     5 C     0.000122  0.000495  0.000016
     6 H    -0.000108 -0.000504 -0.000117
     7 H    -0.000467 -0.000885  0.001166
     8 H     0.000196 -0.001294  0.000100
     9 C     0.000005  0.000746 -0.000080
    10 C    -0.000201 -0.000536  0.000703
    11 H    -0.000231 -0.000624  0.007362
    12 H     0.000129  0.000181  0.000701
    13 H    -0.000001  0.000567  0.000445
    14 H    -0.000062  0.000411  0.000015
    15 H    -0.000018  0.000176 -0.000242
    16 C     0.004235  0.000310 -0.001378
    17 C     0.006798 -0.004723  0.003721
    18 C    -0.000067 -0.000055  0.000333
    19 N    -0.002033 -0.000344  0.003891
    20 C    -0.000781 -0.009939 -0.004728
    21 S    -0.003221  0.008732 -0.008900
    22 N    -0.000191  0.005082 -0.002806
    23 C     0.000616  0.001343 -0.003299
    24 H    -0.002203 -0.000286 -0.004109
    25 C     0.001188  0.000093  0.001711
    26 H     0.000388 -0.001363 -0.001081
    27 H     0.000808 -0.000993  0.000163
    28 H    -0.000531 -0.000174 -0.002831
    29 H    -0.000289 -0.000641 -0.000049
    30 H     0.000469  0.000270  0.000352
    31 H    -0.000153 -0.001957 -0.000027
    32 C     0.000183 -0.000363  0.001215
    33 C    -0.004760 -0.000491 -0.001748
    34 C    -0.002173 -0.001586  0.000005
    35 C    -0.004926 -0.000242  0.000080
    36 C    -0.010821  0.000630  0.000254
    37 C     0.000854  0.000654 -0.000668
    38 H     0.000264 -0.000552 -0.000665
    39 H     0.000037  0.000015 -0.000462
    40 H    -0.000244  0.000367 -0.000331
    41 H    -0.000085  0.000283  0.000169
    42 C    -0.000224 -0.000880  0.002016
    43 C     0.001639 -0.000138 -0.000907
    44 H    -0.000787 -0.000227  0.000305
    45 H    -0.000516  0.000566  0.000458
    46 H    -0.000773  0.000176 -0.000307
    47 C     0.000449  0.001424 -0.000046
    48 H    -0.000732 -0.000465 -0.000795
    49 H    -0.000205 -0.000865 -0.000127
    50 H     0.000269 -0.000992 -0.000436
    51 C    -0.000870  0.000618 -0.001865
    52 H     0.000254  0.000177  0.000728
    53 H     0.000036 -0.000530  0.000393
    54 H     0.000608 -0.000571  0.000237
 ----------------------------------------
 Mulliken charges used for AMS results%charges...

 dE(predicted):    -0.23300E-02, dE(actual):    -0.13963E-02, Trust radius:    0.800000, all in a.u.
 
----------------------------------------------------------------------
Geometry Convergence after Step   7       (Hartree/Angstrom,Angstrom)
----------------------------------------------------------------------
current energy                              -11.58220586 Hartree
energy change                      -0.00139635     0.00054000    F
constrained gradient max            0.01082219     0.00100000    F
constrained gradient rms            0.00246314     0.00066667    F
gradient max                        0.01082219
gradient rms                        0.00246314
cart. step max                      0.21095379     0.01000000    F
cart. step rms                      0.05591847     0.00666667    F
 
 
--------
Geometry
--------
Formula: C22H28N2OS
Atoms
  Index Symbol   x (angstrom)   y (angstrom)   z (angstrom)
      1      C     0.69766822    -0.93580083    -0.67002930
      2      C     0.67742227    -1.93205611     0.24869831
      3      C     0.97597603    -3.31343355    -0.08002156
      4      O     1.06478135    -4.23775323     0.73729539
      5      C     0.11075523     3.25452403    -0.05912600
      6      H     0.88742236    -1.20734686    -1.70979048
      7      H     0.47030132    -1.71049135     1.28519667
      8      H     1.13594920    -3.53044944    -1.15995364
      9      C     0.16057668     2.72132344    -1.34725295
     10      C     0.35216450     1.35364078    -1.52243301
     11      H     0.55958538     0.43372057     1.77362654
     12      H     0.22006771     2.81971107     2.05169529
     13      H    -0.03147378     4.32359086     0.08653037
     14      H     0.05458692     3.37076087    -2.21334266
     15      H     0.39562325     0.94485586    -2.53019623
     16      C     0.48918185     0.48557388    -0.42035787
     17      C     0.43756077     1.04077187     0.87836633
     18      C     0.24979879     2.40816666     1.04480253
     19      N     2.42613447    -2.83310777     3.15833709
     20      C     1.27577335    -2.20526505     3.57000511
     21      S     1.22861184    -0.62065819     4.15284423
     22      N     0.17373893    -3.00386113     3.45787675
     23      C     3.72410304    -2.19177046     2.91529956
     24      H     2.26042861    -3.64912570     2.57776512
     25      C    -1.20156963    -2.62966506     3.73308498
     26      H     0.29869470    -3.81669258     2.86411566
     27      H     3.84875161    -1.40768612     3.66287341
     28      H    -1.16726912    -1.66573667     4.24219304
     29      H     4.48352177    -2.95998643     3.10561616
     30      H     3.60539138     0.41484893     2.10491225
     31      H    -1.73087735    -2.47205439     2.78024546
     32      C     3.90771375    -1.63005534     1.51127694
     33      C     4.17194752    -2.47488865     0.42209041
     34      C     4.26697369    -1.96723256    -0.87171809
     35      C     4.08856710    -0.60209565    -1.10167584
     36      C     3.85656821     0.25217361    -0.02544851
     37      C     3.78772294    -0.25646983     1.27077855
     38      H     4.30428613    -3.54381306     0.58037599
     39      H     4.47699219    -2.63694968    -1.70329014
     40      H     4.14872588    -0.20463995    -2.11300862
     41      H     3.74080436     1.32017002    -0.19195648
     42      C    -2.01614139    -3.66807577     4.55778109
     43      C    -3.40037729    -3.03703441     4.81414118
     44      H    -4.05003484    -3.73114635     5.35879683
     45      H    -3.31910814    -2.12124430     5.40983246
     46      H    -3.90739624    -2.78163339     3.87609094
     47      C    -2.20412294    -4.97013737     3.75026862
     48      H    -2.69439989    -4.77764899     2.78865660
     49      H    -2.83037470    -5.68121226     4.30065097
     50      H    -1.25540910    -5.47930388     3.54619371
     51      C    -1.32715842    -3.97376465     5.89885602
     52      H    -1.20354145    -3.06768101     6.50158006
     53      H    -1.91974548    -4.68604821     6.48381904
     54      H    -0.33522796    -4.41141062     5.75085797
 
Total System Charge             0.00000
Bonding info available!
 
 *** GO1_GOStep8 ***

 Energy gradients wrt nuclear displacements
 ==========================================

     Atom      Cartesian (a.u./angstrom)
                 X         Y         Z
 ----------------------------------------
     1 C     0.006251  0.002936  0.000652
     2 C     0.003167 -0.001091  0.002996
     3 C     0.004922  0.007214  0.000596
     4 O     0.002725 -0.000890  0.006448
     5 C    -0.000031  0.000416 -0.000134
     6 H     0.000165 -0.000435 -0.000079
     7 H    -0.000047 -0.000050  0.000696
     8 H     0.000124 -0.001308  0.000061
     9 C    -0.000114  0.001032 -0.000082
    10 C     0.000044 -0.000587  0.000605
    11 H     0.000375 -0.000041  0.007645
    12 H     0.000107  0.000091  0.000649
    13 H     0.000063  0.000528  0.000424
    14 H    -0.000034  0.000332  0.000092
    15 H    -0.000038  0.000154 -0.000145
    16 C     0.003805 -0.000270 -0.000696
    17 C     0.005483 -0.004624  0.002527
    18 C     0.000151  0.000119  0.000122
    19 N    -0.000687  0.000554  0.003242
    20 C    -0.000595 -0.010403 -0.004728
    21 S    -0.003158  0.008316 -0.008146
    22 N    -0.003296  0.005918 -0.001081
    23 C    -0.000810  0.000856 -0.003371
    24 H    -0.002698  0.000147 -0.003323
    25 C     0.002586 -0.001494  0.001021
    26 H     0.002179 -0.001681 -0.001588
    27 H     0.001052 -0.000881  0.000484
    28 H    -0.000059  0.000430 -0.002945
    29 H    -0.000176 -0.000670  0.000022
    30 H     0.000357  0.000515  0.000655
    31 H    -0.000965 -0.001058 -0.000361
    32 C    -0.000276 -0.000224  0.001420
    33 C    -0.004248 -0.000898 -0.002095
    34 C    -0.001875 -0.001527  0.000117
    35 C    -0.004832 -0.000098  0.000051
    36 C    -0.009919  0.000700 -0.000728
    37 C     0.000998  0.000053 -0.000288
    38 H     0.000181 -0.000413 -0.000683
    39 H     0.000022  0.000122 -0.000308
    40 H    -0.000310  0.000321 -0.000255
    41 H     0.000040  0.000219  0.000175
    42 C     0.000453 -0.001099  0.001820
    43 C     0.001491 -0.000117 -0.000690
    44 H    -0.000845 -0.000362  0.000345
    45 H    -0.000383  0.000315  0.000425
    46 H    -0.000649  0.000209 -0.000249
    47 C     0.000278  0.001978  0.000200
    48 H    -0.000518 -0.000261 -0.000456
    49 H    -0.000190 -0.000920 -0.000014
    50 H     0.000137 -0.001265 -0.000490
    51 C    -0.001025  0.000155 -0.002304
    52 H    -0.000030  0.000212  0.000933
    53 H     0.000128 -0.000625  0.000628
    54 H     0.000521 -0.000551  0.000188
 ----------------------------------------
 Mulliken charges used for AMS results%charges...

 dE(predicted):    -0.28712E-02, dE(actual):    -0.16853E-02, Trust radius:    0.800000, all in a.u.
 
----------------------------------------------------------------------
Geometry Convergence after Step   8       (Hartree/Angstrom,Angstrom)
----------------------------------------------------------------------
current energy                              -11.58389117 Hartree
energy change                      -0.00168531     0.00054000    F
constrained gradient max            0.01030791     0.00100000    F
constrained gradient rms            0.00237297     0.00066667    F
gradient max                        0.01030791
gradient rms                        0.00237297
cart. step max                      0.21158213     0.01000000    F
cart. step rms                      0.05663063     0.00666667    F
 
 
--------
Geometry
--------
Formula: C22H28N2OS
Atoms
  Index Symbol   x (angstrom)   y (angstrom)   z (angstrom)
      1      C     0.68641237    -0.95029247    -0.66609154
      2      C     0.66663916    -1.93582569     0.26421998
      3      C     0.95324221    -3.32167124    -0.05543350
      4      O     1.03795851    -4.24243348     0.76502067
      5      C     0.08041601     3.24552622    -0.11507519
      6      H     0.87522448    -1.23407014    -1.70276768
      7      H     0.46779820    -1.69786874     1.29918057
      8      H     1.10653091    -3.54371958    -1.13563504
      9      C     0.13334935     2.69358289    -1.39505527
     10      C     0.33285036     1.32483801    -1.55003261
     11      H     0.55650382     0.45714952     1.75771085
     12      H     0.19666675     2.84201399     2.00154537
     13      H    -0.06959158     4.31534481     0.01502927
     14      H     0.02235195     3.32911080    -2.27066648
     15      H     0.37660233     0.90134404    -2.55153558
     16      C     0.47541667     0.47317801    -0.43520601
     17      C     0.42314628     1.04820477     0.85391621
     18      C     0.22682445     2.41664967     1.00063945
     19      N     2.43291357    -2.79034452     3.18022208
     20      C     1.28821209    -2.16516027     3.61074048
     21      S     1.25149549    -0.58568647     4.20390834
     22      N     0.18331608    -2.96489819     3.51051387
     23      C     3.72782341    -2.15194051     2.93283181
     24      H     2.26579219    -3.61795240     2.61837358
     25      C    -1.18088904    -2.58582022     3.82659195
     26      H     0.30152245    -3.76579483     2.89833392
     27      H     3.84569157    -1.35404687     3.66705609
     28      H    -1.11763888    -1.67395321     4.42261348
     29      H     4.49174544    -2.91193639     3.13891280
     30      H     3.61281992     0.44173018     2.07717414
     31      H    -1.71790515    -2.32192791     2.90074422
     32      C     3.91655977    -1.61341234     1.51953584
     33      C     4.18897251    -2.47613532     0.44655064
     34      C     4.29870406    -1.98922438    -0.85405216
     35      C     4.13270140    -0.62666288    -1.10728883
     36      C     3.89264151     0.24462362    -0.04725102
     37      C     3.80192554    -0.24379758     1.25607946
     38      H     4.31546182    -3.54275133     0.62301735
     39      H     4.51271761    -2.67283997    -1.67305900
     40      H     4.20650818    -0.24536010    -2.12376958
     41      H     3.78486501     1.31070697    -0.23113943
     42      C    -2.01486969    -3.67472672     4.55901442
     43      C    -3.38021756    -3.03602868     4.88792882
     44      H    -4.04265630    -3.76217406     5.37131221
     45      H    -3.26933787    -2.18259020     5.56504327
     46      H    -3.88620535    -2.68188893     3.98239246
     47      C    -2.24615385    -4.89079565     3.63717671
     48      H    -2.73168712    -4.59508003     2.70022727
     49      H    -2.89355661    -5.62788292     4.12470689
     50      H    -1.31648721    -5.41103353     3.38118523
     51      C    -1.32578446    -4.12180352     5.85980221
     52      H    -1.18107556    -3.27926314     6.54452700
     53      H    -1.93120837    -4.87278384     6.37904914
     54      H    -0.34441319    -4.56401966     5.66505712
 
Total System Charge             0.00000
Bonding info available!
 
 *** GO1_GOStep9 ***

 Energy gradients wrt nuclear displacements
 ==========================================

     Atom      Cartesian (a.u./angstrom)
                 X         Y         Z
 ----------------------------------------
     1 C     0.005887  0.003555  0.000600
     2 C     0.002902 -0.002670  0.002709
     3 C     0.004333  0.006630  0.001561
     4 O     0.002585 -0.000714  0.004488
     5 C     0.000045  0.000373 -0.000066
     6 H     0.000469 -0.000234  0.000004
     7 H     0.000358  0.001031  0.000694
     8 H     0.000063 -0.001017 -0.000091
     9 C    -0.000011  0.001029 -0.000024
    10 C     0.000115 -0.000207  0.000254
    11 H     0.000928  0.000506  0.007227
    12 H     0.000113 -0.000086  0.000491
    13 H     0.000022  0.000291  0.000392
    14 H    -0.000044  0.000209  0.000177
    15 H    -0.000102  0.000163 -0.000004
    16 C     0.003469 -0.001229  0.000619
    17 C     0.004180 -0.004501  0.001222
    18 C     0.000135  0.000335 -0.000164
    19 N     0.001553  0.000610  0.001723
    20 C    -0.000164 -0.008045 -0.004466
    21 S    -0.002766  0.006753 -0.007466
    22 N    -0.007324  0.004458 -0.000034
    23 C    -0.002566 -0.000066 -0.002202
    24 H    -0.002766  0.000550 -0.002500
    25 C     0.003666 -0.002847  0.001446
    26 H     0.004565 -0.001730 -0.002204
    27 H     0.001060 -0.000672  0.000675
    28 H     0.000191  0.001117 -0.002414
    29 H     0.000070 -0.000567 -0.000010
    30 H     0.000297  0.000504  0.000685
    31 H    -0.001857 -0.000432 -0.000564
    32 C    -0.000884 -0.000008  0.000852
    33 C    -0.003625 -0.001227 -0.002064
    34 C    -0.001752 -0.001339  0.000307
    35 C    -0.004281  0.000291  0.000016
    36 C    -0.008425  0.000182 -0.001817
    37 C     0.000325 -0.000295  0.000446
    38 H     0.000073 -0.000165 -0.000643
    39 H    -0.000054  0.000278 -0.000236
    40 H    -0.000398  0.000221 -0.000144
    41 H     0.000094  0.000136  0.000178
    42 C     0.000210 -0.000211  0.001389
    43 C     0.001084 -0.000099 -0.000055
    44 H    -0.000575 -0.000358  0.000174
    45 H    -0.000044 -0.000021  0.000205
    46 H    -0.000148  0.000050 -0.000065
    47 C    -0.000081  0.002247  0.000067
    48 H    -0.000125 -0.000124 -0.000066
    49 H     0.000085 -0.000619  0.000000
    50 H    -0.000245 -0.001265 -0.000609
    51 C    -0.000736 -0.000108 -0.002195
    52 H    -0.000239  0.000143  0.000822
    53 H     0.000184 -0.000455  0.000504
    54 H     0.000151 -0.000351  0.000177
 ----------------------------------------
 Mulliken charges used for AMS results%charges...

 dE(predicted):    -0.31580E-02, dE(actual):    -0.23134E-02, Trust radius:    0.800000, all in a.u.
 
----------------------------------------------------------------------
Geometry Convergence after Step   9       (Hartree/Angstrom,Angstrom)
----------------------------------------------------------------------
current energy                              -11.58620461 Hartree
energy change                      -0.00231344     0.00054000    F
constrained gradient max            0.00842388     0.00100000    F
constrained gradient rms            0.00218848     0.00066667    F
gradient max                        0.00842388
gradient rms                        0.00218848
cart. step max                      0.21170175     0.01000000    F
cart. step rms                      0.05935371     0.00666667    F
 
 
--------
Geometry
--------
Formula: C22H28N2OS
Atoms
  Index Symbol   x (angstrom)   y (angstrom)   z (angstrom)
      1      C     0.66109665    -0.96417789    -0.66667607
      2      C     0.64546981    -1.94026969     0.27359326
      3      C     0.90863517    -3.33170079    -0.04498131
      4      O     0.98554997    -4.25249575     0.77453487
      5      C     0.02959639     3.23404739    -0.16661457
      6      H     0.84345921    -1.25828177    -1.70157304
      7      H     0.46119184    -1.68842858     1.30909466
      8      H     1.05037514    -3.55173982    -1.12764486
      9      C     0.08655126     2.66644191    -1.43959043
     10      C     0.29688619     1.29812614    -1.57834889
     11      H     0.54146252     0.47264705     1.73361453
     12      H     0.15529864     2.85769113     1.95439816
     13      H    -0.12773322     4.30409292    -0.04997534
     14      H    -0.02858436     3.29040554    -2.32283859
     15      H     0.34235030     0.86269875    -2.57437703
     16      C     0.44708757     0.46079929    -0.45274203
     17      C     0.39421402     1.05289537     0.82689146
     18      C     0.18571274     2.42101054     0.95873734
     19      N     2.44432559    -2.75591024     3.19647322
     20      C     1.31168171    -2.13185098     3.66036857
     21      S     1.29940925    -0.56808677     4.28515209
     22      N     0.19995172    -2.93040992     3.57160684
     23      C     3.73499877    -2.11901056     2.94937242
     24      H     2.27617321    -3.59583804     2.65573248
     25      C    -1.14905941    -2.54026968     3.93619088
     26      H     0.30227827    -3.70906208     2.92832609
     27      H     3.83851033    -1.30517870     3.66814652
     28      H    -1.05172972    -1.69716386     4.62329996
     29      H     4.50743826    -2.86574023     3.17241572
     30      H     3.61779090     0.46069699     2.04759042
     31      H    -1.68708176    -2.16159788     3.05087307
     32      C     3.92912312    -1.60289033     1.52682177
     33      C     4.21477248    -2.48252566     0.47234187
     34      C     4.35064448    -2.01568495    -0.83316209
     35      C     4.20712753    -0.65502016    -1.10892129
     36      C     3.95080709     0.23156534    -0.06637942
     37      C     3.82071621    -0.23764821     1.24116628
     38      H     4.33166132    -3.54681151     0.66741791
     39      H     4.57111443    -2.71312390    -1.63861865
     40      H     4.30672481    -0.28876445    -2.12848640
     41      H     3.85578541     1.29604362    -0.26690588
     42      C    -2.00995263    -3.67188022     4.56134119
     43      C    -3.36141819    -3.03486076     4.94923073
     44      H    -4.03990926    -3.78829699     5.36158301
     45      H    -3.23084112    -2.25164445     5.70238750
     46      H    -3.85519957    -2.58656943     4.07995063
     47      C    -2.26872072    -4.79157866     3.53114480
     48      H    -2.73507185    -4.39625917     2.62226012
     49      H    -2.94206766    -5.54871305     3.94629733
     50      H    -1.35254181    -5.31306732     3.23477845
     51      C    -1.33746058    -4.26035643     5.81454507
     52      H    -1.17706153    -3.49096489     6.57676484
     53      H    -1.96447038    -5.04180691     6.25639903
     54      H    -0.36642295    -4.70507570     5.58081904
 
Total System Charge             0.00000
Bonding info available!
 
 *** GO1_GOStep10 ***

 Energy gradients wrt nuclear displacements
 ==========================================

     Atom      Cartesian (a.u./angstrom)
                 X         Y         Z
 ----------------------------------------
     1 C     0.005484  0.003641  0.000473
     2 C     0.002947 -0.003783  0.002465
     3 C     0.002673  0.004665  0.001459
     4 O     0.002185 -0.000676  0.002793
     5 C    -0.000149  0.000279  0.000243
     6 H     0.000719  0.000205  0.000198
     7 H     0.000712  0.002464  0.001352
     8 H     0.000060 -0.000129 -0.000403
     9 C    -0.000165  0.000576  0.000121
    10 C     0.000064  0.000719 -0.000410
    11 H     0.001223  0.001037  0.004767
    12 H     0.000113 -0.000244  0.000224
    13 H     0.000214  0.000006  0.000350
    14 H     0.000103  0.000139  0.000289
    15 H    -0.000108  0.000243  0.000266
    16 C     0.002775 -0.002415  0.002757
    17 C     0.002893 -0.004338  0.000125
    18 C    -0.000121  0.000828 -0.000351
    19 N     0.003720 -0.000851 -0.001044
    20 C     0.000986 -0.000457 -0.003558
    21 S    -0.001406  0.003785 -0.006286
    22 N    -0.012018 -0.000580  0.000181
    23 C    -0.004302 -0.001510  0.000780
    24 H    -0.002117  0.000727 -0.001406
    25 C     0.004008 -0.002930  0.001587
    26 H     0.006836 -0.001290 -0.002692
    27 H     0.000618 -0.000232  0.000488
    28 H     0.000316  0.002023 -0.001378
    29 H     0.000435 -0.000291 -0.000250
    30 H     0.000300  0.000038  0.000357
    31 H    -0.002118  0.000003 -0.000762
    32 C    -0.001859  0.000412 -0.001261
    33 C    -0.002835 -0.000953 -0.001231
    34 C    -0.001600 -0.000919  0.000787
    35 C    -0.003156  0.001153 -0.000130
    36 C    -0.005663 -0.001172 -0.002667
    37 C    -0.001403 -0.000298  0.001537
    38 H    -0.000052  0.000175 -0.000500
    39 H    -0.000219  0.000414 -0.000205
    40 H    -0.000538  0.000083  0.000058
    41 H     0.000145  0.000012  0.000254
    42 C     0.000800  0.001055  0.000609
    43 C    -0.000651  0.000508  0.000880
    44 H     0.000039 -0.000068 -0.000354
    45 H     0.000153 -0.000683 -0.000475
    46 H     0.000356 -0.000289  0.000054
    47 C     0.000071  0.001232  0.000690
    48 H     0.000479 -0.000031  0.000395
    49 H     0.000293 -0.000172 -0.000007
    50 H    -0.000404 -0.000539 -0.000574
    51 C    -0.000089 -0.001200 -0.000880
    52 H    -0.000556 -0.000311 -0.000033
    53 H     0.000254 -0.000012  0.000120
    54 H    -0.000448 -0.000049  0.000199
 ----------------------------------------
 Mulliken charges used for AMS results%charges...

 dE(predicted):    -0.31851E-02, dE(actual):    -0.31566E-02, Trust radius:    1.000000, all in a.u.
 
----------------------------------------------------------------------
Geometry Convergence after Step  10       (Hartree/Angstrom,Angstrom)
----------------------------------------------------------------------
current energy                              -11.58936124 Hartree
energy change                      -0.00315663     0.00054000    F
constrained gradient max            0.01202761     0.00100000    F
constrained gradient rms            0.00199128     0.00066667    F
gradient max                        0.01202761
gradient rms                        0.00199128
cart. step max                      0.20956678     0.01000000    F
cart. step rms                      0.05878216     0.00666667    F
 
 
--------
Geometry
--------
Formula: C22H28N2OS
Atoms
  Index Symbol   x (angstrom)   y (angstrom)   z (angstrom)
      1      C     0.63579114    -0.98302842    -0.66731597
      2      C     0.62866898    -1.95000959     0.28216157
      3      C     0.87326130    -3.34550149    -0.03535177
      4      O     0.94202739    -4.26504405     0.78475418
      5      C    -0.02675359     3.21483015    -0.21214548
      6      H     0.81003842    -1.28718249    -1.70081368
      7      H     0.45651808    -1.68931088     1.31804183
      8      H     1.00492622    -3.56546358    -1.11964310
      9      C     0.03480610     2.63405242    -1.47926830
     10      C     0.25754577     1.26672217    -1.60435195
     11      H     0.51895845     0.47592605     1.71096734
     12      H     0.10600394     2.86304039     1.91308487
     13      H    -0.19799108     4.28392122    -0.10733198
     14      H    -0.08974977     3.24726019    -2.36880671
     15      H     0.30445026     0.82074611    -2.59560064
     16      C     0.41623026     0.44320898    -0.46941558
     17      C     0.36153163     1.04925631     0.80290490
     18      C     0.13974372     2.41634921     0.92210874
     19      N     2.45971838    -2.72555089     3.21590250
     20      C     1.33577137    -2.10849267     3.71059558
     21      S     1.33798833    -0.56078185     4.36816540
     22      N     0.22037712    -2.90576288     3.62903589
     23      C     3.74692453    -2.08674209     2.96744728
     24      H     2.29448719    -3.57722192     2.69387318
     25      C    -1.11625790    -2.50611081     4.03154343
     26      H     0.30478824    -3.66316892     2.95891991
     27      H     3.83578412    -1.25889433     3.67170906
     28      H    -0.98956043    -1.73640285     4.79557398
     29      H     4.52716935    -2.82026166     3.20666439
     30      H     3.62136758     0.47938786     2.02353480
     31      H    -1.64581505    -2.02763771     3.19074181
     32      C     3.94659101    -1.59050656     1.53744905
     33      C     4.24691596    -2.48469442     0.50067561
     34      C     4.40840780    -2.03623799    -0.80839364
     35      C     4.28181193    -0.67797698    -1.10419094
     36      C     4.00605945     0.22229304    -0.07845568
     37      C     3.84102103    -0.22964048     1.23120415
     38      H     4.35756393    -3.54643351     0.71293565
     39      H     4.63902969    -2.74584584    -1.60042110
     40      H     4.40778923    -0.32502439    -2.12550030
     41      H     3.91954505     1.28478108    -0.29436828
     42      C    -2.00774166    -3.66379913     4.55529146
     43      C    -3.33544885    -3.02463673     5.01708655
     44      H    -4.03071788    -3.79251729     5.36959442
     45      H    -3.17207881    -2.31662270     5.83561074
     46      H    -3.82444494    -2.48526979     4.19844979
     47      C    -2.31124071    -4.67771674     3.43069614
     48      H    -2.76696538    -4.18669240     2.56409038
     49      H    -3.00945017    -5.44379381     3.78290582
     50      H    -1.41526614    -5.20166249     3.08279144
     51      C    -1.34200281    -4.38370054     5.74277558
     52      H    -1.15055250    -3.69161606     6.56922978
     53      H    -1.98958046    -5.18251508     6.11861635
     54      H    -0.38734922    -4.83389754     5.45806783
 
Total System Charge             0.00000
Bonding info available!
 
 *** GO1_GOStep11 ***

 Energy gradients wrt nuclear displacements
 ==========================================

     Atom      Cartesian (a.u./angstrom)
                 X         Y         Z
 ----------------------------------------
     1 C     0.005126  0.003009  0.000661
     2 C     0.002884 -0.004134  0.002977
     3 C     0.001753  0.003120  0.001117
     4 O     0.001561 -0.000103  0.001186
     5 C     0.000104  0.000303  0.000501
     6 H     0.000829  0.000476  0.000168
     7 H     0.000896  0.003138  0.001504
     8 H    -0.000126  0.000456 -0.000593
     9 C     0.000150  0.000129 -0.000022
    10 C    -0.000001  0.001069 -0.000855
    11 H     0.001241  0.001060  0.002518
    12 H     0.000038 -0.000301  0.000193
    13 H    -0.000023 -0.000055  0.000324
    14 H    -0.000076  0.000107  0.000253
    15 H    -0.000116  0.000222  0.000272
    16 C     0.001516 -0.002674  0.003495
    17 C     0.001955 -0.003947  0.000276
    18 C    -0.000221  0.001113 -0.000165
    19 N     0.004675 -0.001477 -0.002202
    20 C     0.000705  0.003798 -0.002636
    21 S    -0.001052  0.001583 -0.005183
    22 N    -0.012979 -0.003756  0.000907
    23 C    -0.004213 -0.002511  0.002583
    24 H    -0.001326  0.000369 -0.000742
    25 C     0.003742 -0.001076  0.001617
    26 H     0.007581 -0.000393 -0.002498
    27 H     0.000176 -0.000102  0.000006
    28 H     0.000855  0.001543 -0.000919
    29 H     0.000650 -0.000053 -0.000418
    30 H     0.000189 -0.000381  0.000064
    31 H    -0.002272 -0.000048 -0.000412
    32 C    -0.002164  0.000803 -0.002978
    33 C    -0.002425 -0.000265 -0.000341
    34 C    -0.001503 -0.000846  0.001153
    35 C    -0.002273  0.001653 -0.000329
    36 C    -0.003094 -0.002054 -0.002184
    37 C    -0.002426  0.000015  0.001618
    38 H    -0.000098  0.000192 -0.000346
    39 H    -0.000259  0.000308 -0.000255
    40 H    -0.000447  0.000044  0.000078
    41 H     0.000162  0.000118  0.000299
    42 C     0.001105  0.000783 -0.000159
    43 C    -0.001677  0.000489  0.001319
    44 H     0.000434  0.000090 -0.000421
    45 H     0.000303 -0.000522 -0.000445
    46 H     0.000386 -0.000185  0.000138
    47 C    -0.000485 -0.000005 -0.000043
    48 H     0.000510 -0.000227  0.000318
    49 H     0.000402  0.000100 -0.000020
    50 H    -0.000388 -0.000052 -0.000215
    51 C     0.000421 -0.000942 -0.000894
    52 H    -0.000457 -0.000304 -0.000069
    53 H     0.000140  0.000122 -0.000216
    54 H    -0.000390  0.000200  0.000015
 ----------------------------------------
 Mulliken charges used for AMS results%charges...

 dE(predicted):    -0.33124E-02, dE(actual):    -0.23401E-02, Trust radius:    1.000000, all in a.u.
 
----------------------------------------------------------------------
Geometry Convergence after Step  11       (Hartree/Angstrom,Angstrom)
----------------------------------------------------------------------
current energy                              -11.59170131 Hartree
energy change                      -0.00234007     0.00054000    F
constrained gradient max            0.01298758     0.00100000    F
[...]
     8 H    -0.000849  0.000629  0.000008
     9 C    -0.001790 -0.000370  0.000934
    10 C     0.000548  0.001230 -0.001017
    11 H    -0.001890  0.000286 -0.000725
    12 H     0.000066 -0.000064  0.000469
    13 H    -0.000071  0.000349  0.000163
    14 H     0.000082  0.000300  0.000297
    15 H    -0.000182  0.000172  0.000077
    16 C     0.000492  0.001635  0.001737
    17 C     0.003519 -0.001715  0.000560
    18 C     0.000043  0.000733  0.000878
    19 N     0.001663  0.001088 -0.001157
    20 C     0.002322  0.001632  0.001632
    21 S     0.000302  0.000378 -0.001287
    22 N    -0.003738 -0.005625 -0.004130
    23 C    -0.001144 -0.002289  0.002580
    24 H     0.000025 -0.000679 -0.001016
    25 C    -0.000442  0.000887 -0.000194
    26 H     0.001507  0.003806  0.002978
    27 H     0.000131 -0.000233 -0.000666
    28 H     0.000240 -0.000514  0.000406
    29 H     0.000049  0.000021 -0.000058
    30 H    -0.000064 -0.000330  0.000178
    31 H     0.000037 -0.000513  0.000480
    32 C     0.000237 -0.000072 -0.001006
    33 C    -0.000011  0.000187 -0.001169
    34 C    -0.000613 -0.001363  0.000711
    35 C     0.001130  0.000596  0.000850
    36 C     0.000011 -0.000204  0.000868
    37 C    -0.002086  0.001266 -0.001191
    38 H    -0.000017 -0.000093 -0.000274
    39 H    -0.000235  0.000473 -0.000186
    40 H     0.000240 -0.000101 -0.000417
    41 H    -0.000084  0.000197  0.000057
    42 C     0.000170 -0.000076 -0.001368
    43 C     0.000248 -0.000361  0.000469
    44 H     0.000270 -0.000032 -0.000181
    45 H     0.000205 -0.000270 -0.000033
    46 H     0.000085 -0.000107  0.000239
    47 C    -0.000381 -0.000730 -0.000444
    48 H     0.000140 -0.000073  0.000391
    49 H    -0.000117  0.000171  0.000033
    50 H    -0.000520 -0.000424  0.000595
    51 C     0.000585  0.000313 -0.000217
    52 H     0.000087 -0.000080 -0.000046
    53 H    -0.000237  0.000679 -0.000042
    54 H    -0.000263 -0.000610 -0.000178
 ----------------------------------------
 Mulliken charges used for AMS results%charges...

 dE(predicted):    -0.13418E-03, dE(actual):    -0.24861E-03, Trust radius:    1.000000, all in a.u.
 
----------------------------------------------------------------------
Geometry Convergence after Step  52       (Hartree/Angstrom,Angstrom)
----------------------------------------------------------------------
current energy                              -11.60377708 Hartree
energy change                      -0.00024861     0.00054000    T
constrained gradient max            0.00548917     0.00100000    F
constrained gradient rms            0.00121748     0.00066667    F
gradient max                        0.00548917
gradient rms                        0.00121748
cart. step max                      0.21150121     0.01000000    F
cart. step rms                      0.06204846     0.00666667    F
 
 
--------
Geometry
--------
Formula: C22H28N2OS
Atoms
  Index Symbol   x (angstrom)   y (angstrom)   z (angstrom)
      1      C     0.15744613    -1.92329684    -0.98427264
      2      C     0.61750136    -2.64487729     0.06654453
      3      C     1.02906596    -4.03677386    -0.06354941
      4      O     1.47401155    -4.72453328     0.85694811
      5      C    -1.12552933     2.15521242    -1.11580755
      6      H     0.09044704    -2.42851811    -1.95017593
      7      H     0.67007592    -2.22211287     1.06484634
      8      H     0.91515408    -4.47158105    -1.08255571
      9      C    -1.30885560     1.31310104    -2.21239444
     10      C    -0.86932483    -0.00565586    -2.15715881
     11      H     0.38228661    -0.01096691     1.01381093
     12      H    -0.36512077     2.31652707     0.89775108
     13      H    -1.46243062     3.18880124    -1.15805284
     14      H    -1.78696270     1.68816566    -3.11416816
     15      H    -1.01049585    -0.65489478    -3.01862519
     16      C    -0.26070011    -0.52379258    -0.99471641
     17      C    -0.08312341     0.34373434     0.10240085
     18      C    -0.51047730     1.66442346     0.03957730
     19      N     2.73158128    -2.86617950     3.29653706
     20      C     1.79247277    -2.51222630     4.22577667
     21      S     2.08149683    -1.42778815     5.47307155
     22      N     0.57283668    -3.12103041     4.00335347
     23      C     4.09727646    -2.37065429     3.22315183
     24      H     2.45757484    -3.52313215     2.57298018
     25      C    -0.50347823    -3.21584501     4.98155817
     26      H     0.58999195    -3.85267453     3.30905989
     27      H     4.26910904    -1.79443625     4.13490424
     28      H    -0.54849890    -4.25219933     5.34960931
     29      H     4.78102853    -3.22852869     3.23064955
     30      H     3.35474031     0.22376927     2.75364611
     31      H    -0.21587431    -2.58395976     5.82349595
     32      C     4.37350474    -1.51645737     1.99209389
     33      C     5.09866566    -2.02902308     0.91063073
     34      C     5.37286795    -1.24125591    -0.20795630
     35      C     4.92897516     0.07902889    -0.25931395
     36      C     4.19527146     0.59920646     0.80858718
     37      C     3.91697308    -0.19070631     1.92105457
     38      H     5.46133613    -3.05515612     0.94322303
     39      H     5.94046287    -1.65611731    -1.03834399
     40      H     5.15072678     0.69648970    -1.12743421
     41      H     3.84466268     1.62912852     0.77674135
     42      C    -1.91885233    -2.80914997     4.47856076
     43      C    -2.88661621    -3.05994815     5.65417489
     44      H    -3.91039659    -2.79034883     5.37506910
     45      H    -2.89047038    -4.11459346     5.95172464
     46      H    -2.61188913    -2.46494290     6.53157821
     47      C    -1.95599300    -1.31814997     4.09530960
     48      H    -1.67257765    -0.68431294     4.94090854
     49      H    -2.96160487    -1.02568311     3.77370394
     50      H    -1.26764543    -1.10213410     3.27543220
     51      C    -2.35787513    -3.66806217     3.27502769
     52      H    -2.35736618    -4.73585301     3.52267369
     53      H    -3.37404536    -3.39757058     2.96680289
     54      H    -1.71069401    -3.52405933     2.40538177
 
Total System Charge             0.00000
Bonding info available!
 
 *** GO1_GOStep53 ***

 Energy gradients wrt nuclear displacements
 ==========================================

     Atom      Cartesian (a.u./angstrom)
                 X         Y         Z
 ----------------------------------------
     1 C    -0.002210 -0.002063  0.001159
     2 C     0.004160  0.002082 -0.001794
     3 C     0.000083 -0.000577 -0.002161
     4 O     0.001051 -0.000944  0.001663
     5 C     0.001016  0.000359 -0.000646
     6 H    -0.000026  0.000664 -0.000312
     7 H    -0.003118 -0.001014  0.001638
     8 H    -0.001213  0.001262 -0.000019
     9 C    -0.001747 -0.000365  0.001011
    10 C     0.000472  0.001219 -0.001234
    11 H    -0.002595  0.000572 -0.000478
    12 H     0.000033 -0.000052  0.000475
    13 H    -0.000170  0.000361  0.000150
    14 H    -0.000007  0.000297  0.000350
    15 H    -0.000159  0.000149  0.000117
    16 C     0.000089  0.001854  0.001988
    17 C     0.004679 -0.001939  0.000249
    18 C     0.000041  0.000836  0.000853
    19 N     0.002682  0.001593 -0.000784
    20 C     0.003808  0.002892  0.002307
    21 S     0.000239  0.000155 -0.001539
    22 N    -0.006660 -0.007207 -0.004398
    23 C    -0.001888 -0.003089  0.003318
    24 H    -0.000449 -0.001211 -0.001694
    25 C     0.000459  0.001696 -0.000122
    26 H     0.002026  0.004216  0.002913
    27 H     0.000290 -0.000238 -0.000635
    28 H     0.000462 -0.000778  0.000254
    29 H    -0.000006  0.000043 -0.000024
    30 H     0.000020 -0.000339  0.000037
    31 H    -0.000208 -0.000777  0.000491
    32 C     0.000451 -0.000566 -0.001199
    33 C    -0.000413  0.000223 -0.001021
    34 C    -0.000584 -0.001207  0.000671
    35 C     0.001354  0.000808  0.001054
    36 C    -0.000067 -0.000475  0.000803
    37 C    -0.002039  0.001874 -0.001416
    38 H    -0.000030 -0.000130 -0.000194
    39 H    -0.000235  0.000476 -0.000201
    40 H     0.000332 -0.000140 -0.000414
    41 H    -0.000153  0.000219  0.000074
    42 C     0.000007  0.000229 -0.001362
    43 C     0.000470 -0.000277  0.000823
    44 H     0.000317 -0.000018 -0.000277
    45 H     0.000262 -0.000347 -0.000002
    46 H     0.000135 -0.000107  0.000155
    47 C    -0.000706 -0.000152 -0.000753
    48 H     0.000161 -0.000263  0.000289
    49 H    -0.000059  0.000239  0.000064
    50 H    -0.000638 -0.000599  0.000715
    51 C     0.000369 -0.000041 -0.001076
    52 H     0.000418 -0.000045  0.000234
    53 H    -0.000095  0.001347  0.000048
    54 H    -0.000412 -0.000701 -0.000144
 ----------------------------------------
 Mulliken charges used for AMS results%charges...

 dE(predicted):    -0.12251E-03, dE(actual):    -0.22690E-03, Trust radius:    1.000000, all in a.u.
 
----------------------------------------------------------------------
Geometry Convergence after Step  53       (Hartree/Angstrom,Angstrom)
----------------------------------------------------------------------
current energy                              -11.60400398 Hartree
energy change                      -0.00022690     0.00054000    T
constrained gradient max            0.00707647     0.00100000    F
constrained gradient rms            0.00149653     0.00066667    F
gradient max                        0.00707647
gradient rms                        0.00149653
cart. step max                      0.19302351     0.01000000    F
cart. step rms                      0.05841163     0.00666667    F
 
 
--------
Geometry
--------
Formula: C22H28N2OS
Atoms
  Index Symbol   x (angstrom)   y (angstrom)   z (angstrom)
      1      C     0.11793033    -1.95284442    -1.02381955
      2      C     0.60505529    -2.65984406     0.02549673
      3      C     1.02233214    -4.04987253    -0.10529954
      4      O     1.47805211    -4.73599356     0.80741249
      5      C    -1.19311754     2.11505141    -1.19899933
      6      H     0.03514948    -2.47326651    -1.98027914
      7      H     0.67906571    -2.23118482     1.01970638
      8      H     0.90213004    -4.48720851    -1.12289525
      9      C    -1.37490089     1.25821613    -2.28448072
     10      C    -0.93044344    -0.05819893    -2.21244174
     11      H     0.34759798    -0.00943378     0.94988890
     12      H    -0.41936721     2.30880821     0.80529892
     13      H    -1.53480435     3.14642880    -1.25305068
     14      H    -1.85770031     1.61941608    -3.18961720
     15      H    -1.07159953    -0.71899932    -3.06494777
     16      C    -0.31155656    -0.55735606    -1.04766359
     17      C    -0.12927415     0.32697150     0.03586461
     18      C    -0.56645869     1.64359389    -0.04233744
     19      N     2.73737025    -2.90122377     3.29133621
     20      C     1.80563829    -2.57006607     4.23334714
     21      S     2.11440531    -1.53826694     5.51951201
     22      N     0.57772260    -3.15050367     3.99694106
     23      C     4.10590282    -2.41126392     3.22976337
     24      H     2.45860314    -3.54089897     2.55505735
     25      C    -0.49881409    -3.26870842     4.97402798
     26      H     0.57779210    -3.85635802     3.27307247
     27      H     4.28186681    -1.86462955     4.15955197
     28      H    -0.58710667    -4.32437951     5.27318191
     29      H     4.78492108    -3.27317531     3.21295350
     30      H     3.34120011     0.18681156     2.81238062
     31      H    -0.18241544    -2.70590487     5.85364556
     32      C     4.39142241    -1.52366454     2.02621216
     33      C     5.14002629    -1.99946175     0.94392911
     34      C     5.42514522    -1.18030294    -0.14981190
     35      C     4.96346352     0.13404302    -0.17754537
     36      C     4.20494046     0.61737283     0.89036347
     37      C     3.92148654    -0.20199465     1.98001469
     38      H     5.51398261    -3.02203494     0.95663944
     39      H     6.01316394    -1.56870665    -0.97894583
     40      H     5.19052391     0.77692102    -1.02536538
     41      H     3.83957029     1.64245283     0.87647865
     42      C    -1.89729520    -2.77233626     4.50489370
     43      C    -2.88263321    -3.05331172     5.65877996
     44      H    -3.89409691    -2.73123838     5.39063471
     45      H    -2.92730173    -4.12244199     5.89480487
     46      H    -2.59268040    -2.51995657     6.57023728
     47      C    -1.86657398    -1.25956173     4.21396996
     48      H    -1.55486844    -0.69240751     5.09581013
     49      H    -2.85837170    -0.90426578     3.91380684
     50      H    -1.16844632    -1.02501370     3.40696826
     51      C    -2.36662452    -3.54107791     3.25162542
     52      H    -2.41773045    -4.62006787     3.43663332
     53      H    -3.36615132    -3.20454707     2.95481092
     54      H    -1.70548213    -3.37570820     2.39627462
 
Total System Charge             0.00000
Bonding info available!
 
 *** GO1_GOStep54 ***

 Energy gradients wrt nuclear displacements
 ==========================================

     Atom      Cartesian (a.u./angstrom)
                 X         Y         Z
 ----------------------------------------
     1 C    -0.002470 -0.001419  0.000151
     2 C     0.004052  0.001472 -0.000845
     3 C     0.001983 -0.001599  0.003217
     4 O    -0.001493  0.001550 -0.004384
     5 C     0.000326  0.000208  0.000401
     6 H    -0.000139  0.000471 -0.000106
     7 H    -0.002672 -0.001926  0.001533
     8 H    -0.000655  0.000598  0.000318
     9 C    -0.000956 -0.000288  0.000646
    10 C     0.000372  0.000701 -0.000528
    11 H    -0.001828  0.000738  0.000869
    12 H    -0.000040 -0.000022  0.000283
    13 H     0.000008  0.000347  0.000122
    14 H    -0.000021  0.000497  0.000135
    15 H    -0.000047  0.000283  0.000092
    16 C    -0.000973  0.001569  0.000808
    17 C     0.004293 -0.001442 -0.000705
    18 C     0.000008  0.000735  0.000107
    19 N     0.001256  0.001574  0.001553
    20 C     0.003356  0.000615 -0.001419
    21 S    -0.000052 -0.001507 -0.002141
    22 N    -0.003337 -0.000671 -0.001197
    23 C    -0.003063 -0.001737  0.001921
    24 H    -0.000686 -0.000771 -0.000685
    25 C     0.000636  0.000955 -0.001329
    26 H     0.001700  0.001455  0.000813
    27 H     0.000549 -0.000192 -0.000098
    28 H    -0.000603 -0.000927  0.000822
    29 H     0.000292 -0.000115 -0.000001
    30 H     0.000127 -0.000249 -0.000363
    31 H     0.000058 -0.000900 -0.000105
    32 C     0.000928 -0.000784 -0.000132
    33 C    -0.000888  0.000489 -0.000754
    34 C    -0.000431 -0.000015  0.000277
    35 C     0.001382  0.000460  0.000674
    36 C    -0.000226 -0.000661  0.000606
    37 C    -0.000944  0.001182 -0.001072
    38 H    -0.000016 -0.000159 -0.000166
    39 H    -0.000041  0.000272 -0.000248
    40 H     0.000230  0.000003 -0.000118
    41 H    -0.000191  0.000018 -0.000118
    42 C    -0.000183  0.000503  0.000195
    43 C    -0.001062 -0.000048  0.000211
    44 H     0.000135 -0.000206 -0.000053
    45 H     0.000220 -0.000232 -0.000165
    46 H     0.000245 -0.000001 -0.000088
    47 C     0.000321  0.001174  0.000300
    48 H     0.000136 -0.000188  0.000080
    49 H     0.000015 -0.000087  0.000248
    50 H    -0.000447 -0.000570  0.000463
    51 C     0.000506 -0.002403 -0.000459
    52 H     0.000290  0.000012 -0.000003
    53 H     0.000178  0.001580  0.000456
    54 H    -0.000140 -0.000343 -0.000021
 ----------------------------------------
 Mulliken charges used for AMS results%charges...

 dE(predicted):    -0.18444E-03, dE(actual):    -0.48716E-03, Trust radius:    1.000000, all in a.u.
 
----------------------------------------------------------------------
Geometry Convergence after Step  54       (Hartree/Angstrom,Angstrom)
----------------------------------------------------------------------
current energy                              -11.60449114 Hartree
energy change                      -0.00048716     0.00054000    T
constrained gradient max            0.00427597     0.00100000    F
constrained gradient rms            0.00113073     0.00066667    F
gradient max                        0.00427597
gradient rms                        0.00113073
cart. step max                      0.05075430     0.01000000    F
cart. step rms                      0.01446142     0.00666667    F
 
 
--------
Geometry
--------
Formula: C22H28N2OS
Atoms
  Index Symbol   x (angstrom)   y (angstrom)   z (angstrom)
      1      C     0.11050974    -1.95621232    -1.02585245
      2      C     0.59103582    -2.66816125     0.02293068
      3      C     1.01126506    -4.05821967    -0.10641158
      4      O     1.46568433    -4.74226082     0.80994337
      5      C    -1.18139294     2.11821258    -1.18497830
      6      H     0.02809239    -2.47427542    -1.98359394
      7      H     0.67360102    -2.23676672     1.01485358
      8      H     0.90059426    -4.49980723    -1.12374078
      9      C    -1.34482574     1.27373829    -2.28289170
     10      C    -0.91208240    -0.04710498    -2.21414602
     11      H     0.31685252    -0.03304563     0.96807142
     12      H    -0.44355188     2.28861013     0.83447165
     13      H    -1.51552949     3.15219810    -1.23449902
     14      H    -1.80694602     1.64660875    -3.19408438
     15      H    -1.04152059    -0.69842464    -3.07573096
     16      C    -0.31606114    -0.56047268    -1.04439984
     17      C    -0.15004073     0.31281645     0.05141850
     18      C    -0.57958641     1.63165351    -0.02146326
     19      N     2.73706539    -2.88283493     3.29696151
     20      C     1.80068551    -2.55701299     4.23694316
     21      S     2.10000005    -1.51210949     5.51638599
     22      N     0.57911372    -3.14788163     4.00397966
     23      C     4.10479839    -2.38452647     3.23432521
     24      H     2.46565983    -3.53052779     2.56652826
     25      C    -0.49760686    -3.27274850     4.98060323
     26      H     0.58096156    -3.86241166     3.28706319
     27      H     4.27156225    -1.82656546     4.15917283
     28      H    -0.58482157    -4.32997947     5.27194806
     29      H     4.78714260    -3.24410632     3.23222098
     30      H     3.35469111     0.21134290     2.79634235
     31      H    -0.18410886    -2.71231084     5.86274035
     32      C     4.39329875    -1.51194775     2.02307932
     33      C     5.13817045    -2.00257366     0.94468932
     34      C     5.41953097    -1.19757311    -0.16087204
     35      C     4.95729282     0.11631362    -0.20356104
     36      C     4.20814285     0.61569393     0.86375328
     37      C     3.92911771    -0.18961922     1.96547414
     38      H     5.51036750    -3.02555408     0.96898604
     39      H     6.00345816    -1.59837425    -0.98706031
     40      H     5.17905528     0.74889685    -1.06026775
     41      H     3.84675233     1.64189900     0.84071351
     42      C    -1.89690309    -2.77643487     4.50700821
     43      C    -2.88805458    -3.06802299     5.65289621
     44      H    -3.89767993    -2.74052780     5.38375579
     45      H    -2.93724601    -4.13955184     5.87673387
     46      H    -2.60192399    -2.54593513     6.57201469
     47      C    -1.86659984    -1.26222509     4.22627807
     48      H    -1.57191277    -0.69953570     5.11674195
     49      H    -2.85460604    -0.90836132     3.91210290
     50      H    -1.15571619    -1.01869059     3.43270000
     51      C    -2.35844665    -3.53639133     3.24438137
     52      H    -2.39400258    -4.61821011     3.41597160
     53      H    -3.36307822    -3.21212633     2.95172716
     54      H    -1.69961227    -3.35015640     2.39146826
 
Total System Charge             0.00000
Bonding info available!
 
 *** GO1_GOStep55 ***
