

 Parallel Execution: Process Information
 ==============================================================================
 Rank   Node Name                              NodeID   MyNodeRank  NodeMaster
    0   DESKTOP-1M8FOJT                           0          0          0
    1   DESKTOP-1M8FOJT                           0          1         -1
    2   DESKTOP-1M8FOJT                           0          2         -1
    3   DESKTOP-1M8FOJT                           0          3         -1
 ==============================================================================


May use up to 4096MB of RAM as shared memory on node 0

 *******************************************************************************
 *                                                                             *
 *  --------------------------------                                           *
 *   Amsterdam Modeling Suite (AMS)              2022.101                      *
 *  --------------------------------                                           *
 *                                               r100871 2022-01-28            *
 *                                                                             *
 *                                                                             *
 *                              =================                              *
 *                              |               |                              *
 *                              |     A M S     |                              *
 *                              |               |                              *
 *                              =================                              *
 *                                                                             *
 *                                                                             *
 *   Online information and documentation:  https://www.scm.com/support/       *
 *   E-mail:  support@scm.com   info@scm.com                                   *
 *                                                                             *
 *   Scientific publications using AMS results must be properly referenced     *
 *   See the User Manuals (or the web site) for recommended citations          *
 *   The terms and conditions of the End User License Agreement apply to       *
 *   the use of AMS, https://www.scm.com/license-terms/                        *
 *                                                                             *
 *********************  x86_64_windows_intel / intelmpi  ***********************
 
 Licensed to: Mr. Yuman Hordijk / SCM / Amsterdam / Netherlands 2022-01-24 11:07:43
 SCM User ID: u24430
  
 AMS 2022.101  RunTime: Jan31-2022 14:23:12  ShM Nodes: 1  Procs: 4

 AMS jobname: ams
 AMS jobid  : 1903664422

 Start   directory: D:/Users/Yuman/Desktop/MasterProject/manual_calculations/urea/tmp..3248.0.noindex/
 Results directory: D:/Users/Yuman/Desktop/MasterProject/manual_calculations/urea/urea_complex_cheap.results/
 Scratch directory: Z:/SCMTMP/amstmp_ams_kid0.1903664422/


 Communication costs MPI_COMM_WORLD:      2.652 usec per message,   0.0077 usec per 8-byte item
 Communication costs for intra-node:      1.574 usec per message,   0.0079 usec per 8-byte item

 RNG seed: 808469314 1074972380 411247990 804678144 874495052 -637016091 -181205280 1269764202



                      ************************************************************************
                      *  ADF 2022.101  RunTime: Jan31-2022 14:23:13  ShM Nodes: 1  Procs: 4  *
                      ************************************************************************
  
       ***************************
       *  GEOMETRY OPTIMIZATION  *
       ***************************

Optimization Method                    Quasi Newton
Optimization Coordinates               Delocalized Coordinates
Optimize lattice                       F
 
 ------------------------------------------------------
 Convergence criteria (Hartree,Angstrom)
 ------------------------------------------------------
 Maximum gradient               0.001000000000
 Maximum rms gradient           0.000666666667
 Maximum step allowed           0.010000000000
 Maximum rms step allowed       0.006666666667
 Maximum energy change allowe   0.000540000000
 Maximum stress energy allowe   0.000500000000
 
Initial model Hessian                  Automatic Hessian
 
------------------------------------
Quasi-Newton Optimizer Parameters
------------------------------------
Hessian Update Method                  BFGS
Maximum number of steps                  324
First GDIIS cycle                          0
Maximum GDIIS vectors                      0
Trust radius (bohr)                        0.200000
Trust radius varies                        T
Constraints converged at all steps         T
Use projector                              T
 
 Rigid motions settings for: old optimizer
 Atomic rotations (x,y,z):     T T T
 Atomic translations (x,y,z):  T T T
 Tolerance:                   1.000000000000000E-006
 
--------
Geometry
--------
Formula: C22H28N2OS
Atoms
  Index Symbol   x (angstrom)   y (angstrom)   z (angstrom)
      1      C     0.11793033    -1.95284442    -1.02381955
      2      C     0.60505529    -2.65984406     0.02549673
      3      C     1.02233214    -4.04987253    -0.10529954
      4      O     1.47805211    -4.73599356     0.80741249
      5      C    -1.19311754     2.11505141    -1.19899933
      6      H     0.03514948    -2.47326651    -1.98027914
      7      H     0.67906571    -2.23118482     1.01970638
      8      H     0.90213004    -4.48720851    -1.12289525
      9      C    -1.37490089     1.25821613    -2.28448072
     10      C    -0.93044344    -0.05819893    -2.21244174
     11      H     0.34759798    -0.00943378     0.94988890
     12      H    -0.41936721     2.30880821     0.80529892
     13      H    -1.53480435     3.14642880    -1.25305068
     14      H    -1.85770031     1.61941608    -3.18961720
     15      H    -1.07159953    -0.71899932    -3.06494777
     16      C    -0.31155656    -0.55735606    -1.04766359
     17      C    -0.12927415     0.32697150     0.03586461
     18      C    -0.56645869     1.64359389    -0.04233744
     19      N     2.73737025    -2.90122377     3.29133621
     20      C     1.80563829    -2.57006607     4.23334714
     21      S     2.11440531    -1.53826694     5.51951201
     22      N     0.57772260    -3.15050367     3.99694106
     23      C     4.10590282    -2.41126392     3.22976337
     24      H     2.45860314    -3.54089897     2.55505735
     25      C    -0.49881409    -3.26870842     4.97402798
     26      H     0.57779210    -3.85635802     3.27307247
     27      H     4.28186681    -1.86462955     4.15955197
     28      H    -0.58710667    -4.32437950     5.27318191
     29      H     4.78492107    -3.27317531     3.21295350
     30      H     3.34120011     0.18681156     2.81238062
     31      H    -0.18241544    -2.70590487     5.85364556
     32      C     4.39142241    -1.52366454     2.02621216
     33      C     5.14002629    -1.99946175     0.94392911
     34      C     5.42514521    -1.18030294    -0.14981190
     35      C     4.96346352     0.13404302    -0.17754537
     36      C     4.20494046     0.61737283     0.89036347
     37      C     3.92148654    -0.20199465     1.98001469
     38      H     5.51398261    -3.02203494     0.95663944
     39      H     6.01316394    -1.56870665    -0.97894583
     40      H     5.19052391     0.77692102    -1.02536538
     41      H     3.83957029     1.64245283     0.87647865
     42      C    -1.89729520    -2.77233626     4.50489370
     43      C    -2.88263321    -3.05331171     5.65877996
     44      H    -3.89409691    -2.73123838     5.39063471
     45      H    -2.92730173    -4.12244199     5.89480487
     46      H    -2.59268040    -2.51995657     6.57023728
     47      C    -1.86657398    -1.25956173     4.21396996
     48      H    -1.55486844    -0.69240751     5.09581013
     49      H    -2.85837170    -0.90426578     3.91380683
     50      H    -1.16844632    -1.02501370     3.40696826
     51      C    -2.36662452    -3.54107791     3.25162542
     52      H    -2.41773045    -4.62006787     3.43663332
     53      H    -3.36615132    -3.20454707     2.95481092
     54      H    -1.70548213    -3.37570820     2.39627462
 
Total System Charge             0.00000
Bonding info available!
 
 
----------------
ADF Engine Input
----------------
 
 Basis
 Type DZP
 Core None
 End
 XC
 GGA OLYP
 End
 

 Title: *** (NO TITLE) ***

 Using automatic Hessian for delocalized coordinates.
 *** GO1_GOStep1 ***

 Energy gradients wrt nuclear displacements
 ==========================================

     Atom      Cartesian (a.u./angstrom)
                 X         Y         Z
 ----------------------------------------
     1 C    -0.003373  0.002050 -0.001195
     2 C     0.005044 -0.001745 -0.001335
     3 C     0.002589 -0.000810  0.006852
     4 O    -0.000302 -0.000393 -0.004584
     5 C    -0.000536  0.001973  0.000454
     6 H    -0.000428 -0.000521 -0.001044
     7 H    -0.003590 -0.001602  0.001549
     8 H    -0.000819 -0.000549 -0.002175
     9 C    -0.001922 -0.000003 -0.001160
    10 C     0.000036  0.001323 -0.001602
    11 H    -0.001643 -0.000088  0.003153
    12 H     0.000213  0.000725  0.001216
    13 H    -0.000492  0.001588  0.000205
    14 H    -0.000670  0.000963 -0.001023
    15 H     0.000008 -0.000777 -0.000833
    16 C    -0.000124 -0.001145 -0.000173
    17 C     0.004291 -0.000077 -0.000572
    18 C     0.000219  0.002027  0.002135
    19 N     0.000199 -0.000442  0.002433
    20 C     0.004049 -0.001363 -0.004817
    21 S     0.000048 -0.001660 -0.001948
    22 N    -0.001937 -0.004725  0.000517
    23 C    -0.002530 -0.001911  0.003132
    24 H    -0.000451  0.000646  0.002786
    25 C     0.002944  0.001057 -0.002067
    26 H     0.001509  0.004642  0.003186
    27 H    -0.000011 -0.000913 -0.000311
    28 H    -0.000961 -0.000616  0.001269
    29 H     0.000764 -0.000229 -0.000321
    30 H    -0.000173  0.000888 -0.000016
    31 H     0.000095 -0.001573 -0.000544
    32 C     0.002251 -0.001184  0.001034
    33 C    -0.000139  0.000310 -0.001468
    34 C     0.000425 -0.001045 -0.000803
    35 C     0.001816  0.001707 -0.001073
    36 C    -0.001051  0.000689  0.000508
    37 C    -0.001143  0.001964 -0.000575
    38 H     0.000614 -0.001555 -0.000006
    39 H     0.000829 -0.000460 -0.001335
    40 H     0.000633  0.000894 -0.001209
    41 H    -0.000708  0.001638  0.000161
    42 C    -0.000284 -0.000157  0.000892
    43 C    -0.002137 -0.000141  0.000689
    44 H    -0.000048 -0.000496  0.000802
    45 H    -0.000091  0.000171  0.000372
    46 H    -0.000449 -0.000501  0.000282
    47 C    -0.000273  0.002087  0.000518
    48 H    -0.000235  0.000586 -0.000446
    49 H     0.000204  0.000803  0.000236
    50 H    -0.000974  0.000686  0.000358
    51 C    -0.001298 -0.002632 -0.000930
    52 H     0.000210  0.000083 -0.001011
    53 H     0.000350  0.000964 -0.000023
    54 H    -0.000548 -0.001153 -0.000140
 ----------------------------------------
 Mulliken charges used for AMS results%charges...
 
----------------------------------------------------------------------
Geometry Convergence after Step   1       (Hartree/Angstrom,Angstrom)
----------------------------------------------------------------------
current energy                              -11.45901972 Hartree
energy change                     -11.45901972     0.00054000    F
constrained gradient max            0.00702561     0.00100000    F
constrained gradient rms            0.00164779     0.00066667    F
gradient max                        0.00702561
gradient rms                        0.00164779
cart. step max                      0.21087490     0.01000000    F
cart. step rms                      0.03976356     0.00666667    F
 
 
--------
Geometry
--------
Formula: C22H28N2OS
Atoms
  Index Symbol   x (angstrom)   y (angstrom)   z (angstrom)
      1      C     0.14489840    -1.96361739    -1.00903592
      2      C     0.62469589    -2.66881157     0.04245679
      3      C     1.03432067    -4.06072539    -0.08645359
      4      O     1.48775889    -4.74649969     0.82852514
      5      C    -1.13437798     2.11019548    -1.18422012
      6      H     0.05716455    -2.48610085    -1.96342883
      7      H     0.70872910    -2.23452265     1.03321352
      8      H     0.91552772    -4.49844453    -1.10322358
      9      C    -1.33332407     1.25287666    -2.26502843
     10      C    -0.90476248    -0.06790718    -2.19221917
     11      H     0.42352610    -0.01741397     0.94612104
     12      H    -0.33709817     2.30370580     0.80954916
     13      H    -1.46367911     3.14503457    -1.23920701
     14      H    -1.82013292     1.61623153    -3.16651504
     15      H    -1.06043126    -0.72918910    -3.04120125
     16      C    -0.27789902    -0.56739573    -1.03331351
     17      C    -0.07972573     0.31639115     0.04614928
     18      C    -0.50360806     1.63609436    -0.03210109
     19      N     2.74601678    -2.91115646     3.31299282
     20      C     1.81584177    -2.57926774     4.25785434
     21      S     2.12198785    -1.54573467     5.54422373
     22      N     0.58870028    -3.15648543     4.01463152
     23      C     4.11089919    -2.41452392     3.24082088
     24      H     2.46643379    -3.55048291     2.57580955
     25      C    -0.49419303    -3.26980811     4.98366534
     26      H     0.58768145    -3.86461775     3.29094143
     27      H     4.29558999    -1.86720229     4.16871714
     28      H    -0.59126268    -4.32521457     5.27992646
     29      H     4.79560516    -3.27133756     3.21068103
     30      H     3.30961061     0.16741204     2.86267542
     31      H    -0.18644819    -2.70595051     5.86612803
     32      C     4.35721600    -1.52224575     2.03485584
     33      C     5.07439800    -1.98719321     0.92825202
     34      C     5.29652587    -1.16709221    -0.17834937
     35      C     4.80459046     0.13564817    -0.19188141
     36      C     4.08884809     0.61102337     0.90741104
     37      C     3.86559476    -0.20972617     2.00882634
     38      H     5.46250243    -3.00396271     0.92615588
     39      H     5.85444349    -1.54739298    -1.03099973
     40      H     4.97964900     0.77823909    -1.05147472
     41      H     3.70473685     1.62866397     0.90585446
     42      C    -1.87693923    -2.76339688     4.48579712
     43      C    -2.88763154    -3.03339113     5.61855404
     44      H    -3.88927909    -2.69970284     5.32839761
     45      H    -2.94865473    -4.10217525     5.85286449
     46      H    -2.60978762    -2.50250408     6.53523329
     47      C    -1.81975336    -1.25347537     4.19194829
     48      H    -1.52167584    -0.68934450     5.08048460
     49      H    -2.79946005    -0.88723955     3.86645752
     50      H    -1.09793168    -1.03213731     3.40191678
     51      C    -2.32350961    -3.52652682     3.22218999
     52      H    -2.38474091    -4.60529594     3.40595724
     53      H    -3.31473357    -3.18537231     2.90356491
     54      H    -1.64180762    -3.36252557     2.38267492
 
Total System Charge             0.00000
Bonding info available!
 
 *** GO1_GOStep2 ***

 Energy gradients wrt nuclear displacements
 ==========================================

     Atom      Cartesian (a.u./angstrom)
                 X         Y         Z
 ----------------------------------------
     1 C    -0.001476  0.001167  0.000015
     2 C     0.002686 -0.000040 -0.002090
     3 C     0.000772 -0.000505  0.004236
     4 O     0.000340 -0.000581 -0.003416
     5 C    -0.000084  0.000990  0.000407
     6 H    -0.000372 -0.000236 -0.000637
     7 H    -0.002905 -0.000982  0.001419
     8 H    -0.000333 -0.000130 -0.001701
     9 C    -0.000520  0.000104 -0.000448
    10 C    -0.000324  0.001083 -0.000726
    11 H    -0.000183  0.000130  0.002143
    12 H     0.000428  0.000465  0.000738
    13 H    -0.000272  0.000997  0.000306
    14 H    -0.000440  0.000688 -0.000416
    15 H     0.000002 -0.000301 -0.000426
    16 C     0.000157 -0.000388  0.000038
    17 C     0.000883 -0.000666 -0.000194
    18 C    -0.000100  0.001096  0.001184
    19 N     0.000201  0.000870 -0.000432
    20 C     0.003299 -0.001086 -0.001700
    21 S    -0.000146 -0.000358 -0.000995
    22 N    -0.002757 -0.002385 -0.000128
    23 C    -0.001574 -0.002385  0.002804
    24 H    -0.000220 -0.000040  0.001704
    25 C     0.002841  0.000601  0.000040
    26 H     0.000653  0.002668  0.001589
    27 H     0.000169 -0.000306 -0.000273
    28 H    -0.000642 -0.000519  0.000643
    29 H     0.000542 -0.000244 -0.000323
    30 H    -0.000335  0.000560 -0.000094
    31 H     0.000082 -0.001067 -0.000126
    32 C     0.000643 -0.000323 -0.000198
    33 C     0.000636  0.000674 -0.000374
    34 C     0.000531 -0.000552  0.000018
    35 C     0.000125  0.000639 -0.000731
    36 C    -0.000060  0.000273  0.000393
    37 C    -0.000678  0.000556 -0.000394
    38 H     0.000008 -0.001026 -0.000277
    39 H     0.000278 -0.000347 -0.000875
    40 H     0.000415  0.000485 -0.000635
    41 H    -0.000538  0.000855  0.000237
    42 C    -0.000136  0.000034 -0.000309
    43 C    -0.001047 -0.000514  0.001148
    44 H     0.000097 -0.000363  0.000310
    45 H    -0.000017 -0.000025  0.000267
    46 H    -0.000276 -0.000383  0.000193
    47 C     0.000182  0.001138  0.000054
    48 H    -0.000035  0.000159 -0.000179
    49 H     0.000121  0.000343  0.000239
    50 H    -0.000363  0.000427 -0.000089
    51 C    -0.000967 -0.001375 -0.000899
    52 H     0.000182  0.000165 -0.000530
    53 H     0.000257  0.000678 -0.000099
    54 H     0.000270 -0.000715 -0.000413
 ----------------------------------------
 Mulliken charges used for AMS results%charges...

 dE(predicted):    -0.70600E-03, dE(actual):    -0.18433E-03, Trust radius:    0.200000, all in a.u.
 
----------------------------------------------------------------------
Geometry Convergence after Step   2       (Hartree/Angstrom,Angstrom)
----------------------------------------------------------------------
current energy                              -11.45920405 Hartree
energy change                      -0.00018433     0.00054000    T
constrained gradient max            0.00441121     0.00100000    F
constrained gradient rms            0.00100430     0.00066667    F
gradient max                        0.00441121
gradient rms                        0.00100430
cart. step max                      0.21166042     0.01000000    F
cart. step rms                      0.04813056     0.00666667    F
 
 
--------
Geometry
--------
Formula: C22H28N2OS
Atoms
  Index Symbol   x (angstrom)   y (angstrom)   z (angstrom)
      1      C     0.18047232    -1.97933211    -1.01106463
      2      C     0.64848833    -2.67922799     0.04714434
      3      C     1.03937459    -4.07576647    -0.07814024
      4      O     1.48455533    -4.76308820     0.84053794
      5      C    -1.05809626     2.10031377    -1.22694599
      6      H     0.07918141    -2.51250254    -1.95738047
      7      H     0.74960980    -2.23596054     1.03165695
      8      H     0.91805105    -4.51438234    -1.09274086
      9      C    -1.29355364     1.22711781    -2.28576906
     10      C    -0.87742169    -0.09594102    -2.20091104
     11      H     0.55044515    -0.00188301     0.88677915
     12      H    -0.20512503     2.32138881     0.73881261
     13      H    -1.37853425     3.13665786    -1.29128889
     14      H    -1.80165441     1.57905801    -3.17909358
     15      H    -1.06643003    -0.77035396    -3.03168601
     16      C    -0.22467354    -0.57968277    -1.05158019
     17      C     0.01355597     0.32039406     0.00383863
     18      C    -0.39983055     1.64110661    -0.08575475
     19      N     2.75149976    -2.93408793     3.32539477
     20      C     1.82394097    -2.59875154     4.27375383
     21      S     2.13693841    -1.57922390     5.57053290
     22      N     0.59549173    -3.16708500     4.02302762
     23      C     4.11507745    -2.43635568     3.23895903
     24      H     2.46659006    -3.57039308     2.58662412
     25      C    -0.48991935    -3.27783388     4.98905996
     26      H     0.58941357    -3.87745354     3.29881793
     27      H     4.31864157    -1.90251909     4.17091331
     28      H    -0.59137753    -4.33399541     5.27920054
     29      H     4.79860909    -3.29215663     3.17969092
     30      H     3.32869072     0.14486775     2.97517110
     31      H    -0.18193268    -2.71650892     5.87358752
     32      C     4.31810914    -1.52212015     2.04514338
     33      C     4.97422742    -1.96273547     0.89313156
     34      C     5.13346239    -1.11716172    -0.20434350
     35      C     4.64357078     0.18459841    -0.15930277
     36      C     3.99561392     0.63626285     0.98927092
     37      C     3.83238466    -0.20982345     2.08059757
     38      H     5.36222092    -2.97763393     0.84728404
     39      H     5.64369012    -1.47574996    -1.09443348
     40      H     4.76798859     0.84621866    -1.01231855
     41      H     3.61906201     1.65479144     1.03393507
     42      C    -1.86416159    -2.75933214     4.48716281
     43      C    -2.88158248    -3.02219822     5.61256821
     44      H    -3.87706135    -2.67264601     5.31933425
     45      H    -2.95730945    -4.09176811     5.83921589
     46      H    -2.59875137    -2.49966456     6.53255183
     47      C    -1.78630045    -1.25124448     4.20011699
     48      H    -1.48857304    -0.69607416     5.09452437
     49      H    -2.75851953    -0.87266903     3.86658040
     50      H    -1.05282279    -1.03863593     3.41838279
     51      C    -2.31282750    -3.51112041     3.21974388
     52      H    -2.37771136    -4.59084528     3.39797439
     53      H    -3.30376998    -3.16722112     2.90317739
     54      H    -1.63037178    -3.34124074     2.38238132
 
Total System Charge             0.00000
Bonding info available!
 
 *** GO1_GOStep3 ***

 Energy gradients wrt nuclear displacements
 ==========================================

     Atom      Cartesian (a.u./angstrom)
                 X         Y         Z
 ----------------------------------------
     1 C     0.000356  0.000151  0.001100
     2 C     0.000433  0.000825 -0.001179
     3 C    -0.000707  0.000156  0.000106
     4 O     0.000532 -0.000360 -0.002252
     5 C     0.000142 -0.000252  0.000466
     6 H    -0.000432  0.000267  0.000119
     7 H    -0.002025 -0.000851  0.000677
     8 H     0.000174  0.000532 -0.000678
     9 C     0.000479  0.000119  0.000743
    10 C     0.000378  0.000801  0.000344
    11 H    -0.000307  0.000531  0.000000
    12 H     0.000010 -0.000011  0.000323
    13 H     0.000071  0.000169  0.000402
    14 H    -0.000056  0.000367  0.000370
    15 H    -0.000119  0.000302  0.000222
    16 C     0.000078  0.000467  0.000454
    17 C    -0.000564 -0.000045 -0.000460
    18 C    -0.000025 -0.000050 -0.000292
    19 N     0.000811  0.002238 -0.002724
    20 C     0.000586  0.000686  0.000567
    21 S    -0.000385 -0.000022  0.000564
    22 N    -0.000657 -0.000147  0.000412
    23 C     0.000003 -0.002122  0.001476
    24 H     0.000000 -0.000970  0.000692
    25 C     0.001589  0.000569 -0.000061
    26 H    -0.000395 -0.000113 -0.000104
    27 H     0.000329  0.000459 -0.000279
    28 H    -0.000021 -0.000217 -0.000160
    29 H     0.000144 -0.000258  0.000021
    30 H     0.000249  0.000040 -0.000059
    31 H     0.000121 -0.000220 -0.000020
    32 C    -0.000979  0.000460 -0.001377
    33 C     0.000566  0.000571  0.000167
    34 C    -0.000388  0.000045  0.000261
    35 C    -0.000178 -0.000202  0.000482
    36 C     0.000253 -0.000552 -0.000058
    37 C    -0.000082 -0.001540 -0.000529
    38 H    -0.000126  0.000014 -0.000172
    39 H    -0.000151  0.000056  0.000028
    40 H    -0.000029  0.000078  0.000167
    41 H    -0.000087 -0.000194  0.000141
    42 C     0.000135  0.000008 -0.000415
    43 C    -0.000181 -0.000453  0.000334
    44 H     0.000037 -0.000205 -0.000100
    45 H     0.000179 -0.000242 -0.000068
    46 H     0.000196 -0.000114 -0.000033
    47 C     0.000304 -0.000083  0.000274
    48 H     0.000246 -0.000296  0.000215
    49 H    -0.000050 -0.000182  0.000244
    50 H    -0.000067 -0.000256  0.000072
    51 C    -0.000614 -0.000157 -0.000344
    52 H    -0.000138  0.000069  0.000053
    53 H     0.000148  0.000251 -0.000146
    54 H     0.000211 -0.000119  0.000014
 ----------------------------------------
 Mulliken charges used for AMS results%charges...

 dE(predicted):    -0.38604E-03, dE(actual):    -0.36009E-05, Trust radius:    0.047063, all in a.u.
 
----------------------------------------------------------------------
Geometry Convergence after Step   3       (Hartree/Angstrom,Angstrom)
----------------------------------------------------------------------
current energy                              -11.45920765 Hartree
energy change                      -0.00000360     0.00054000    T
constrained gradient max            0.00257382     0.00100000    F
constrained gradient rms            0.00057549     0.00066667    T
gradient max                        0.00257382
gradient rms                        0.00057549
cart. step max                      0.04019285     0.01000000    F
cart. step rms                      0.01054025     0.00666667    F
 
 
--------
Geometry
--------
Formula: C22H28N2OS
Atoms
  Index Symbol   x (angstrom)   y (angstrom)   z (angstrom)
      1      C     0.17738492    -1.98900222    -1.01405489
      2      C     0.64596184    -2.68684815     0.04567714
      3      C     1.03239624    -4.08475761    -0.07701742
      4      O     1.47675382    -4.77131296     0.84272587
      5      C    -1.06204296     2.09017033    -1.22772009
      6      H     0.07210640    -2.52459825    -1.95851556
      7      H     0.75168188    -2.24055957     1.02821578
      8      H     0.90842552    -4.52472982    -1.09036864
      9      C    -1.30977205     1.21470017    -2.28198336
     10      C    -0.89262995    -0.10830819    -2.19903168
     11      H     0.57159131    -0.00853289     0.87138577
     12      H    -0.18610181     2.31593288     0.72741732
     13      H    -1.38291575     3.12640471    -1.29079230
     14      H    -1.82785142     1.56478409    -3.17020891
     15      H    -1.09128577    -0.78431591    -3.02614616
     16      C    -0.22702552    -0.58926983    -1.05582888
     17      C     0.02324809     0.31280636    -0.00486142
     18      C    -0.39079305     1.63348129    -0.09285624
     19      N     2.75044327    -2.94191927     3.32321185
     20      C     1.82488814    -2.60472558     4.27264877
     21      S     2.14399026    -1.58439456     5.56715193
     22      N     0.59493787    -3.16982460     4.02308550
     23      C     4.11433738    -2.44403555     3.23323042
     24      H     2.46268840    -3.57797590     2.58536298
     25      C    -0.49182388    -3.27706104     4.98857051
     26      H     0.58663649    -3.88115311     3.29966683
     27      H     4.32140852    -1.91615057     4.16768011
     28      H    -0.59639019    -4.33269614     5.27923488
     29      H     4.79510102    -3.30147232     3.16806288
     30      H     3.34930903     0.14394484     3.00007118
     31      H    -0.18339792    -2.71563050     5.87293489
     32      C     4.31910165    -1.52128117     2.04663265
     33      C     4.96549948    -1.95529654     0.88650560
     34      C     5.12710732    -1.09878987    -0.20240081
     35      C     4.64946095     0.20689742    -0.14055539
     36      C     4.01159529     0.65214274     1.01626514
     37      C     3.84542383    -0.20470428     2.09889239
     38      H     5.34446256    -2.97283965     0.82755191
     39      H     5.62970447    -1.45183918    -1.09897680
     40      H     4.77582962     0.87664341    -0.98684354
     41      H     3.64582812     1.67385835     1.07412792
     42      C    -1.86281941    -2.75428739     4.48356207
     43      C    -2.88327511    -3.01191466     5.60691446
     44      H    -3.87671028    -2.65853885     5.31138178
     45      H    -2.96386577    -4.08092919     5.83446407
     46      H    -2.60027401    -2.48964610     6.52698808
     47      C    -1.77947938    -1.24705970     4.19398983
     48      H    -1.48293163    -0.69112056     5.08830185
     49      H    -2.74930492    -0.86594016     3.85650233
     50      H    -1.04259650    -1.03810872     3.41435948
     51      C    -2.31011120    -3.50632344     3.21626631
     52      H    -2.37671450    -4.58589289     3.39518000
     53      H    -3.30031914    -3.16195579     2.89787621
     54      H    -1.62622599    -3.33761828     2.37989164
 
Total System Charge             0.00000
Bonding info available!
 
 *** GO1_GOStep4 ***

 Energy gradients wrt nuclear displacements
 ==========================================

     Atom      Cartesian (a.u./angstrom)
                 X         Y         Z
 ----------------------------------------
     1 C     0.000554  0.000361  0.000602
     2 C     0.000342  0.000673 -0.000251
     3 C    -0.000935 -0.000027 -0.000353
     4 O     0.000559 -0.000325 -0.002101
     5 C     0.000058 -0.000027  0.000349
     6 H    -0.000413  0.000326  0.000149
     7 H    -0.001827 -0.000817  0.000555
     8 H     0.000223  0.000775 -0.000447
     9 C     0.000296  0.000275  0.000501
    10 C     0.000267  0.000574  0.000188
    11 H    -0.000243  0.000283 -0.000084
    12 H     0.000003 -0.000041  0.000266
    13 H     0.000083  0.000107  0.000391
    14 H    -0.000028  0.000344  0.000416
    15 H    -0.000146  0.000443  0.000261
    16 C     0.000150  0.000401  0.000308
    17 C    -0.000603 -0.000201 -0.000077
    18 C     0.000000 -0.000014 -0.000115
    19 N     0.000459  0.001927 -0.001786
    20 C     0.000322  0.000071  0.000824
    21 S     0.000188  0.000051  0.000088
    22 N    -0.000425  0.000377  0.000162
    23 C    -0.000053 -0.001247  0.000626
    24 H    -0.000196 -0.000974  0.000814
    25 C     0.000780 -0.000012 -0.000015
    26 H    -0.000495 -0.000322 -0.000163
    27 H     0.000232  0.000590 -0.000465
    28 H     0.000066 -0.000225 -0.000184
    29 H    -0.000168 -0.000344  0.000239
    30 H     0.000241 -0.000058 -0.000012
    31 H     0.000035 -0.000163 -0.000024
    32 C    -0.000108  0.000047 -0.001040
    33 C     0.000648  0.000250  0.000155
    34 C    -0.000267  0.000218  0.000016
    35 C    -0.000152 -0.000204  0.000252
    36 C     0.000194 -0.000226 -0.000060
    37 C    -0.000308 -0.001260 -0.000331
    38 H    -0.000102  0.000105 -0.000153
    39 H    -0.000171  0.000120  0.000059
    40 H    -0.000076  0.000044  0.000217
    41 H    -0.000011 -0.000256  0.000052
    42 C     0.000167  0.000023 -0.000329
    43 C     0.000097 -0.000393  0.000214
    44 H     0.000058 -0.000195 -0.000103
    45 H     0.000187 -0.000232 -0.000070
    46 H     0.000176 -0.000122 -0.000034
    47 C     0.000050 -0.000234  0.000252
    48 H     0.000247 -0.000315  0.000181
    49 H    -0.000005 -0.000145  0.000236
    50 H     0.000043 -0.000257  0.000014
    51 C    -0.000183  0.000112 -0.000156
    52 H    -0.000192  0.000029  0.000078
    53 H     0.000136  0.000184 -0.000112
    54 H     0.000246 -0.000071 -0.000002
 ----------------------------------------
 Mulliken charges used for AMS results%charges...

 dE(predicted):    -0.79394E-04, dE(actual):    -0.61991E-04, Trust radius:    0.094127, all in a.u.
 
----------------------------------------------------------------------
Geometry Convergence after Step   4       (Hartree/Angstrom,Angstrom)
----------------------------------------------------------------------
current energy                              -11.45926964 Hartree
energy change                      -0.00006199     0.00054000    T
constrained gradient max            0.00207017     0.00100000    F
constrained gradient rms            0.00044047     0.00066667    T
gradient max                        0.00207017
gradient rms                        0.00044047
cart. step max                      0.08402589     0.01000000    F
cart. step rms                      0.02125831     0.00666667    F
 
 
--------
Geometry
--------
Formula: C22H28N2OS
Atoms
  Index Symbol   x (angstrom)   y (angstrom)   z (angstrom)
      1      C     0.17029693    -2.00699833    -1.02225732
      2      C     0.63999942    -2.70108723     0.04037556
      3      C     1.01868323    -4.10153695    -0.07686041
      4      O     1.46162292    -4.78647385     0.84475351
      5      C    -1.05844589     2.07505339    -1.24172504
      6      H     0.05667834    -2.54791429    -1.96275480
      7      H     0.75340807    -2.24917022     1.01931558
      8      H     0.88971859    -4.54415110    -1.08802415
      9      C    -1.33357852     1.19249246    -2.28362776
     10      C    -0.91842209    -0.13147339    -2.20050727
     11      H     0.61933267    -0.01488224     0.83375636
     12      H    -0.13470603     2.31383999     0.68993485
     13      H    -1.37719557     3.11192313    -1.30540695
     14      H    -1.87069425     1.53777676    -3.16234328
     15      H    -1.13816205    -0.81271614    -3.01792160
     16      C    -0.22897139    -0.60583943    -1.06847711
     17      C     0.04945337     0.30324679    -0.03011460
     18      C    -0.36187468     1.62498252    -0.11896838
     19      N     2.74806701    -2.95717297     3.31695168
     20      C     1.82563987    -2.61619631     4.26775027
     21      S     2.15241111    -1.59653424     5.56055287
     22      N     0.59339406    -3.17609910     4.02108083
     23      C     4.11253610    -2.45910619     3.22134620
     24      H     2.45477310    -3.59241306     2.58079315
     25      C    -0.49417814    -3.27718297     4.98769946
     26      H     0.58126720    -3.88866638     3.29905549
     27      H     4.32680361    -1.94437996     4.16127605
     28      H    -0.60280481    -4.33172318     5.28032807
     29      H     4.78841564    -3.31908788     3.14244593
     30      H     3.38999520     0.14306594     3.05158821
     31      H    -0.18247401    -2.71541390     5.87078366
     32      C     4.31841717    -1.51788448     2.04998578
     33      C     4.94342849    -1.93769737     0.87273071
     34      C     5.11013529    -1.05913896    -0.19821300
     35      C     4.65936291     0.25426384    -0.10115854
     36      C     4.04233996     0.68552899     1.07256485
     37      C     3.86997595    -0.19313766     2.13695207
     38      H     5.30219657    -2.96051175     0.78596114
     39      H     5.59602643    -1.40076777    -1.10839486
     40      H     4.79065657     0.94063608    -0.93326969
     41      H     3.69910172     1.71312336     1.15815380
     42      C    -1.86251780    -2.74882845     4.48255631
     43      C    -2.88318881    -2.99808119     5.60697324
     44      H    -3.87479385    -2.63934957     5.31189784
     45      H    -2.97021828    -4.06603119     5.83703827
     46      H    -2.59667248    -2.47574903     6.52590789
     47      C    -1.77328367    -1.24271121     4.18799740
     48      H    -1.47574215    -0.68450115     5.08056062
     49      H    -2.74117629    -0.85885881     3.84822860
     50      H    -1.03479940    -1.03836273     3.40850543
     51      C    -2.31320390    -3.50276353     3.21809867
     52      H    -2.38072850    -4.58205915     3.39889772
     53      H    -3.30411027    -3.15869169     2.90140529
     54      H    -1.63154908    -3.33618263     2.37964762
 
Total System Charge             0.00000
Bonding info available!
 
 *** GO1_GOStep5 ***

 Energy gradients wrt nuclear displacements
 ==========================================

     Atom      Cartesian (a.u./angstrom)
                 X         Y         Z
 ----------------------------------------
     1 C     0.000515  0.000803 -0.000411
     2 C     0.000377  0.000151  0.001225
     3 C    -0.000936 -0.000460 -0.000642
     4 O     0.000465 -0.000207 -0.002051
     5 C    -0.000141  0.000445  0.000077
     6 H    -0.000378  0.000310  0.000127
     7 H    -0.001554 -0.000864  0.000337
     8 H     0.000259  0.001185 -0.000181
     9 C    -0.000123  0.000530  0.000031
    10 C     0.000195  0.000111 -0.000165
    11 H    -0.000100 -0.000088 -0.000062
    12 H     0.000002  0.000001  0.000233
    13 H     0.000066  0.000131  0.000371
    14 H    -0.000029  0.000327  0.000406
    15 H    -0.000153  0.000579  0.000191
    16 C     0.000045  0.000092  0.000055
    17 C    -0.000354 -0.000101  0.000599
    18 C     0.000147  0.000191  0.000449
    19 N     0.000034  0.001188 -0.000775
    20 C     0.000013 -0.000696  0.000645
    21 S     0.000368 -0.000213 -0.000428
    22 N     0.000721  0.000946 -0.000212
    23 C     0.000143 -0.000089 -0.000565
    24 H    -0.000608 -0.000912  0.001212
    25 C    -0.000415 -0.000655 -0.000016
    26 H    -0.000396 -0.000278  0.000032
    27 H     0.000087  0.000835 -0.000794
    28 H     0.000136 -0.000166 -0.000153
    29 H    -0.000595 -0.000576  0.000671
    30 H     0.000193 -0.000189  0.000121
    31 H     0.000015 -0.000113 -0.000009
    32 C     0.001030 -0.001103 -0.000339
    33 C     0.000816 -0.000256  0.000058
    34 C     0.000034  0.000252 -0.000368
    35 C    -0.000056 -0.000033 -0.000195
    36 C     0.000000  0.000453  0.000162
    37 C    -0.000877 -0.000337 -0.000067
    38 H    -0.000103  0.000117 -0.000181
    39 H    -0.000131  0.000162 -0.000002
    40 H    -0.000107  0.000074  0.000173
    41 H     0.000075 -0.000201 -0.000030
    42 C     0.000086 -0.000134 -0.000016
    43 C     0.000407 -0.000279 -0.000154
    44 H     0.000083 -0.000201 -0.000017
    45 H     0.000161 -0.000179 -0.000034
    46 H     0.000107 -0.000157 -0.000018
    47 C    -0.000286 -0.000311  0.000258
    48 H     0.000237 -0.000226  0.000091
    49 H     0.000098 -0.000050  0.000233
    50 H     0.000107 -0.000138 -0.000019
    51 C     0.000411  0.000376  0.000149
    52 H    -0.000276 -0.000059  0.000018
    53 H     0.000090  0.000090 -0.000084
    54 H     0.000091 -0.000077  0.000065
 ----------------------------------------
 Mulliken charges used for AMS results%charges...

 dE(predicted):    -0.16112E-03, dE(actual):    -0.11794E-03, Trust radius:    0.094127, all in a.u.
 
----------------------------------------------------------------------
Geometry Convergence after Step   5       (Hartree/Angstrom,Angstrom)
----------------------------------------------------------------------
current energy                              -11.45938758 Hartree
energy change                      -0.00011794     0.00054000    T
constrained gradient max            0.00181591     0.00100000    F
constrained gradient rms            0.00043235     0.00066667    T
gradient max                        0.00181591
gradient rms                        0.00043235
cart. step max                      0.07623495     0.01000000    F
cart. step rms                      0.01929731     0.00666667    F
 
 
--------
Geometry
--------
Formula: C22H28N2OS
Atoms
  Index Symbol   x (angstrom)   y (angstrom)   z (angstrom)
      1      C     0.17023597    -2.02186629    -1.02820994
      2      C     0.64034600    -2.71257300     0.03659885
      3      C     1.01155650    -4.11548536    -0.07537368
      4      O     1.45229829    -4.79916651     0.84819306
      5      C    -1.05248851     2.06137812    -1.25297502
      6      H     0.04939245    -2.56730227    -1.96523032
      7      H     0.76033822    -2.25553125     1.01235613
      8      H     0.87866071    -4.56068227    -1.08478259
      9      C    -1.35160751     1.17201853    -2.28251844
     10      C    -0.93693663    -0.15214527    -2.19903126
     11      H     0.66738613    -0.01759201     0.79990937
     12      H    -0.08562117     2.31302846     0.65565804
     13      H    -1.37072787     3.09838537    -1.31720758
     14      H    -1.90681904     1.51219339    -3.15192202
     15      H    -1.17585567    -0.83890257    -3.00641140
     16      C    -0.22480280    -0.61960311    -1.07828967
     17      C     0.07828549     0.29631062    -0.05269950
     18      C    -0.33218899     1.61826464    -0.14243302
     19      N     2.74877201    -2.97095984     3.31423096
     20      C     1.82846587    -2.62632799     4.26584751
     21      S     2.16067236    -1.60694288     5.55750300
     22      N     0.59402015    -3.18144996     4.02032336
     23      C     4.11336446    -2.47293563     3.21380161
     24      H     2.45086722    -3.60515976     2.57913413
     25      C    -0.49504501    -3.27665109     4.98652763
     26      H     0.57891081    -3.89488881     3.29926414
     27      H     4.33607605    -1.97162491     4.15891095
     28      H    -0.60826226    -4.33030498     5.28029914
     29      H     4.78611535    -3.33364894     3.11870634
     30      H     3.42760855     0.14131869     3.10242725
     31      H    -0.18134187    -2.71505708     5.86904360
     32      C     4.31323728    -1.51499801     2.05537772
     33      C     4.91195213    -1.92274017     0.86039591
     34      C     5.07626112    -1.02693709    -0.19661869
     35      C     4.64987724     0.29189904    -0.06762645
     36      C     4.05854094     0.71108014     1.12364543
     37      C     3.88794528    -0.18463132     2.17406162
     38      H     5.25270168    -2.94926194     0.74862406
     39      H     5.54176434    -1.35912086    -1.12089284
     40      H     4.78018877     0.99154109    -0.88875772
     41      H     3.73515478     1.74273507     1.23438875
     42      C    -1.86019595    -2.74288035     4.47911695
     43      C    -2.88318119    -2.98494320     5.60271863
     44      H    -3.87238061    -2.62055005     5.30655988
     45      H    -2.97697134    -4.05208553     5.83388912
     46      H    -2.59460498    -2.46349455     6.52150881
     47      C    -1.76388298    -1.23772639     4.18141162
     48      H    -1.46669834    -0.67862724     5.07354923
     49      H    -2.72922991    -0.85065573     3.83811024
     50      H    -1.02238653    -1.03771756     3.40358099
     51      C    -2.31262963    -3.49729953     3.21574700
     52      H    -2.38152453    -4.57641539     3.39737492
     53      H    -3.30347541    -3.15261149     2.89939785
     54      H    -1.63149180    -3.33224933     2.37661256
 
Total System Charge             0.00000
Bonding info available!
 
 *** GO1_GOStep6 ***

 Energy gradients wrt nuclear displacements
 ==========================================

     Atom      Cartesian (a.u./angstrom)
                 X         Y         Z
 ----------------------------------------
     1 C     0.000716  0.000921 -0.000708
     2 C     0.000075  0.000015  0.001663
     3 C    -0.000966 -0.000728 -0.000713
     4 O     0.000400 -0.000146 -0.002009
     5 C    -0.000167  0.000528 -0.000005
     6 H    -0.000323  0.000284  0.000119
     7 H    -0.001311 -0.000836  0.000231
     8 H     0.000301  0.001409 -0.000144
     9 C    -0.000310  0.000566 -0.000006
    10 C     0.000100 -0.000041 -0.000193
    11 H    -0.000100 -0.000259 -0.000033
    12 H    -0.000025  0.000050  0.000176
    13 H     0.000050  0.000148  0.000373
    14 H    -0.000017  0.000326  0.000413
    15 H    -0.000171  0.000596  0.000182
    16 C     0.000047 -0.000064 -0.000037
    17 C    -0.000297  0.000190  0.000759
    18 C     0.000257  0.000165  0.000568
    19 N     0.000147  0.001157 -0.000833
    20 C    -0.000073 -0.001181  0.000745
    21 S     0.000511 -0.000147 -0.000594
    22 N     0.001062  0.001208 -0.000465
    23 C     0.000487  0.000354 -0.001083
    24 H    -0.000924 -0.000905  0.001448
    25 C    -0.001066 -0.000879  0.000098
    26 H    -0.000354 -0.000289  0.000129
    27 H     0.000081  0.000907 -0.000825
    28 H     0.000182 -0.000133 -0.000189
    29 H    -0.000653 -0.000673  0.000926
    30 H     0.000136 -0.000279  0.000168
    31 H     0.000044 -0.000117 -0.000015
    32 C     0.001094 -0.001725 -0.000164
    33 C     0.000675 -0.000318  0.000064
    34 C     0.000159  0.000239 -0.000450
    35 C     0.000003 -0.000003 -0.000297
    36 C    -0.000068  0.000492  0.000445
    37 C    -0.001051  0.000232 -0.000093
    38 H    -0.000094  0.000134 -0.000236
    39 H    -0.000098  0.000190 -0.000010
    40 H    -0.000119  0.000087  0.000147
    41 H     0.000130 -0.000182 -0.000016
    42 C     0.000077 -0.000270  0.000096
    43 C     0.000557 -0.000209 -0.000326
    44 H     0.000084 -0.000200  0.000024
    45 H     0.000135 -0.000165 -0.000010
    46 H     0.000072 -0.000177 -0.000003
    47 C    -0.000371 -0.000362  0.000243
    48 H     0.000237 -0.000188  0.000064
    49 H     0.000138 -0.000033  0.000228
    50 H     0.000178 -0.000068 -0.000087
    51 C     0.000626  0.000511  0.000293
    52 H    -0.000294 -0.000093 -0.000016
    53 H     0.000040  0.000026 -0.000092
    54 H     0.000053 -0.000063  0.000049
 ----------------------------------------
 Mulliken charges used for AMS results%charges...

 dE(predicted):    -0.14181E-03, dE(actual):    -0.52351E-04, Trust radius:    0.094127, all in a.u.
 
----------------------------------------------------------------------
Geometry Convergence after Step   6       (Hartree/Angstrom,Angstrom)
----------------------------------------------------------------------
current energy                              -11.45943993 Hartree
energy change                      -0.00005235     0.00054000    T
constrained gradient max            0.00177308     0.00100000    F
constrained gradient rms            0.00051432     0.00066667    T
gradient max                        0.00177308
gradient rms                        0.00051432
cart. step max                      0.06052255     0.01000000    F
cart. step rms                      0.01648894     0.00666667    F
 
 
--------
Geometry
--------
Formula: C22H28N2OS
Atoms
  Index Symbol   x (angstrom)   y (angstrom)   z (angstrom)
      1      C     0.17343957    -2.03291769    -1.03571219
      2      C     0.64315257    -2.72034624     0.03136893
      3      C     1.00875663    -4.12553171    -0.07401803
      4      O     1.44712058    -4.80718919     0.85201991
      5      C    -1.03863263     2.05329540    -1.26502473
      6      H     0.04736651    -2.58204784    -1.97004630
      7      H     0.76793021    -2.25764668     1.00405419
      8      H     0.87351826    -4.57395639    -1.08201411
      9      C    -1.35847898     1.15881371    -2.28403500
     10      C    -0.94631338    -0.16612927    -2.20004845
     11      H     0.71522947    -0.01780580     0.76743533
     12      H    -0.03483245     2.31433618     0.62311220
     13      H    -1.35522486     3.09089635    -1.32967415
     14      H    -1.92827363     1.49562330    -3.14543003
     15      H    -1.20188341    -0.85741689    -2.99862116
     16      C    -0.21607710    -0.62898517    -1.08915947
     17      C     0.10973689     0.29246962    -0.07528868
     18      C    -0.29887812     1.61503527    -0.16549780
     19      N     2.74912385    -2.97906651     3.31274898
     20      C     1.82908357    -2.63151246     4.26372846
     21      S     2.16233402    -1.61342320     5.55624338
     22      N     0.59345852    -3.18453582     4.01886891
     23      C     4.11323877    -2.47997280     3.20891709
     24      H     2.44802936    -3.61251015     2.57847488
     25      C    -0.49587479    -3.27655601     4.98548463
     26      H     0.57741056    -3.89829532     3.29854522
     27      H     4.34382797    -1.99195761     4.15899307
     28      H    -0.61049636    -4.32973070     5.28046960
     29      H     4.78418853    -3.34010456     3.09746097
     30      H     3.46749527     0.15010910     3.14330354
     31      H    -0.18016009    -2.71496149     5.86721909
     32      C     4.30693752    -1.50789449     2.06092898
     33      C     4.87748491    -1.91002710     0.85045891
     34      C     5.03835106    -1.00436412    -0.19849646
     35      C     4.63777914     0.32001009    -0.04576108
     36      C     4.07449135     0.73389426     1.16086775
     37      C     3.90683754    -0.17178067     2.20341157
     38      H     5.19860065    -2.94074509     0.71974097
     39      H     5.48124180    -1.33306630    -1.13523076
     40      H     4.76637472     1.02740504    -0.86059114
     41      H     3.77126417     1.76964871     1.29056261
     42      C    -1.86172775    -2.74198704     4.47996055
     43      C    -2.88291773    -2.98235708     5.60589319
     44      H    -3.87207139    -2.61587981     5.31223730
     45      H    -2.97857704    -4.04933670     5.83711050
     46      H    -2.59158235    -2.46194797     6.52440774
     47      C    -1.76546287    -1.23674014     4.18100772
     48      H    -1.46851993    -0.67678524     5.07270298
     49      H    -2.73102567    -0.85010092     3.83772699
     50      H    -1.02437948    -1.03653826     3.40293180
     51      C    -2.31759790    -3.49764646     3.21819495
     52      H    -2.38297758    -4.57698757     3.39970895
     53      H    -3.31065725    -3.15534489     2.90611846
     54      H    -1.64053564    -3.33100207     2.37605546
 
Total System Charge             0.00000
Bonding info available!
 
 *** GO1_GOStep7 ***

 Energy gradients wrt nuclear displacements
 ==========================================

     Atom      Cartesian (a.u./angstrom)
                 X         Y         Z
 ----------------------------------------
     1 C     0.000660  0.000865 -0.000723
     2 C    -0.000354 -0.000003  0.001428
     3 C    -0.000736 -0.001072 -0.000085
     4 O     0.000311 -0.000151 -0.002090
     5 C    -0.000111  0.000517  0.000167
     6 H    -0.000202  0.000184 -0.000011
     7 H    -0.001070 -0.000663  0.000255
     8 H     0.000300  0.001463 -0.000451
     9 C    -0.000284  0.000494 -0.000079
    10 C     0.000054  0.000003 -0.000125
    11 H     0.000043 -0.000289  0.000178
    12 H    -0.000016  0.000169  0.000205
    13 H     0.000015  0.000284  0.000373
    14 H    -0.000086  0.000364  0.000309
    15 H    -0.000149  0.000440  0.000094
    16 C    -0.000060 -0.000175 -0.000192
    17 C    -0.000187  0.000510  0.000729
    18 C     0.000136  0.000163  0.000573
    19 N     0.000606  0.001091 -0.001187
    20 C     0.000102 -0.001283  0.000267
    21 S     0.000225 -0.000241 -0.000346
    22 N     0.001233  0.000760 -0.000530
    23 C     0.000674  0.000205 -0.001229
    24 H    -0.001218 -0.000853  0.001751
    25 C    -0.001126 -0.000588  0.000005
    26 H    -0.000123  0.000024  0.000467
    27 H     0.000159  0.000729 -0.000714
    28 H     0.000142 -0.000124 -0.000197
    29 H    -0.000487 -0.000671  0.000908
    30 H     0.000112 -0.000310  0.000187
    31 H     0.000109 -0.000208 -0.000054
    32 C     0.000860 -0.001970 -0.000136
    33 C     0.000508 -0.000079  0.000376
    34 C     0.000142  0.000167 -0.000345
    35 C     0.000086  0.000063 -0.000337
    36 C    -0.000090  0.000279  0.000458
    37 C    -0.000958  0.000881 -0.000159
    38 H    -0.000098  0.000050 -0.000274
    39 H    -0.000060  0.000167 -0.000157
    40 H    -0.000035  0.000119  0.000020
    41 H     0.000078 -0.000052  0.000029
    42 C    -0.000067 -0.000405  0.000290
    43 C     0.000423 -0.000124 -0.000369
    44 H     0.000063 -0.000216  0.000118
    45 H     0.000091 -0.000155  0.000035
    46 H     0.000010 -0.000210  0.000043
    47 C    -0.000248 -0.000170  0.000219
    48 H     0.000209 -0.000109  0.000039
    49 H     0.000134 -0.000006  0.000218
    50 H     0.000075  0.000043 -0.000025
    51 C     0.000528  0.000275  0.000257
    52 H    -0.000251 -0.000092 -0.000117
    53 H     0.000003  0.000032 -0.000091
    54 H    -0.000075 -0.000122  0.000027
 ----------------------------------------
 Mulliken charges used for AMS results%charges...

 dE(predicted):    -0.13494E-03, dE(actual):    -0.46315E-04, Trust radius:    0.094127, all in a.u.
 
----------------------------------------------------------------------
Geometry Convergence after Step   7       (Hartree/Angstrom,Angstrom)
----------------------------------------------------------------------
current energy                              -11.45948625 Hartree
energy change                      -0.00004631     0.00054000    T
constrained gradient max            0.00193680     0.00100000    F
constrained gradient rms            0.00051141     0.00066667    T
gradient max                        0.00193680
gradient rms                        0.00051141
cart. step max                      0.08200493     0.01000000    F
cart. step rms                      0.01750155     0.00666667    F
 
 
--------
Geometry
--------
Formula: C22H28N2OS
Atoms
  Index Symbol   x (angstrom)   y (angstrom)   z (angstrom)
      1      C     0.18011823    -2.04421030    -1.04015543
      2      C     0.64934911    -2.72821357     0.02884220
      3      C     1.00975318    -4.13542010    -0.06981391
      4      O     1.44552535    -4.81464570     0.85916122
      5      C    -1.01451792     2.04660040    -1.27195513
      6      H     0.04738885    -2.59663463    -1.97165879
      7      H     0.77799921    -2.25998914     0.99857139
      8      H     0.87285718    -4.58763620    -1.07623559
      9      C    -1.35755404     1.14821099    -2.27976326
     10      C    -0.95009593    -0.17804125    -2.19634825
     11      H     0.76855704    -0.02080354     0.73767829
     12      H     0.02714602     2.31325955     0.59470790
     13      H    -1.32754207     3.08530855    -1.33636560
     14      H    -1.94167753     1.48322411    -3.13228474
     15      H    -1.22398381    -0.87274432    -2.98592662
     16      C    -0.20236517    -0.63836291    -1.09637948
     17      C     0.14779057     0.28706280    -0.09471954
     18      C    -0.25577145     1.61102923    -0.18476236
     19      N     2.75045930    -2.98558227     3.31511571
     20      C     1.83059614    -2.63499625     4.26535966
     21      S     2.16439578    -1.61637919     5.55749367
     22      N     0.59436111    -3.18706540     4.02024434
     23      C     4.11312703    -2.48460277     3.20690825
     24      H     2.44723388    -3.61876659     2.58145807
     25      C    -0.49541145    -3.27620833     4.98602596
     26      H     0.57792855    -3.90141972     3.30046114
     27      H     4.35225748    -2.00845357     4.16083557
     28      H    -0.61199696    -4.32892480     5.28211302
     29      H     4.78378510    -3.34245994     3.07806408
     30      H     3.49931874     0.15697969     3.18215092
     31      H    -0.17984306    -2.71402170     5.86739276
     32      C     4.29424368    -1.50066947     2.06656452
     33      C     4.83278307    -1.89815408     0.84001989
     34      C     4.98156550    -0.98513314    -0.20388301
     35      C     4.60187081     0.34262367    -0.02986628
     36      C     4.07107926     0.75170101     1.19269604
     37      C     3.91465648    -0.16163474     2.23036334
     38      H     5.13817344    -2.93150682     0.69284411
     39      H     5.39923687    -1.31065179    -1.15327899
     40      H     4.72147934     1.05601370    -0.84079249
     41      H     3.78452160     1.79003616     1.33940381
     42      C    -1.86000534    -2.74060983     4.47776390
     43      C    -2.88344048    -2.97919894     5.60236614
     44      H    -3.87122559    -2.61004345     5.30743856
     45      H    -2.98200346    -4.04612729     5.83270205
     46      H    -2.59195231    -2.46005879     6.52155859
     47      C    -1.76107404    -1.23572619     4.17795965
     48      H    -1.46691544    -0.67567382     5.07053024
     49      H    -2.72513550    -0.84849742     3.83097793
     50      H    -1.01699798    -1.03703210     3.40250297
     51      C    -2.31487322    -3.49672348     3.21556853
     52      H    -2.37804744    -4.57621213     3.39680597
     53      H    -3.30854446    -3.15592938     2.90383470
     54      H    -1.63793768    -3.32847917     2.37353055
 
Total System Charge             0.00000
Bonding info available!
 
 *** GO1_GOStep8 ***

 Energy gradients wrt nuclear displacements
 ==========================================

     Atom      Cartesian (a.u./angstrom)
                 X         Y         Z
 ----------------------------------------
     1 C     0.000861  0.000532 -0.000353
     2 C    -0.000885  0.000348  0.000814
     3 C    -0.000513 -0.001215  0.000326
     4 O     0.000216 -0.000171 -0.002081
     5 C    -0.000057  0.000232  0.000229
     6 H    -0.000202  0.000180 -0.000019
     7 H    -0.000973 -0.000487  0.000311
     8 H     0.000304  0.001422 -0.000756
     9 C    -0.000173  0.000400  0.000200
    10 C     0.000126  0.000266  0.000069
    11 H     0.000017 -0.000150  0.000227
    12 H    -0.000005  0.000166  0.000248
    13 H     0.000008  0.000291  0.000382
    14 H    -0.000101  0.000377  0.000288
    15 H    -0.000140  0.000354  0.000117
    16 C    -0.000117 -0.000068 -0.000142
    17 C    -0.000215  0.000554  0.000397
    18 C     0.000166 -0.000046  0.000297
    19 N     0.001085  0.001661 -0.001794
    20 C     0.000277 -0.001085  0.000381
    21 S     0.000149 -0.000078 -0.000052
    22 N     0.000654  0.000533 -0.000591
    23 C     0.000723 -0.000294 -0.000775
    24 H    -0.001340 -0.000918  0.001747
    25 C    -0.000685 -0.000297  0.000146
    26 H    -0.000076 -0.000054  0.000391
    27 H     0.000198  0.000447 -0.000445
    28 H     0.000122 -0.000175 -0.000246
    29 H    -0.000223 -0.000509  0.000705
    30 H     0.000119 -0.000274  0.000142
    31 H     0.000122 -0.000261 -0.000053
    32 C     0.000067 -0.001303 -0.000448
    33 C     0.000405  0.000157  0.000515
    34 C    -0.000073  0.000261 -0.000108
    35 C     0.000115 -0.000099 -0.000049
    36 C    -0.000031 -0.000079  0.000304
    37 C    -0.000662  0.000469 -0.000417
    38 H    -0.000091  0.000037 -0.000259
    39 H    -0.000074  0.000153 -0.000182
    40 H    -0.000028  0.000085  0.000033
    41 H     0.000055 -0.000043  0.000085
    42 C     0.000034 -0.000310  0.000116
    43 C     0.000297 -0.000160 -0.000160
    44 H     0.000059 -0.000206  0.000081
    45 H     0.000085 -0.000188  0.000029
    46 H     0.000037 -0.000209  0.000049
    47 C    -0.000013 -0.000063  0.000116
    48 H     0.000193 -0.000153  0.000090
    49 H     0.000078 -0.000037  0.000206
    50 H     0.000031 -0.000007  0.000018
    51 C     0.000235  0.000108  0.000105
    52 H    -0.000167 -0.000049 -0.000109
    53 H    -0.000006  0.000044 -0.000079
    54 H     0.000011 -0.000092 -0.000046
 ----------------------------------------
 Mulliken charges used for AMS results%charges...

 dE(predicted):    -0.12364E-03, dE(actual):     0.27782E-04, Trust radius:    0.023532, all in a.u.
 
----------------------------------------------------------------------
Geometry Convergence after Step   8       (Hartree/Angstrom,Angstrom)
----------------------------------------------------------------------
current energy                              -11.45945847 Hartree
energy change                       0.00002778     0.00054000    T
constrained gradient max            0.00193132     0.00100000    F
constrained gradient rms            0.00046499     0.00066667    T
gradient max                        0.00193132
gradient rms                        0.00046499
cart. step max                      0.01593783     0.01000000    F
cart. step rms                      0.00348855     0.00666667    T
 
 
--------
Geometry
--------
Formula: C22H28N2OS
Atoms
  Index Symbol   x (angstrom)   y (angstrom)   z (angstrom)
      1      C     0.18137380    -2.04553643    -1.04167209
      2      C     0.65066864    -2.72880300     0.02772746
      3      C     1.01001314    -4.13642719    -0.06917253
      4      O     1.44511918    -4.81501368     0.86060400
      5      C    -1.01203142     2.04566421    -1.27511778
      6      H     0.04782464    -2.59850139    -1.97274177
      7      H     0.77992878    -2.25925205     0.99679715
      8      H     0.87297363    -4.58956742    -1.07527420
      9      C    -1.35840215     1.14609143    -2.28071049
     10      C    -0.95140153    -0.18020336    -2.19680868
     11      H     0.77689708    -0.01934432     0.73124935
     12      H     0.03579180     2.31412995     0.58790816
     13      H    -1.32488280     3.08439161    -1.33996354
     14      H    -1.94492277     1.48028451    -3.13193349
     15      H    -1.22798890    -0.87584118    -2.98466034
     16      C    -0.20051645    -0.63943567    -1.09855474
     17      C     0.15329625     0.28713471    -0.09944770
     18      C    -0.25011542     1.61118033    -0.18983548
     19      N     2.75029466    -2.98652314     3.31564086
     20      C     1.83036149    -2.63518861     4.26553192
     21      S     2.16396608    -1.61690216     5.55790746
     22      N     0.59411478    -3.18731484     4.02034506
     23      C     4.11266893    -2.48551891     3.20676877
     24      H     2.44668412    -3.61950459     2.58196665
     25      C    -0.49525776    -3.27624931     4.98615054
     26      H     0.57784080    -3.90156784     3.30042198
     27      H     4.35384018    -2.01254872     4.16171019
     28      H    -0.61190990    -4.32890285     5.28261991
     29      H     4.78274195    -3.34313471     3.07354250
     30      H     3.51076202     0.16048100     3.19046917
     31      H    -0.17963510    -2.71388252     5.86737067
     32      C     4.29284340    -1.49885249     2.06824742
     33      C     4.82371079    -1.89655272     0.83820655
     34      C     4.97167953    -0.98247895    -0.20470082
     35      C     4.59888670     0.34675157    -0.02638610
     36      C     4.07605403     0.75586925     1.19951598
     37      C     3.92035387    -0.15866563     2.23640112
     38      H     5.12363569    -2.93109381     0.68777740
     39      H     5.38329904    -1.30833591    -1.15661837
     40      H     4.71787543     1.06114858    -0.83652049
     41      H     3.79498865     1.79525456     1.34975165
     42      C    -1.86024071    -2.74105626     4.47807712
     43      C    -2.88351820    -2.97997089     5.60294817
     44      H    -3.87132133    -2.61063629     5.30830604
     45      H    -2.98201028    -4.04699014     5.83287745
     46      H    -2.59164957    -2.46112102     6.52218309
     47      C    -1.76166453    -1.23620226     4.17826742
     48      H    -1.46794282    -0.67611008     5.07095695
     49      H    -2.72578558    -0.84930265     3.83103327
     50      H    -1.01744608    -1.03746486     3.40301635
     51      C    -2.31535931    -3.49739674     3.21594957
     52      H    -2.37735892    -4.57695310     3.39710492
     53      H    -3.30947685    -3.15726059     2.90501031
     54      H    -1.63900507    -3.32836778     2.37358226
 
Total System Charge             0.00000
Bonding info available!
 
 *** GO1_GOStep9 ***

 Energy gradients wrt nuclear displacements
 ==========================================

     Atom      Cartesian (a.u./angstrom)
                 X         Y         Z
 ----------------------------------------
     1 C     0.000884  0.000460 -0.000317
     2 C    -0.000934  0.000285  0.000649
     3 C    -0.000527 -0.001218  0.000474
     4 O     0.000237 -0.000221 -0.002022
     5 C    -0.000039  0.000190  0.000263
     6 H    -0.000179  0.000202 -0.000033
     7 H    -0.000942 -0.000433  0.000319
     8 H     0.000305  0.001412 -0.000864
     9 C    -0.000082  0.000352  0.000277
    10 C     0.000089  0.000339  0.000136
    11 H    -0.000040 -0.000022  0.000159
    12 H     0.000015  0.000149  0.000269
    13 H     0.000005  0.000285  0.000377
    14 H    -0.000113  0.000383  0.000275
    15 H    -0.000139  0.000324  0.000098
    16 C    -0.000137  0.000094 -0.000037
    17 C    -0.000194  0.000375  0.000286
    18 C     0.000098  0.000009  0.000238
    19 N     0.001213  0.001690 -0.001776
    20 C     0.000339 -0.000934  0.000349
    21 S     0.000055 -0.000137  0.000004
    22 N     0.000443  0.000442 -0.000453
    23 C     0.000504 -0.000471 -0.000555
    24 H    -0.001334 -0.000926  0.001740
    25 C    -0.000317 -0.000136  0.000060
    26 H    -0.000013 -0.000076  0.000337
    27 H     0.000177  0.000366 -0.000412
    28 H     0.000085 -0.000201 -0.000239
    29 H    -0.000196 -0.000444  0.000555
    30 H     0.000120 -0.000212  0.000094
    31 H     0.000130 -0.000282 -0.000048
    32 C    -0.000061 -0.000818 -0.000425
    33 C     0.000469  0.000174  0.000330
    34 C    -0.000066  0.000201 -0.000082
    35 C     0.000081 -0.000087 -0.000040
    36 C    -0.000003 -0.000130  0.000246
    37 C    -0.000554  0.000188 -0.000350
    38 H    -0.000075 -0.000009 -0.000259
    39 H    -0.000071  0.000119 -0.000159
    40 H    -0.000021  0.000093  0.000032
    41 H     0.000044 -0.000016  0.000124
    42 C     0.000069 -0.000228  0.000059
    43 C     0.000168 -0.000186 -0.000062
    44 H     0.000057 -0.000203  0.000067
    45 H     0.000095 -0.000194  0.000013
    46 H     0.000062 -0.000203  0.000040
    47 C     0.000064 -0.000034  0.000102
    48 H     0.000183 -0.000168  0.000105
    49 H     0.000056 -0.000052  0.000206
    50 H     0.000003 -0.000043  0.000043
    51 C     0.000084  0.000014  0.000004
    52 H    -0.000133 -0.000037 -0.000098
    53 H     0.000015  0.000061 -0.000060
    54 H     0.000021 -0.000083 -0.000037
 ----------------------------------------
 Mulliken charges used for AMS results%charges...

 dE(predicted):    -0.27249E-04, dE(actual):    -0.61523E-05, Trust radius:    0.023532, all in a.u.
 
----------------------------------------------------------------------
Geometry Convergence after Step   9       (Hartree/Angstrom,Angstrom)
----------------------------------------------------------------------
current energy                              -11.45946462 Hartree
energy change                      -0.00000615     0.00054000    T
constrained gradient max            0.00192364     0.00100000    F
constrained gradient rms            0.00043611     0.00066667    T
gradient max                        0.00192364
gradient rms                        0.00043611
cart. step max                      0.01934895     0.01000000    F
cart. step rms                      0.00396269     0.00666667    T
 
 
--------
Geometry
--------
Formula: C22H28N2OS
Atoms
  Index Symbol   x (angstrom)   y (angstrom)   z (angstrom)
      1      C     0.18256580    -2.04732562    -1.04301742
      2      C     0.65183867    -2.72980894     0.02688171
      3      C     1.00981998    -4.13785958    -0.06820496
      4      O     1.44425239    -4.81572367     0.86245215
      5      C    -1.00697619     2.04488132    -1.27935120
      6      H     0.04797899    -2.60096262    -1.97352356
      7      H     0.78189798    -2.25891157     0.99522077
      8      H     0.87249181    -4.59197941    -1.07383985
      9      C    -1.35691516     1.14419944    -2.28274647
     10      C    -0.95123422    -0.18240070    -2.19799138
     11      H     0.78554456    -0.01883856     0.72489324
     12      H     0.04636244     2.31473179     0.58046414
     13      H    -1.31892708     3.08381119    -1.34493014
     14      H    -1.94523324     1.47782648    -3.13294568
     15      H    -1.23064883    -0.87884336    -2.98412367
     16      C    -0.19795476    -0.64083718    -1.10100856
     17      C     0.15971443     0.28673270    -0.10440436
     18      C    -0.24262683     1.61114358    -0.19555011
     19      N     2.75019152    -2.98798750     3.31617641
     20      C     1.83045875    -2.63572904     4.26587018
     21      S     2.16488188    -1.61748716     5.55794792
     22      N     0.59404940    -3.18772565     4.02087653
     23      C     4.11226406    -2.48695304     3.20618574
     24      H     2.44603725    -3.62077854     2.58255246
     25      C    -0.49493170    -3.27637176     4.98674312
     26      H     0.57772247    -3.90192042     3.30082485
     27      H     4.35581527    -2.01693262     4.16191708
     28      H    -0.61170865    -4.32893986     5.28362349
     29      H     4.78169916    -3.34433755     3.06848252
     30      H     3.52118301     0.16237588     3.19990453
     31      H    -0.17931560    -2.71379116     5.86783037
     32      C     4.29064667    -1.49737474     2.06956813
     33      C     4.81310165    -1.89425291     0.83544012
     34      C     4.95897294    -0.97830194    -0.20597532
     35      C     4.59250759     0.35209566    -0.02230279
     36      C     4.07822842     0.76018619     1.20744301
     37      C     3.92456249    -0.15636075     2.24307863
     38      H     5.10792661    -2.92968028     0.68093453
     39      H     5.36395009    -1.30356421    -1.16091579
     40      H     4.70982772     1.06806132    -0.83128042
     41      H     3.80209351     1.80029690     1.36189585
     42      C    -1.86013149    -2.74142122     4.47875632
     43      C    -2.88332048    -2.98057400     5.60375669
     44      H    -3.87108614    -2.61101612     5.30928532
     45      H    -2.98180503    -4.04766887     5.83329251
     46      H    -2.59114241    -2.46199815     6.52304286
     47      C    -1.76187097    -1.23665191     4.17890835
     48      H    -1.46867793    -0.67647201     5.07171317
     49      H    -2.72595704    -0.85002558     3.83125310
     50      H    -1.01735751    -1.03792085     3.40396484
     51      C    -2.31516857    -3.49795795     3.21665190
     52      H    -2.37608684    -4.57758273     3.39773490
     53      H    -3.30966297    -3.15852524     2.90624661
     54      H    -1.63920226    -3.32814184     2.37412385
 
Total System Charge             0.00000
Bonding info available!
 
 *** GO1_GOStep10 ***

 Energy gradients wrt nuclear displacements
 ==========================================

     Atom      Cartesian (a.u./angstrom)
                 X         Y         Z
 ----------------------------------------
     1 C     0.000857  0.000415 -0.000274
     2 C    -0.000932  0.000185  0.000567
     3 C    -0.000561 -0.001222  0.000501
     4 O     0.000252 -0.000240 -0.001950
     5 C    -0.000038  0.000213  0.000281
     6 H    -0.000156  0.000246 -0.000033
     7 H    -0.000924 -0.000401  0.000305
     8 H     0.000316  0.001444 -0.000892
     9 C    -0.000055  0.000321  0.000281
    10 C     0.000044  0.000350  0.000119
    11 H    -0.000068  0.000054  0.000124
    12 H     0.000029  0.000114  0.000276
    13 H     0.000007  0.000259  0.000370
    14 H    -0.000108  0.000379  0.000281
    15 H    -0.000134  0.000336  0.000101
    16 C    -0.000129  0.000229  0.000075
    17 C    -0.000140  0.000145  0.000203
    18 C     0.000043  0.000114  0.000220
    19 N     0.001298  0.001796 -0.001711
    20 C     0.000350 -0.000804  0.000379
    21 S     0.000106 -0.000181 -0.000053
    22 N     0.000217  0.000377 -0.000332
    23 C     0.000307 -0.000619 -0.000286
    24 H    -0.001323 -0.000935  0.001723
    25 C    -0.000054 -0.000068 -0.000062
    26 H     0.000031 -0.000132  0.000257
    27 H     0.000166  0.000326 -0.000403
    28 H     0.000060 -0.000227 -0.000230
    29 H    -0.000176 -0.000401  0.000438
    30 H     0.000122 -0.000158  0.000063
    31 H     0.000111 -0.000294 -0.000036
    32 C    -0.000148 -0.000473 -0.000406
    33 C     0.000547  0.000114  0.000113
    34 C    -0.000061  0.000110 -0.000099
    35 C     0.000047  0.000008 -0.000003
    36 C     0.000009 -0.000064  0.000132
    37 C    -0.000467 -0.000137 -0.000232
    38 H    -0.000081 -0.000021 -0.000248
    39 H    -0.000089  0.000102 -0.000123
    40 H    -0.000028  0.000105  0.000056
    41 H     0.000046 -0.000019  0.000138
    42 C     0.000096 -0.000131  0.000011
    43 C     0.000088 -0.000197  0.000021
    44 H     0.000064 -0.000197  0.000048
    45 H     0.000111 -0.000194 -0.000009
    46 H     0.000086 -0.000197  0.000029
    47 C     0.000070 -0.000049  0.000108
    48 H     0.000175 -0.000185  0.000112
    49 H     0.000048 -0.000058  0.000208
    50 H    -0.000005 -0.000078  0.000050
    51 C     0.000009 -0.000034 -0.000065
    52 H    -0.000109 -0.000030 -0.000080
    53 H     0.000041  0.000071 -0.000036
    54 H     0.000032 -0.000069 -0.000025
 ----------------------------------------
 Mulliken charges used for AMS results%charges...
 
----------------------------------------------------------------------
Geometry Convergence after Step  10       (Hartree/Angstrom,Angstrom)
----------------------------------------------------------------------
current energy                              -11.45946371 Hartree
energy change                       0.00000091     0.00054000    T
constrained gradient max            0.00193233     0.00100000    F
constrained gradient rms            0.00042084     0.00066667    T
gradient max                        0.00193233
gradient rms                        0.00042084
cart. step max                      0.01763712     0.01000000    F
cart. step rms                      0.00375945     0.00666667    T
 
 
--------
Geometry
--------
Formula: C22H28N2OS
Atoms
  Index Symbol   x (angstrom)   y (angstrom)   z (angstrom)
      1      C     0.18370504    -2.04911833    -1.04461832
      2      C     0.65302161    -2.73075270     0.02581683
      3      C     1.00956841    -4.13924702    -0.06737764
      4      O     1.44328157    -4.81631855     0.86422265
      5      C    -1.00244622     2.04395541    -1.28336139
      6      H     0.04799196    -2.60354822    -1.97449181
      7      H     0.78392637    -2.25849175     0.99339887
      8      H     0.87193916    -4.59441473    -1.07247643
      9      C    -1.35595727     1.14226741    -2.28465806
     10      C    -0.95139023    -0.18461806    -2.19926077
     11      H     0.79394565    -0.01869958     0.71847054
     12      H     0.05642309     2.31516475     0.57319077
     13      H    -1.31363026     3.08307286    -1.34949244
     14      H    -1.94619616     1.47538366    -3.13372170
     15      H    -1.23364436    -0.88180374    -2.98370846
     16      C    -0.19558527    -0.64231126    -1.10365734
     17      C     0.16585248     0.28620596    -0.10936965
     18      C    -0.23553117     1.61093028    -0.20112243
     19      N     2.75002261    -2.98951408     3.31651231
     20      C     1.83043192    -2.63632280     4.26600919
     21      S     2.16531759    -1.61816565     5.55793356
     22      N     0.59388243    -3.18814955     4.02128076
     23      C     4.11189156    -2.48836546     3.20543664
     24      H     2.44531410    -3.62210296     2.58293770
     25      C    -0.49476897    -3.27655451     4.98733154
     26      H     0.57748305    -3.90223777     3.30111402
     27      H     4.35766102    -2.02127323     4.16197172
     28      H    -0.61160589    -4.32902292     5.28462344
     29      H     4.78066213    -3.34556821     3.06350910
     30      H     3.53129638     0.16421780     3.20886956
     31      H    -0.17906167    -2.71375710     5.86825616
     32      C     4.28874020    -1.49589740     2.07085585
     33      C     4.80320257    -1.89185926     0.83297018
     34      C     4.94746676    -0.97406379    -0.20692760
     35      C     4.58714746     0.35739583    -0.01821781
     36      C     4.08086854     0.76449759     1.21508341
     37      C     3.92888917    -0.15396995     2.24945646
     38      H     5.09314092    -2.92809074     0.67458843
     39      H     5.34631296    -1.29864601    -1.16467306
     40      H     4.70312905     1.07482226    -0.82608680
     41      H     3.80951535     1.80529524     1.37345631
     42      C    -1.86015065    -2.74177108     4.47953453
     43      C    -2.88318299    -2.98117689     5.60466514
     44      H    -3.87091365    -2.61129938     5.31050326
     45      H    -2.98179447    -4.04834101     5.83378656
     46      H    -2.59067674    -2.46299751     6.52406463
     47      C    -1.76208966    -1.23703612     4.17974341
     48      H    -1.46938558    -0.67679168     5.07266980
     49      H    -2.72609586    -0.85056448     3.83169740
     50      H    -1.01727147    -1.03818372     3.40512258
     51      C    -2.31517378    -3.49835052     3.21742763
     52      H    -2.37510583    -4.57807147     3.39827142
     53      H    -3.31006325    -3.15960212     2.90757440
     54      H    -1.63966416    -3.32773208     2.37469115
 
Total System Charge             0.00000
Bonding info available!
 
 *** GO1_GOStep11 ***

 Energy gradients wrt nuclear displacements
 ==========================================

     Atom      Cartesian (a.u./angstrom)
                 X         Y         Z
 ----------------------------------------
     1 C     0.000841  0.000417 -0.000258
     2 C    -0.000921  0.000089  0.000525
     3 C    -0.000601 -0.001254  0.000504
     4 O     0.000259 -0.000236 -0.001890
     5 C    -0.000027  0.000247  0.000316
     6 H    -0.000140  0.000266 -0.000041
     7 H    -0.000904 -0.000373  0.000286
     8 H     0.000332  0.001487 -0.000890
     9 C    -0.000062  0.000298  0.000243
    10 C    -0.000002  0.000339  0.000077
    11 H    -0.000063  0.000076  0.000131
    12 H     0.000038  0.000094  0.000282
    13 H     0.000004  0.000250  0.000366
    14 H    -0.000103  0.000377  0.000285
    15 H    -0.000132  0.000349  0.000106
    16 C    -0.000117  0.000267  0.000130
    17 C    -0.000117  0.000031  0.000169
    18 C     0.000018  0.000194  0.000215
    19 N     0.001337  0.001814 -0.001683
    20 C     0.000345 -0.000699  0.000368
    21 S     0.000073 -0.000237 -0.000071
    22 N     0.000108  0.000334 -0.000264
    23 C     0.000211 -0.000711 -0.000127
    24 H    -0.001316 -0.000943  0.001714
    25 C     0.000091 -0.000034 -0.000133
    26 H     0.000094 -0.000133  0.000226
    27 H     0.000153  0.000289 -0.000409
    28 H     0.000037 -0.000233 -0.000212
    29 H    -0.000155 -0.000377  0.000343
    30 H     0.000116 -0.000126  0.000043
    31 H     0.000094 -0.000298 -0.000017
    32 C    -0.000139 -0.000318 -0.000402
    33 C     0.000538  0.000097 -0.000008
    34 C    -0.000054  0.000031 -0.000077
    35 C     0.000013  0.000088  0.000033
    36 C     0.000024 -0.000005  0.000027
    37 C    -0.000409 -0.000277 -0.000147
    38 H    -0.000087 -0.000017 -0.000233
    39 H    -0.000092  0.000100 -0.000114
    40 H    -0.000029  0.000106  0.000064
    41 H     0.000050 -0.000023  0.000142
    42 C     0.000091 -0.000077 -0.000008
    43 C     0.000052 -0.000206  0.000058
    44 H     0.000073 -0.000196  0.000043
    45 H     0.000117 -0.000189 -0.000016
    46 H     0.000096 -0.000199  0.000022
    47 C     0.000068 -0.000082  0.000118
    48 H     0.000171 -0.000186  0.000112
    49 H     0.000055 -0.000058  0.000210
    50 H     0.000000 -0.000081  0.000046
    51 C    -0.000018 -0.000054 -0.000086
    52 H    -0.000095 -0.000028 -0.000075
    53 H     0.000051  0.000073 -0.000026
    54 H     0.000031 -0.000062 -0.000016
 ----------------------------------------
 Mulliken charges used for AMS results%charges...

 dE(predicted):    -0.23495E-04, dE(actual):    -0.11754E-05, Trust radius:    0.020000, all in a.u.
 
----------------------------------------------------------------------
Geometry Convergence after Step  11       (Hartree/Angstrom,Angstrom)
----------------------------------------------------------------------
current energy                              -11.45946489 Hartree
energy change                      -0.00000118     0.00054000    T
constrained gradient max            0.00195062     0.00100000    F
constrained gradient rms            0.00041556     0.00066667    T
gradient max                        0.00195062
[...]
                                    3.18%     1 S              -6.481  1.00    30 H
                                   -2.78%     3 S              16.485  0.00    53 N
                                    2.42%     1 S              -6.481  1.00    44 H
                                    2.24%     1 S              -6.481  1.00    42 H
                                    2.21%     2 S             -18.860  2.00    53 N
                                   -2.10%     3 S              11.446  0.00    15 C
                                    2.10%     2 S             -13.951  2.00    20 C
                                   -1.77%     3 S              11.446  0.00     9 C
                                    1.65%     2 S              10.460  0.00    39 H
                                    1.63%     2 S              10.460  0.00    42 H
                                    1.57%     2 S              10.460  0.00    30 H
                                    1.51%     1 S              -6.481  1.00    46 H
                                    1.48%     1 S              -6.481  1.00    35 H
                                    1.45%     1 S              -6.481  1.00    49 H
                                    1.44%     2 S              10.460  0.00    49 H
                                    1.36%     1 S              -6.481  1.00    47 H
                                    1.27%     2 S              10.460  0.00    44 H
                                   -1.26%     3 S              11.446  0.00    21 C
                                   -1.25%     2 P:z            12.627  0.00    15 C
                                    1.22%     2 S              10.460  0.00    51 H
                                    1.21%     2 S              10.460  0.00    47 H
                                    1.19%     2 S              10.460  0.00    31 H
                                    1.12%     1 S              -6.481  1.00    51 H
                                    1.09%     2 S              10.460  0.00    46 H
       1.470  0.00   113 A         20.09%     1 S              -6.481  1.00    29 H
                                   15.22%     1 S              -6.481  1.00    31 H
                                    9.61%     2 S              10.460  0.00    29 H
                                    9.28%     1 S              -6.481  1.00    26 H
                                    9.01%     1 S              -6.481  1.00    25 H
                                    6.61%     2 S              10.460  0.00    31 H
                                   -5.91%     3 S              11.446  0.00     4 C
                                    5.59%     1 S              -6.481  1.00    27 H
                                   -4.83%     2 P:y            12.627  0.00     4 C
                                   -4.22%     3 S              11.446  0.00     6 C
                                    3.35%     2 S              10.460  0.00    25 H
                                   -3.31%     3 S              11.446  0.00    20 C
                                    3.28%     1 S              -6.481  1.00    48 H
                                    3.08%     2 S              10.460  0.00    27 H
                                    2.98%     1 S              -6.481  1.00    28 H
                                    2.84%     1 S              -6.481  1.00    43 H
                                    2.60%     2 S             -13.951  2.00     4 C
                                    2.42%     2 S              10.460  0.00    48 H
                                    2.32%     1 S              -6.481  1.00    44 H
                                   -2.21%     2 P:y            12.627  0.00     6 C
                                   -2.15%     3 S              11.446  0.00     2 C
                                   -2.13%     3 S              11.446  0.00     8 C
                                    2.13%     1 S              -6.481  1.00    45 H
                                    1.98%     1 S              -6.481  1.00    37 H
                                    1.93%     2 S             -13.951  2.00     3 C
                                    1.84%     1 S              -6.481  1.00    39 H
                                    1.82%     2 S              10.460  0.00    44 H
                                    1.81%     2 S             -13.951  2.00     6 C
                                   -1.72%     1 P:y            11.166  0.00    29 H
                                    1.58%     2 S              10.460  0.00    37 H
                                    1.57%     1 S              -6.481  1.00    33 H
                                   -1.49%     3 S              11.446  0.00     3 C
                                    1.45%     1 P:x            -5.233  0.67     9 C
                                    1.45%     2 S             -13.951  2.00     8 C
                                    1.39%     2 S              10.460  0.00    45 H
                                    1.30%     2 S             -13.951  2.00     2 C
                                    1.20%     1 P:y            -5.233  0.67     5 C
                                    1.19%     1 S              -6.481  1.00    42 H
                                    1.18%     1 S              -6.481  1.00    40 H
                                    1.12%     1 S              -6.481  1.00    36 H
       1.586  0.00   114 A         11.06%     1 S              -6.481  1.00    36 H
                                    8.44%     1 S              -6.481  1.00    41 H
                                   -7.06%     3 S              11.446  0.00    11 C
                                    6.98%     1 S              -6.481  1.00    40 H
                                    6.16%     2 S              10.460  0.00    36 H
                                    5.96%     1 S              -6.481  1.00    35 H
                                    5.28%     1 S              -6.481  1.00    30 H
                                    5.08%     1 S              -6.481  1.00    33 H
                                    4.79%     1 S              -6.481  1.00    48 H
                                    4.75%     1 S              -6.481  1.00    26 H
                                    4.12%     1 S              -6.481  1.00    34 H
                                    3.89%     1 S              -6.481  1.00    27 H
                                    3.21%     1 S              -6.481  1.00    49 H
                                    3.20%     1 S              -6.481  1.00    28 H
                                    3.14%     2 S              10.460  0.00    41 H
                                    3.03%     1 S              -6.481  1.00    25 H
                                   -2.84%     3 S              11.446  0.00    21 C
                                    2.76%     2 S              10.460  0.00    26 H
                                    2.54%     1 S              -6.481  1.00    46 H
                                    2.48%     1 S              -6.481  1.00    24 H
                                    2.42%     2 S              10.460  0.00    35 H
                                    2.41%     2 S              10.460  0.00    49 H
                                    2.40%     2 S              10.460  0.00    48 H
                                   -2.34%     2 P:y            12.627  0.00    12 C
                                    2.16%     2 S              10.460  0.00    40 H
                                    2.11%     2 S              10.460  0.00    39 H
                                    2.10%     2 S              10.460  0.00    25 H
                                    2.08%     2 S              10.460  0.00    27 H
                                    2.05%     2 S              10.460  0.00    30 H
                                    2.04%     2 S              10.460  0.00    34 H
                                    2.02%     2 S             -13.951  2.00    11 C
                                    1.99%     2 S              10.460  0.00    24 H
                                   -1.88%     3 S              11.446  0.00    16 C
                                   -1.65%     3 S              11.446  0.00     3 C
                                   -1.64%     3 S              11.446  0.00    15 C
                                    1.63%     2 S              10.460  0.00    46 H
                                    1.60%     2 S              10.460  0.00    28 H
                                    1.56%     1 S              -6.481  1.00    39 H
                                   -1.40%     3 S              11.446  0.00     1 C
                                   -1.30%     2 P:z            12.627  0.00    15 C
                                   -1.26%     2 P:y            12.627  0.00    22 C
                                   -1.21%     3 S              11.446  0.00     5 C
                                   -1.20%     2 P:y            12.627  0.00    16 C
                                    1.17%     2 S              10.460  0.00    37 H
                                    1.15%     2 S             -13.951  2.00    15 C
                                    1.10%     1 S              -6.481  1.00    31 H
                                   -1.07%     3 S              11.446  0.00     8 C
                                    1.05%     1 P:y            -5.233  0.67     3 C
                                   -1.01%     2 P:y            12.627  0.00    20 C
                                    1.00%     1 S              -6.481  1.00    47 H

 Energy gradients wrt nuclear displacements
 ==========================================

     Atom      Cartesian (a.u./angstrom)
                 X         Y         Z
 ----------------------------------------
     1 C     0.000130  0.000178 -0.000020
     2 C    -0.000262  0.000106 -0.000219
     3 C    -0.000601 -0.000157  0.000711
     4 O    -0.000842  0.000551 -0.000155
     5 C    -0.000058  0.000248  0.000264
     6 H    -0.000134  0.000278 -0.000054
     7 H    -0.000192  0.000176  0.000083
     8 H     0.000557  0.000194 -0.000696
     9 C     0.000001  0.000341  0.000291
    10 C    -0.000029  0.000245  0.000159
    11 H    -0.000014  0.000100  0.000146
    12 H     0.000042  0.000114  0.000233
    13 H     0.000001  0.000267  0.000394
    14 H    -0.000074  0.000379  0.000306
    15 H    -0.000112  0.000369  0.000136
    16 C    -0.000085  0.000279  0.000059
    17 C    -0.000039  0.000154  0.000128
    18 C     0.000024  0.000185  0.000240
    19 N    -0.000254 -0.000148 -0.000210
    20 C     0.000288 -0.000372 -0.000169
    21 S     0.000061 -0.000239 -0.000022
    22 N     0.000189 -0.000211 -0.000200
    23 C     0.000123 -0.000125 -0.000159
    24 H     0.000551 -0.000079 -0.000489
    25 C    -0.000020 -0.000149  0.000005
    26 H    -0.000028 -0.000218 -0.000237
    27 H     0.000107 -0.000117 -0.000208
    28 H     0.000051 -0.000210 -0.000132
    29 H    -0.000049 -0.000261 -0.000115
    30 H     0.000080 -0.000162  0.000036
    31 H     0.000088 -0.000256 -0.000072
    32 C     0.000009 -0.000195 -0.000149
    33 C     0.000056  0.000021 -0.000095
    34 C    -0.000052  0.000058 -0.000043
    35 C    -0.000008  0.000017  0.000041
    36 C     0.000042 -0.000055  0.000075
    37 C    -0.000081 -0.000118 -0.000058
    38 H    -0.000064 -0.000031 -0.000226
    39 H    -0.000072  0.000095 -0.000119
    40 H    -0.000020  0.000087  0.000075
    41 H     0.000073 -0.000041  0.000160
    42 C     0.000040 -0.000196 -0.000004
    43 C     0.000069 -0.000184 -0.000025
    44 H     0.000061 -0.000170  0.000054
    45 H     0.000084 -0.000192 -0.000025
    46 H     0.000108 -0.000209  0.000036
    47 C     0.000091 -0.000034  0.000119
    48 H     0.000146 -0.000174  0.000116
    49 H     0.000065 -0.000058  0.000203
    50 H     0.000032 -0.000068  0.000060
    51 C    -0.000021 -0.000016 -0.000070
    52 H    -0.000050 -0.000040 -0.000114
    53 H     0.000017  0.000047 -0.000009
    54 H    -0.000024 -0.000007 -0.000033
 ----------------------------------------



 =======================================================================
 Electrostatic potential at the Nuclei due to electrons and other nuclei
 =======================================================================
  
         Atom                  Potential
         ----                  ---------
     1)   C                  14.73061040
     2)   C                  14.75344936
     3)   C                  14.69076549
     4)   O                  22.34732704
     5)   C                  14.75148565
     6)   H                   1.06102408
     7)   H                   1.07009241
     8)   H                   1.07742616
     9)   C                  14.75318150
    10)   C                  14.74850125
    11)   H                   1.07691157
    12)   H                   1.07645875
    13)   H                   1.07381952
    14)   H                   1.07389157
    15)   H                   1.06956336
    16)   C                  14.73491535
    17)   C                  14.75219211
    18)   C                  14.75456209
    19)   N                  18.36053478
    20)   C                  14.68938807
    21)   S                  59.66930167
    22)   N                  18.36142047
    23)   C                  14.74481391
    24)   H                   1.01975641
    25)   C                  14.75692403
    26)   H                   1.02070063
    27)   H                   1.10706226
    28)   H                   1.11745969
    29)   H                   1.10642488
    30)   H                   1.10236028
    31)   H                   1.11866101
    32)   C                  14.76535112
    33)   C                  14.77462836
    34)   C                  14.77429867
    35)   C                  14.77469129
    36)   C                  14.77486557
    37)   C                  14.77907389
    38)   H                   1.09336527
    39)   H                   1.09416265
    40)   H                   1.09406310
    41)   H                   1.09454674
    42)   C                  14.75753374
    43)   C                  14.79691229
    44)   H                   1.12253471
    45)   H                   1.12265598
    46)   H                   1.12406845
    47)   C                  14.80435865
    48)   H                   1.13188443
    49)   H                   1.12901160
    50)   H                   1.13237226
    51)   C                  14.79439676
    52)   H                   1.11942022
    53)   H                   1.11999654
    54)   H                   1.12149326
 Mulliken charges used for AMS results%charges...


    =====================
     CALCULATION RESULTS
    =====================

Energy (hartree)           -11.46054497

Gradients (hartree/bohr)
  Index   Atom            d/dx            d/dy            d/dz
      1      C    0.0000688407    0.0000941533   -0.0000107515
      2      C   -0.0001384127    0.0000559983   -0.0001159985
      3      C   -0.0003180994   -0.0000830269    0.0003763942
      4      O   -0.0004453130    0.0002916320   -0.0000822319
      5      C   -0.0000304745    0.0001313756    0.0001395403
      6      H   -0.0000708899    0.0001471369   -0.0000283192
      7      H   -0.0001016470    0.0000932772    0.0000437116
      8      H    0.0002948730    0.0001025500   -0.0003684240
      9      C    0.0000007879    0.0001803192    0.0001537438
     10      C   -0.0000155992    0.0001298843    0.0000843664
     11      H   -0.0000073887    0.0000531399    0.0000773987
     12      H    0.0000220355    0.0000605760    0.0001234888
     13      H    0.0000004393    0.0001415052    0.0002083587
     14      H   -0.0000393304    0.0002008196    0.0001617479
     15      H   -0.0000590978    0.0001950934    0.0000719036
     16      C   -0.0000452011    0.0001478123    0.0000313067
     17      C   -0.0000207426    0.0000817272    0.0000675229
     18      C    0.0000126082    0.0000978068    0.0001268946
     19      N   -0.0001345293   -0.0000780576   -0.0001112281
     20      C    0.0001525304   -0.0001966229   -0.0000895872
     21      S    0.0000324791   -0.0001265830   -0.0000115515
     22      N    0.0000997998   -0.0001114005   -0.0001059675
     23      C    0.0000653308   -0.0000659147   -0.0000841416
     24      H    0.0002914953   -0.0000418549   -0.0002588772
     25      C   -0.0000107890   -0.0000790784    0.0000028663
     26      H   -0.0000150481   -0.0001153634   -0.0001252278
     27      H    0.0000567200   -0.0000616986   -0.0001101479
     28      H    0.0000267449   -0.0001112244   -0.0000701146
     29      H   -0.0000259222   -0.0001382529   -0.0000610927
     30      H    0.0000422314   -0.0000855304    0.0000188787
     31      H    0.0000464351   -0.0001354960   -0.0000379661
     32      C    0.0000048014   -0.0001030969   -0.0000788764
     33      C    0.0000298786    0.0000111155   -0.0000500480
     34      C   -0.0000275342    0.0000304904   -0.0000226505
     35      C   -0.0000043691    0.0000090185    0.0000219538
     36      C    0.0000223374   -0.0000293396    0.0000396062
     37      C   -0.0000426579   -0.0000622565   -0.0000309339
     38      H   -0.0000339421   -0.0000165748   -0.0001193506
     39      H   -0.0000382967    0.0000503879   -0.0000629911
     40      H   -0.0000104646    0.0000462553    0.0000394841
     41      H    0.0000386359   -0.0000216778    0.0000846989
     42      C    0.0000211378   -0.0001039634   -0.0000022795
     43      C    0.0000367508   -0.0000973294   -0.0000131400
     44      H    0.0000324876   -0.0000897891    0.0000284959
     45      H    0.0000442015   -0.0001017821   -0.0000134218
     46      H    0.0000570746   -0.0001106233    0.0000189906
     47      C    0.0000480123   -0.0000182085    0.0000631048
     48      H    0.0000773076   -0.0000919774    0.0000613253
     49      H    0.0000344172   -0.0000304700    0.0001074041
     50      H    0.0000166723   -0.0000360141    0.0000319897
     51      C   -0.0000113652   -0.0000086095   -0.0000372271
     52      H   -0.0000262722   -0.0000212685   -0.0000601800
     53      H    0.0000091511    0.0000248821   -0.0000049428
     54      H   -0.0000128304   -0.0000038714   -0.0000175075


--------------
Atomic charges
--------------
  Index   Atom    Charge
      1      C    0.0954
      2      C   -0.1597
      3      C    0.5928
      4      O   -0.6061
      5      C    0.0362
      6      H    0.0058
      7      H    0.0885
      8      H   -0.0652
      9      C    0.0428
     10      C    0.0809
     11      H    0.0795
     12      H   -0.0133
     13      H   -0.0175
     14      H   -0.0190
     15      H   -0.0154
     16      C   -0.1741
     17      C    0.0252
     18      C    0.0442
     19      N   -0.3989
     20      C    0.2922
     21      S   -0.3242
     22      N   -0.3942
     23      C    0.2309
     24      H    0.1834
     25      C    0.2715
     26      H    0.1629
     27      H    0.0464
     28      H    0.0020
     29      H    0.0090
     30      H    0.0187
     31      H    0.0511
     32      C   -0.1981
     33      C    0.0607
     34      C    0.0335
     35      C    0.0145
     36      C    0.0141
     37      C    0.0629
     38      H   -0.0230
     39      H   -0.0270
     40      H   -0.0270
     41      H   -0.0281
     42      C   -0.4764
     43      C    0.2250
     44      H   -0.0302
     45      H   -0.0366
     46      H   -0.0311
     47      C    0.2180
     48      H   -0.0246
     49      H   -0.0371
     50      H    0.0053
     51      C    0.1855
     52      H   -0.0416
     53      H   -0.0289
     54      H    0.0185


Dipole moment vector    (Debye):    -3.40012711    0.85666711   -6.46029115
              magnitude (Debye):     7.35051730


AMS application finished. Exiting.
NORMAL TERMINATION
     Total cpu time:    6943.39
  Total system time:     214.50
 Total elapsed time:    8584.85
