

 Parallel Execution: Process Information
 ==============================================================================
 Rank   Node Name                              NodeID   MyNodeRank  NodeMaster
    0   DESKTOP-1M8FOJT                           0          0          0
    1   DESKTOP-1M8FOJT                           0          1         -1
    2   DESKTOP-1M8FOJT                           0          2         -1
    3   DESKTOP-1M8FOJT                           0          3         -1
 ==============================================================================


May use up to 4096MB of RAM as shared memory on node 0

 *******************************************************************************
 *                                                                             *
 *  --------------------------------                                           *
 *   Amsterdam Modeling Suite (AMS)              2022.101                      *
 *  --------------------------------                                           *
 *                                               r100871 2022-01-28            *
 *                                                                             *
 *                                                                             *
 *                              =================                              *
 *                              |               |                              *
 *                              |     A M S     |                              *
 *                              |               |                              *
 *                              =================                              *
 *                                                                             *
 *                                                                             *
 *   Online information and documentation:  https://www.scm.com/support/       *
 *   E-mail:  support@scm.com   info@scm.com                                   *
 *                                                                             *
 *   Scientific publications using AMS results must be properly referenced     *
 *   See the User Manuals (or the web site) for recommended citations          *
 *   The terms and conditions of the End User License Agreement apply to       *
 *   the use of AMS, https://www.scm.com/license-terms/                        *
 *                                                                             *
 *********************  x86_64_windows_intel / intelmpi  ***********************
 
 Licensed to: Mr. Yuman Hordijk / SCM / Amsterdam / Netherlands 2022-01-24 11:07:43
 SCM User ID: u24430
  
 AMS 2022.101  RunTime: Jan31-2022 22:07:08  ShM Nodes: 1  Procs: 4

 AMS jobname: ams
 AMS jobid  : 1844102717

 Start   directory: D:/Users/Yuman/Desktop/MasterProject/manual_calculations/urea/tmp..13696.0.noindex/
 Results directory: D:/Users/Yuman/Desktop/MasterProject/manual_calculations/urea/urea_complex_O.results/
 Scratch directory: Z:/SCMTMP/amstmp_ams_kid0.1844102717/


 Communication costs MPI_COMM_WORLD:      1.330 usec per message,   0.0036 usec per 8-byte item
 Communication costs for intra-node:      1.277 usec per message,   0.0035 usec per 8-byte item

 RNG seed: -1232308065 -1482577816 -12410880 -243921244 -1935406180 1467777384 287063840 -1775680548



                      ************************************************************************
                      *  ADF 2022.101  RunTime: Jan31-2022 22:07:08  ShM Nodes: 1  Procs: 4  *
                      ************************************************************************
  
       ***************************
       *  GEOMETRY OPTIMIZATION  *
       ***************************

Optimization Method                    Quasi Newton
Optimization Coordinates               Delocalized Coordinates
Optimize lattice                       F
 
 ------------------------------------------------------
 Convergence criteria (Hartree,Angstrom)
 ------------------------------------------------------
 Maximum gradient               0.001000000000
 Maximum rms gradient           0.000666666667
 Maximum step allowed           0.010000000000
 Maximum rms step allowed       0.006666666667
 Maximum energy change allowe   0.000600000000
 Maximum stress energy allowe   0.000500000000
 
Initial model Hessian                  Automatic Hessian
 
------------------------------------
Quasi-Newton Optimizer Parameters
------------------------------------
Hessian Update Method                  BFGS
Maximum number of steps                  360
First GDIIS cycle                          0
Maximum GDIIS vectors                      0
Trust radius (bohr)                        0.200000
Trust radius varies                        T
Constraints converged at all steps         T
Use projector                              T
 
 Rigid motions settings for: old optimizer
 Atomic rotations (x,y,z):     T T T
 Atomic translations (x,y,z):  T T T
 Tolerance:                   1.000000000000000E-006
 
--------
Geometry
--------
Formula: C24H32N2O2
Atoms
  Index Symbol   x (angstrom)   y (angstrom)   z (angstrom)
      1      C    -0.92829553    -0.21630463     2.99703058
      2      C    -0.13126832    -0.79669127     2.07051812
      3      C     0.03664523    -2.24003900     2.00447406
      4      O     0.63367207    -2.83320245     1.10529647
      5      C    -1.93197775     3.91471196     3.37054963
      6      H    -1.43970898    -0.86864479     3.70647478
      7      H     0.37184864    -0.21462222     1.30514429
      8      H    -0.42671909    -2.81593168     2.83460091
      9      C    -2.70705794     2.93722111     3.99056049
     10      C    -2.35535454     1.59709916     3.87910683
     11      H     0.44767747     1.94393803     1.97608888
     12      H    -0.18331506     4.30330616     2.17339348
     13      H    -2.20267880     4.96354451     3.45857657
     14      H    -3.58587088     3.22115537     4.56267319
     15      H    -2.96733386     0.84107504     4.36377285
     16      C    -1.23188946     1.20404723     3.12775967
     17      C    -0.45066137     2.20584142     2.52124304
     18      C    -0.79991344     3.54287108     2.64421422
     19      N     1.94224546    -1.11192812    -1.28016924
     20      C     0.98296118    -0.76432648    -2.19288376
     21      O     1.19471101    -0.05297520    -3.16115095
     22      N    -0.24564767    -1.29775137    -1.88573302
     23      C     3.30054028    -0.59233622    -1.22474868
     24      H     1.65748986    -1.68295378    -0.48842244
     25      C    -1.38332178    -1.37651923    -2.79230350
     26      H    -0.24389319    -1.98381091    -1.13948720
     27      H     3.52026905    -0.16569233    -2.20601313
     28      C    -1.60333468    -2.85257652    -3.17236823
     29      C     4.25495829    -1.77866642    -0.99386571
     30      H     2.70927203     2.06115030    -1.31525012
     31      H    -1.09873032    -0.83784937    -3.69859106
     32      C     3.49877743     0.44583103    -0.13541260
     33      C     4.04058814     0.09706362     1.10564811
     34      C     4.21325249     1.05394197     2.10528971
     35      C     3.85486308     2.37909374     1.87204226
     36      C     3.31649405     2.73839733     0.63726766
     37      C     3.13457546     1.78028396    -0.35631931
     38      H     4.33252249    -0.93320091     1.29718462
     39      H     4.63441545     0.76503678     3.06491672
     40      H     3.99850626     3.12797125     2.64635987
     41      H     3.04578455     3.77345165     0.44250336
     42      C    -2.70912915    -0.79743743    -2.22980995
     43      C    -3.78498858    -1.00850439    -3.31024411
     44      H    -4.74752955    -0.60638751    -2.97730453
     45      H    -3.92643440    -2.07299346    -3.52970688
     46      H    -3.51483313    -0.50339754    -4.24368320
     47      C    -2.55144978     0.70391163    -1.93772542
     48      H    -2.27276476     1.25323870    -2.84175522
     49      H    -3.48997638     1.12134634    -1.55705700
     50      H    -1.77397715     0.87968713    -1.18980047
     51      C    -3.13650577    -1.53480426    -0.94672088
     52      H    -3.22182199    -2.61491170    -1.11444792
     53      H    -4.11468149    -1.17446697    -0.60867098
     54      H    -2.43091336    -1.36543262    -0.12972208
     55      H    -0.78199553    -3.44658048    -2.79959310
     56      H    -2.52753700    -3.20257703    -2.73676552
     57      H    -1.65476626    -2.94372911    -4.24728497
     58      H     5.17011645    -1.42228866    -0.54455465
     59      H     3.78602153    -2.49517356    -0.33575035
     60      H     4.47806899    -2.25050886    -1.93937422
 
Total System Charge             0.00000
Bonding info available!
 
 
----------------
ADF Engine Input
----------------
 
 Basis
 Type TZ2P
 Core None
 End
 XC
 GGA OLYP
 End
 

 Title: *** (NO TITLE) ***

 Using automatic Hessian for delocalized coordinates.
 *** GO1_GOStep1 ***

 Energy gradients wrt nuclear displacements
 ==========================================

     Atom      Cartesian (a.u./angstrom)
                 X         Y         Z
 ----------------------------------------
     1 C     0.000855 -0.002304 -0.001283
     2 C    -0.001386  0.002076 -0.000223
     3 C    -0.003235  0.000393  0.003854
     4 O    -0.000440  0.002040 -0.002072
     5 C     0.000864 -0.001876 -0.000467
     6 H     0.000618  0.001544 -0.000302
     7 H     0.000327  0.000157 -0.000289
     8 H     0.001860  0.001580 -0.001434
     9 C     0.001842 -0.000051 -0.001264
    10 C     0.000743 -0.000042 -0.000865
    11 H    -0.000341  0.000674  0.001109
    12 H    -0.000801 -0.001005  0.000224
    13 H     0.000431 -0.000974 -0.000466
    14 H     0.001182  0.000005 -0.001133
    15 H     0.000434  0.001635 -0.000888
    16 C    -0.000315  0.003098 -0.001059
    17 C    -0.000394 -0.001098 -0.000693
    18 C    -0.001269 -0.001126  0.000638
    19 N    -0.006604  0.008464 -0.020078
    20 C     0.003298  0.000565 -0.003330
    21 O    -0.006673 -0.025223  0.034618
    22 N     0.019201 -0.000747 -0.020970
    23 C    -0.010849  0.022635  0.000746
    24 H    -0.003080 -0.004284  0.005344
    25 C    -0.011195  0.021414  0.003076
    26 H     0.002249 -0.004676  0.004978
    27 H     0.005075 -0.007819 -0.002557
    28 C    -0.005982 -0.007699  0.004407
    29 C     0.006800 -0.014069  0.014641
    30 H     0.000476 -0.001293  0.001492
    31 H    -0.000589 -0.008983 -0.005938
    32 C     0.005767 -0.012530 -0.000935
    33 C     0.002178 -0.002749 -0.007141
    34 C     0.000631  0.000520 -0.000164
    35 C    -0.000565 -0.001828 -0.001950
    36 C     0.000535 -0.003175  0.000827
    37 C    -0.001031  0.001955 -0.001823
    38 H     0.001524 -0.006332 -0.004446
    39 H    -0.000668  0.000541 -0.001417
    40 H    -0.000310 -0.001250 -0.001040
    41 H     0.000493 -0.001371 -0.000182
    42 C     0.000008 -0.012494 -0.001962
    43 C     0.007909 -0.002210  0.000540
    44 H     0.000385 -0.000856  0.000560
    45 H     0.005442 -0.008695  0.001100
    46 H     0.000672 -0.000249  0.000411
    47 C     0.002344 -0.000042 -0.001719
    48 H     0.000445 -0.001122  0.000299
    49 H    -0.000332 -0.001716  0.000129
    50 H     0.000109 -0.000578 -0.000376
    51 C     0.003647 -0.001711 -0.003705
    52 H     0.002855 -0.005273 -0.007762
    53 H    -0.000479  0.000571  0.000311
    54 H     0.000177  0.000696  0.000158
    55 H    -0.008666  0.014285  0.001120
    56 H     0.001642  0.019105  0.002754
    57 H     0.001935  0.011487  0.014674
    58 H    -0.016889  0.003869  0.000832
    59 H    -0.000649  0.015158 -0.010062
    60 H    -0.002213  0.012984  0.011150
 ----------------------------------------
 Mulliken charges used for AMS results%charges...
 
----------------------------------------------------------------------
Geometry Convergence after Step   1       (Hartree/Angstrom,Angstrom)
----------------------------------------------------------------------
current energy                              -12.87421876 Hartree
energy change                     -12.87421876     0.00060000    F
constrained gradient max            0.03458579     0.00100000    F
constrained gradient rms            0.00675240     0.00066667    F
gradient max                        0.03458579
gradient rms                        0.00675240
cart. step max                      0.21123061     0.01000000    F
cart. step rms                      0.06321794     0.00666667    F
 
 
--------
Geometry
--------
Formula: C24H32N2O2
Atoms
  Index Symbol   x (angstrom)   y (angstrom)   z (angstrom)
      1      C    -0.94672058    -0.22921853     3.02383565
      2      C    -0.14418163    -0.79495457     2.08995610
      3      C     0.02691912    -2.23848452     2.01437386
      4      O     0.62304939    -2.84126951     1.11972013
      5      C    -2.00875048     3.88399655     3.47699250
      6      H    -1.45205278    -0.89723188     3.72363115
      7      H     0.35695399    -0.20379579     1.33046744
      8      H    -0.44054597    -2.81383693     2.84376923
      9      C    -2.76843729     2.88247732     4.07940046
     10      C    -2.39639510     1.54937488     3.94110600
     11      H     0.39811441     1.97439150     2.03966677
     12      H    -0.26712366     4.32130810     2.28425073
     13      H    -2.29493766     4.92718942     3.58576394
     14      H    -3.65071464     3.14199387     4.65865141
     15      H    -2.99631074     0.77475281     4.41238737
     16      C    -1.26794721     1.18597493     3.18016029
     17      C    -0.50289841     2.21235913     2.59198991
     18      C    -0.87182480     3.54254543     2.74145863
     19      N     1.96453334    -1.16717610    -1.28173581
     20      C     1.00910568    -0.81570483    -2.20900392
     21      O     1.23324668    -0.11297456    -3.19580169
     22      N    -0.23122312    -1.33569820    -1.89420611
     23      C     3.33081801    -0.66218178    -1.23225337
     24      H     1.66912410    -1.72354027    -0.48528305
     25      C    -1.36570316    -1.41211189    -2.80780183
     26      H    -0.23872999    -2.01093850    -1.14024574
     27      H     3.55282206    -0.24889791    -2.21855669
     28      C    -1.58490462    -2.89999023    -3.19435344
     29      C     4.27803688    -1.86290418    -1.00349753
     30      H     2.72619134     1.96233602    -1.43846169
     31      H    -1.07432823    -0.88162683    -3.71658576
     32      C     3.50705339     0.41560179    -0.16487739
     33      C     4.02319869     0.14430005     1.10968059
     34      C     4.16002395     1.15608059     2.06123296
     35      C     3.79261048     2.46340171     1.75204471
     36      C     3.27919938     2.74863149     0.48775273
     37      C     3.13270527     1.73502413    -0.45680447
     38      H     4.32278620    -0.86656210     1.37025879
     39      H     4.56126324     0.92280198     3.04483578
     40      H     3.90908881     3.25408565     2.48919290
     41      H     3.00006042     3.76833111     0.23127275
     42      C    -2.66475596    -0.76021096    -2.23078422
     43      C    -3.77839249    -0.91401852    -3.28699927
     44      H    -4.70452315    -0.44644233    -2.93634413
     45      H    -4.00025804    -1.96410177    -3.49724268
     46      H    -3.49835405    -0.43446510    -4.23105143
     47      C    -2.41780710     0.73528283    -1.96648995
     48      H    -2.12515036     1.25411907    -2.88431338
     49      H    -3.32340523     1.21314515    -1.57702928
     50      H    -1.61825968     0.87925154    -1.23510992
     51      C    -3.11444447    -1.44427053    -0.92289576
     52      H    -3.27049503    -2.51973942    -1.05217657
     53      H    -4.06294349    -1.01656717    -0.57954221
     54      H    -2.38653181    -1.29755884    -0.12138448
     55      H    -0.76159867    -3.50058122    -2.82341320
     56      H    -2.50672733    -3.27706902    -2.77129984
     57      H    -1.63154043    -3.00024060    -4.27363069
     58      H     5.21122739    -1.52597378    -0.56675532
     59      H     3.81391148    -2.58162644    -0.33602244
     60      H     4.48687364    -2.34679222    -1.95189954
 
Total System Charge             0.00000
Bonding info available!
 
 *** GO1_GOStep2 ***

 Energy gradients wrt nuclear displacements
 ==========================================

     Atom      Cartesian (a.u./angstrom)
                 X         Y         Z
 ----------------------------------------
     1 C    -0.000250 -0.001509 -0.000186
     2 C    -0.000836  0.000955 -0.000332
     3 C    -0.002268  0.004726  0.002051
     4 O     0.000527 -0.003097 -0.003034
     5 C     0.000267 -0.000707 -0.000264
     6 H     0.000425  0.001234 -0.000023
     7 H     0.000108 -0.000493 -0.000151
     8 H     0.001642  0.001024 -0.001131
     9 C     0.000939  0.000378 -0.000600
    10 C     0.000326 -0.000114 -0.000565
    11 H    -0.000709  0.000770  0.001421
    12 H    -0.000524 -0.000524 -0.000006
    13 H     0.000245 -0.000397 -0.000414
    14 H     0.000636  0.000296 -0.000778
    15 H     0.000131  0.001150 -0.000591
    16 C    -0.000319  0.002471 -0.000584
    17 C     0.000224 -0.000827 -0.000969
    18 C    -0.000529 -0.000375  0.000036
    19 N    -0.001354  0.002731 -0.005792
    20 C    -0.000746 -0.006437  0.008520
    21 O    -0.000757 -0.003926  0.005681
    22 N     0.007169 -0.006481 -0.010040
    23 C    -0.009053  0.021623 -0.004824
    24 H    -0.002228 -0.003245  0.003697
    25 C    -0.007010  0.021177 -0.001129
    26 H     0.001650 -0.002898  0.003565
    27 H     0.005057 -0.007709 -0.002456
    28 C    -0.000510 -0.012398  0.002144
    29 C     0.006644 -0.014653  0.007224
    30 H     0.000069 -0.001249  0.000573
    31 H    -0.001670 -0.008259 -0.005829
    32 C     0.001556 -0.010703  0.000195
    33 C     0.002951 -0.000744 -0.000262
    34 C     0.000594  0.001093  0.000552
    35 C    -0.000417 -0.000756 -0.001991
    36 C     0.001174 -0.001495  0.001542
    37 C    -0.001056  0.000445 -0.000583
    38 H     0.000108 -0.001305 -0.001872
    39 H    -0.000444  0.000754 -0.000650
    40 H    -0.000329 -0.000705 -0.000675
    41 H     0.000486 -0.000665 -0.000012
    42 C     0.001069 -0.003277  0.003189
    43 C     0.003124 -0.003011 -0.000550
    44 H     0.000101 -0.000801  0.000604
    45 H     0.002370 -0.002775  0.000273
    46 H     0.000522 -0.000377  0.000193
    47 C     0.000536 -0.000776 -0.001396
    48 H     0.000412 -0.000966 -0.000082
    49 H    -0.000076 -0.000745  0.000246
    50 H     0.000456 -0.000607  0.000030
    51 C     0.000731 -0.002538 -0.001098
    52 H     0.001376 -0.001718 -0.003028
    53 H    -0.000351  0.000133  0.000180
    54 H     0.000308  0.000398  0.000159
    55 H    -0.005595  0.008525  0.001450
    56 H     0.005108  0.012458 -0.000379
    57 H     0.001549  0.007133  0.009222
    58 H    -0.012052  0.001829  0.000174
    59 H    -0.001318  0.009379 -0.007077
    60 H    -0.000188  0.008577  0.006432
 ----------------------------------------
 Mulliken charges used for AMS results%charges...

 dE(predicted):    -0.10944E-01, dE(actual):    -0.78824E-02, Trust radius:    0.200000, all in a.u.
 
----------------------------------------------------------------------
Geometry Convergence after Step   2       (Hartree/Angstrom,Angstrom)
----------------------------------------------------------------------
current energy                              -12.88210112 Hartree
energy change                      -0.00788236     0.00060000    F
constrained gradient max            0.02177948     0.00100000    F
constrained gradient rms            0.00430124     0.00066667    F
gradient max                        0.02177948
gradient rms                        0.00430124
cart. step max                      0.15828462     0.01000000    F
cart. step rms                      0.05477656     0.00666667    F
 
 
--------
Geometry
--------
Formula: C24H32N2O2
Atoms
  Index Symbol   x (angstrom)   y (angstrom)   z (angstrom)
      1      C    -0.94789973    -0.24066228     3.07764338
      2      C    -0.14722216    -0.79706620     2.13536050
      3      C     0.02789689    -2.24066457     2.05363064
      4      O     0.62203222    -2.84377989     1.15943489
      5      C    -2.05790767     3.85961579     3.56061312
      6      H    -1.44196688    -0.91817222     3.77723566
      7      H     0.34670727    -0.19846682     1.37675102
      8      H    -0.43875423    -2.81742822     2.88452557
      9      C    -2.79600936     2.84506513     4.17036748
     10      C    -2.40694874     1.51701172     4.02281347
     11      H     0.35316621     1.98517029     2.07826133
     12      H    -0.33838696     4.32443835     2.34391896
     13      H    -2.35728881     4.89883903     3.67621345
     14      H    -3.67423817     3.09027543     4.76281787
     15      H    -2.98938287     0.73213757     4.50030550
     16      C    -1.28368882     1.17034124     3.24474742
     17      C    -0.54108463     2.21023209     2.64893810
     18      C    -0.92582977     3.53580029     2.80808738
     19      N     1.98069607    -1.21816448    -1.26723817
     20      C     1.02385680    -0.87365599    -2.20502603
     21      O     1.25181863    -0.18892977    -3.20453295
     22      N    -0.22449275    -1.38337786    -1.88051819
     23      C     3.35139548    -0.71582156    -1.23279751
     24      H     1.68238473    -1.75865311    -0.46349636
     25      C    -1.35128746    -1.46379275    -2.80807137
     26      H    -0.23756167    -2.04622868    -1.11806690
     27      H     3.54681221    -0.30727151    -2.22626889
     28      C    -1.61249074    -2.94986285    -3.21922443
     29      C     4.32757327    -1.89885015    -1.00519814
     30      H     2.70275452     1.89891255    -1.52678411
     31      H    -1.03324219    -0.92745306    -3.70391789
     32      C     3.50485244     0.40637956    -0.19858178
     33      C     4.01412187     0.18865046     1.08884724
     34      C     4.11923228     1.23304315     2.00864821
     35      C     3.72593697     2.52286762     1.65670001
     36      C     3.21782063     2.75629122     0.37814291
     37      C     3.10508959     1.70914936    -0.53496420
     38      H     4.33315476    -0.80513722     1.38907012
     39      H     4.51664694     1.03757839     3.00261208
     40      H     3.81882909     3.33902875     2.36997330
     41      H     2.91708623     3.76063221     0.08603022
     42      C    -2.62808513    -0.73546237    -2.24924380
     43      C    -3.74637451    -0.82248895    -3.31132528
     44      H    -4.63965917    -0.28924990    -2.96909425
     45      H    -4.04293764    -1.85384461    -3.51801230
     46      H    -3.43132714    -0.36880090    -4.25724696
     47      C    -2.29650535     0.74798819    -1.99936499
     48      H    -1.96686574     1.24011554    -2.91959147
     49      H    -3.17652140     1.28261562    -1.62529880
     50      H    -1.49747393     0.85690837    -1.26182579
     51      C    -3.13328533    -1.36840823    -0.93479357
     52      H    -3.36036677    -2.43297861    -1.03976286
     53      H    -4.05494103    -0.87315779    -0.61044926
     54      H    -2.40602775    -1.25385673    -0.12782420
     55      H    -0.80703751    -3.58825363    -2.85601288
     56      H    -2.54821406    -3.33519211    -2.81738389
     57      H    -1.65306699    -3.04997603    -4.30511711
     58      H     5.28195126    -1.55077848    -0.60816793
     59      H     3.90847130    -2.62428305    -0.30510939
     60      H     4.51408541    -2.40891729    -1.95137819
 
Total System Charge             0.00000
Bonding info available!
 
 *** GO1_GOStep3 ***

 Energy gradients wrt nuclear displacements
 ==========================================

     Atom      Cartesian (a.u./angstrom)
                 X         Y         Z
 ----------------------------------------
     1 C    -0.000246 -0.000646  0.000161
     2 C    -0.000321  0.000172 -0.000571
     3 C    -0.000398  0.004738 -0.001381
     4 O    -0.000499 -0.003127 -0.001119
     5 C     0.000023  0.000382 -0.000258
     6 H     0.000294  0.000625  0.000292
     7 H     0.000031 -0.000139  0.000084
     8 H     0.001095  0.000358 -0.000268
     9 C    -0.000058  0.000363 -0.000180
    10 C    -0.000176 -0.000003 -0.000317
    11 H     0.000019  0.000325  0.000546
    12 H    -0.000036  0.000068 -0.000364
    13 H     0.000074  0.000187 -0.000389
    14 H     0.000084  0.000403 -0.000405
    15 H    -0.000184  0.000555 -0.000299
    16 C    -0.000264  0.000955 -0.000412
    17 C     0.000455 -0.000434 -0.000616
    18 C     0.000033  0.000333 -0.000268
    19 N    -0.001005  0.002599  0.001506
    20 C    -0.002359 -0.000589  0.004817
    21 O    -0.000065 -0.001272  0.000889
    22 N     0.003779 -0.001494 -0.001647
    23 C    -0.005572  0.011432 -0.004770
    24 H    -0.001066 -0.001743  0.001189
    25 C    -0.001053  0.012880 -0.001010
    26 H     0.001404 -0.000595  0.001339
    27 H     0.002132 -0.005463 -0.001066
    28 C    -0.001974 -0.010008 -0.001517
    29 C     0.006130 -0.008667  0.003969
    30 H    -0.000166 -0.000624  0.000121
    31 H    -0.001499 -0.004343 -0.002611
    32 C    -0.001062 -0.005222  0.000149
    33 C     0.002653 -0.000339  0.000210
    34 C     0.000155 -0.000019 -0.000332
    35 C     0.000147 -0.000016 -0.000594
    36 C     0.000097  0.000391  0.000379
    37 C    -0.000861  0.000935  0.000294
    38 H    -0.000091 -0.000167 -0.000618
    39 H    -0.000147  0.000287 -0.000182
    40 H    -0.000092 -0.000041 -0.000194
    41 H     0.000287 -0.000033 -0.000141
    42 C     0.002636  0.000462  0.004270
    43 C     0.000264 -0.002127 -0.000536
    44 H    -0.000112 -0.000725  0.000150
    45 H     0.001123 -0.000512 -0.000080
    46 H     0.000203 -0.000248  0.000075
    47 C    -0.000031 -0.000629 -0.000839
    48 H     0.000252 -0.000490 -0.000164
    49 H     0.000257 -0.000064  0.000151
    50 H     0.000521 -0.000417  0.000018
    51 C    -0.000679 -0.002368  0.000314
    52 H     0.000460  0.000281 -0.000283
    53 H    -0.000069 -0.000188 -0.000215
    54 H    -0.000221  0.000273 -0.000326
    55 H    -0.002660  0.002573  0.001266
    56 H     0.001221  0.003832 -0.001415
    57 H     0.000569  0.001476  0.002368
    58 H    -0.003699  0.000019  0.002399
    59 H    -0.001469  0.002151 -0.002881
    60 H     0.001738  0.003697  0.001310
 ----------------------------------------
 Mulliken charges used for AMS results%charges...

 dE(predicted):    -0.34732E-02, dE(actual):    -0.41106E-02, Trust radius:    0.400000, all in a.u.
 
----------------------------------------------------------------------
Geometry Convergence after Step   3       (Hartree/Angstrom,Angstrom)
----------------------------------------------------------------------
current energy                              -12.88621168 Hartree
energy change                      -0.00411057     0.00060000    F
constrained gradient max            0.01305021     0.00100000    F
constrained gradient rms            0.00227962     0.00066667    F
gradient max                        0.01305021
gradient rms                        0.00227962
cart. step max                      0.21206785     0.01000000    F
cart. step rms                      0.05508205     0.00666667    F
 
 
--------
Geometry
--------
Formula: C24H32N2O2
Atoms
  Index Symbol   x (angstrom)   y (angstrom)   z (angstrom)
      1      C    -0.94960309    -0.23077294     3.15030681
      2      C    -0.16356159    -0.77463673     2.18846875
      3      C     0.01750933    -2.21715663     2.09261232
      4      O     0.61373071    -2.81011107     1.19331618
      5      C    -2.07816887     3.85612212     3.70336009
      6      H    -1.42312328    -0.91821074     3.85471056
      7      H     0.31821667    -0.16590073     1.42990140
      8      H    -0.44919001    -2.80250090     2.91851626
      9      C    -2.77721173     2.83094244     4.34094745
     10      C    -2.38175656     1.50769992     4.16866831
     11      H     0.27822945     2.01315740     2.09739276
     12      H    -0.42102864     4.34464982     2.41151387
     13      H    -2.38267611     4.89171921     3.83771996
     14      H    -3.62954670     3.06408116     4.97488572
     15      H    -2.93186721     0.71448684     4.67041150
     16      C    -1.29140393     1.17602309     3.33874214
     17      C    -0.58762920     2.22687755     2.71512791
     18      C    -0.97831642     3.54765633     2.89833710
     19      N     1.98297056    -1.23312916    -1.26183109
     20      C     1.02907738    -0.90238862    -2.20913857
     21      O     1.26202955    -0.23920154    -3.22063682
     22      N    -0.22631127    -1.39114103    -1.87111296
     23      C     3.35688212    -0.73758295    -1.24339308
     24      H     1.68251901    -1.75718811    -0.44893933
     25      C    -1.33661732    -1.49688318    -2.81522386
     26      H    -0.24570363    -2.04029794    -1.09752511
     27      H     3.53061435    -0.33001984    -2.24156698
     28      C    -1.58478777    -2.99369052    -3.19175427
     29      C     4.33159408    -1.92124528    -1.03009989
     30      H     2.78504463     1.88924029    -1.60487049
     31      H    -0.99318196    -0.97606276    -3.71098587
     32      C     3.52205547     0.40452293    -0.22966519
     33      C     3.98674219     0.19851587     1.07591714
     34      C     4.07942071     1.25464307     1.98355818
     35      C     3.71686230     2.54480690     1.60068286
     36      C     3.25378574     2.76609448     0.30241886
     37      C     3.15319366     1.70727132    -0.59829249
     38      H     4.27591735    -0.79610654     1.40361419
     39      H     4.44105357     1.06699719     2.99279367
     40      H     3.79989264     3.37041981     2.30444601
     41      H     2.97575568     3.76976519    -0.01374149
     42      C    -2.62399093    -0.73476362    -2.32037569
     43      C    -3.71608436    -0.83156836    -3.40897333
     44      H    -4.60256573    -0.26229226    -3.10963545
     45      H    -4.03716070    -1.86094824    -3.58795003
     46      H    -3.36528569    -0.41924635    -4.36129338
     47      C    -2.28132564     0.75324187    -2.10987561
     48      H    -1.91769420     1.21152899    -3.03481797
     49      H    -3.16744947     1.30881544    -1.78373826
     50      H    -1.50608657     0.88078998    -1.35071955
     51      C    -3.17507603    -1.31132737    -0.99901239
     52      H    -3.42177461    -2.37452216    -1.07253008
     53      H    -4.09429523    -0.78673178    -0.71642551
     54      H    -2.46686931    -1.18332121    -0.17701155
     55      H    -0.77091951    -3.61890224    -2.81700285
     56      H    -2.51609148    -3.38932020    -2.78133758
     57      H    -1.62333097    -3.12451252    -4.27656932
     58      H     5.31869283    -1.57386702    -0.71433650
     59      H     3.95801822    -2.61811593    -0.27355081
     60      H     4.44787751    -2.47640270    -1.96443668
 
Total System Charge             0.00000
Bonding info available!
 
 *** GO1_GOStep4 ***

 Energy gradients wrt nuclear displacements
 ==========================================

     Atom      Cartesian (a.u./angstrom)
                 X         Y         Z
 ----------------------------------------
     1 C    -0.000092 -0.000351  0.000076
     2 C    -0.000518  0.000295 -0.000543
     3 C     0.000053  0.004328 -0.001659
     4 O    -0.000168 -0.002964 -0.001167
     5 C    -0.000036  0.000437 -0.000429
     6 H     0.000491  0.000358  0.000548
     7 H     0.000030  0.000236  0.000693
     8 H     0.000375  0.000150  0.000150
     9 C    -0.000099  0.000329 -0.000362
    10 C    -0.000479  0.000268 -0.000604
    11 H     0.000222  0.000058 -0.000075
    12 H     0.000150  0.000178 -0.000333
    13 H     0.000012  0.000364 -0.000379
    14 H    -0.000070  0.000411 -0.000305
    15 H    -0.000169  0.000393  0.000004
    16 C    -0.000370  0.000725 -0.000515
    17 C     0.000621 -0.000194  0.000235
    18 C    -0.000001  0.000322 -0.000070
    19 N    -0.001069  0.002136  0.002214
    20 C    -0.001827 -0.000040 -0.000983
    21 O    -0.000373 -0.001268  0.002705
    22 N     0.003830 -0.003289 -0.001671
    23 C    -0.003806  0.006569 -0.001122
    24 H    -0.000539 -0.001390  0.000353
    25 C    -0.000208  0.009044  0.001482
    26 H     0.001007 -0.000238  0.000652
    27 H     0.000073 -0.003329 -0.000435
    28 C     0.000073 -0.006519 -0.000142
    29 C     0.003707 -0.005846  0.001767
    30 H     0.000039 -0.000309 -0.000013
    31 H    -0.001091 -0.001393 -0.000284
    32 C     0.001461 -0.000476 -0.000524
    33 C     0.001958  0.000310 -0.000505
    34 C    -0.000094 -0.000117 -0.000239
    35 C    -0.000066 -0.000055  0.000304
    36 C    -0.000073 -0.000089 -0.000397
    37 C    -0.001810  0.000845  0.000498
    38 H    -0.000494  0.000131  0.000211
    39 H    -0.000100  0.000079 -0.000036
    40 H     0.000094  0.000112 -0.000064
    41 H     0.000153 -0.000007 -0.000269
    42 C     0.001231  0.000203  0.001261
    43 C    -0.000928  0.000039 -0.000041
    44 H    -0.000281 -0.000413 -0.000143
    45 H     0.000512  0.000165 -0.000068
    46 H    -0.000019  0.000090  0.000022
    47 C    -0.000450 -0.000604 -0.000185
    48 H     0.000048 -0.000238 -0.000207
    49 H     0.000193  0.000105  0.000024
    50 H    -0.000121 -0.000185 -0.000401
    51 C     0.000131 -0.001063  0.000555
    52 H     0.000344  0.000207 -0.000074
    53 H     0.000029  0.000034 -0.000384
    54 H    -0.000744  0.000176 -0.000501
    55 H    -0.000938  0.000129  0.001639
    56 H    -0.000665  0.000866 -0.001025
    57 H     0.001013  0.000089  0.000279
    58 H    -0.001067 -0.000699  0.001997
    59 H    -0.001259 -0.000589 -0.001339
    60 H     0.002175  0.001481 -0.000176
 ----------------------------------------
 Mulliken charges used for AMS results%charges...

 dE(predicted):    -0.15522E-02, dE(actual):    -0.21052E-02, Trust radius:    0.400000, all in a.u.
 
----------------------------------------------------------------------
Geometry Convergence after Step   4       (Hartree/Angstrom,Angstrom)
----------------------------------------------------------------------
current energy                              -12.88831691 Hartree
energy change                      -0.00210523     0.00060000    F
constrained gradient max            0.00920588     0.00100000    F
constrained gradient rms            0.00146105     0.00066667    F
gradient max                        0.00920588
gradient rms                        0.00146105
cart. step max                      0.20975700     0.01000000    F
cart. step rms                      0.05018082     0.00666667    F
 
 
--------
Geometry
--------
Formula: C24H32N2O2
Atoms
  Index Symbol   x (angstrom)   y (angstrom)   z (angstrom)
      1      C    -0.96758088    -0.21890032     3.19558068
      2      C    -0.19820412    -0.75089444     2.21371440
      3      C     0.01014063    -2.19009231     2.11982976
      4      O     0.61068853    -2.77179490     1.21657684
      5      C    -2.18149929     3.83933188     3.78008795
      6      H    -1.39923108    -0.91336528     3.91979448
      7      H     0.25079076    -0.13634746     1.43953269
      8      H    -0.44182212    -2.78259213     2.94934030
      9      C    -2.80558747     2.80114938     4.47200299
     10      C    -2.38328511     1.48826865     4.28492214
     11      H     0.11743839     2.04910284     2.03714525
     12      H    -0.63078564     4.36205486     2.37464701
     13      H    -2.50768089     4.86693437     3.92472230
     14      H    -3.62060537     3.01605107     5.15928317
     15      H    -2.87469521     0.68462040     4.82918221
     16      C    -1.33909462     1.17951022     3.38940049
     17      C    -0.71062453     2.24402856     2.71059188
     18      C    -1.12928215     3.55443789     2.90574431
     19      N     1.98773296    -1.23605977    -1.26280385
     20      C     1.03530571    -0.90753990    -2.21274920
     21      O     1.27335610    -0.26634343    -3.23758756
     22      N    -0.22472036    -1.38207725    -1.86550418
     23      C     3.36751256    -0.75694733    -1.25787818
     24      H     1.68419089    -1.74657427    -0.44295240
     25      C    -1.32649012    -1.50685559    -2.81668932
     26      H    -0.24732545    -2.02205201    -1.08441618
     27      H     3.53236991    -0.35154121    -2.25886692
     28      C    -1.57448028    -3.00568108    -3.17450929
     29      C     4.32881451    -1.94749873    -1.05114845
     30      H     2.89759142     1.88583939    -1.65818025
     31      H    -0.97413662    -0.99473462    -3.71442377
     32      C     3.55621476     0.39102803    -0.25418669
     33      C     3.99322482     0.18257901     1.06031852
     34      C     4.11167476     1.24486061     1.95779858
     35      C     3.80170253     2.54278564     1.55514503
     36      C     3.36643613     2.76569457     0.24745461
     37      C     3.24168289     1.70128949    -0.64352368
     38      H     4.24640706    -0.81759919     1.40162141
     39      H     4.45296432     1.05575147     2.97393446
     40      H     3.90392631     3.37300947     2.25092019
     41      H     3.12911643     3.77495302    -0.08370563
     42      C    -2.61282065    -0.72520097    -2.34784118
     43      C    -3.69727517    -0.83720747    -3.44216324
     44      H    -4.57656474    -0.24578176    -3.16556387
     45      H    -4.03368515    -1.86630072    -3.59471921
     46      H    -3.33329074    -0.45707515    -4.40289862
     47      C    -2.25706809     0.76471290    -2.16988922
     48      H    -1.88130786     1.19812671    -3.10195025
     49      H    -3.14163512     1.33511521    -1.86591213
     50      H    -1.48794971     0.90449735    -1.40658314
     51      C    -3.17667051    -1.26159210    -1.01519556
     52      H    -3.43770463    -2.32313147    -1.06286521
     53      H    -4.08978044    -0.71819747    -0.74848503
     54      H    -2.46925475    -1.12309161    -0.19357800
     55      H    -0.74984665    -3.62508212    -2.81074666
     56      H    -2.49565468    -3.40690614    -2.74357526
     57      H    -1.63140437    -3.14964726    -4.25770401
     58      H     5.33774838    -1.60861746    -0.79704281
     59      H     3.98432139    -2.61444814    -0.25335654
     60      H     4.38769242    -2.53796190    -1.97009619
 
Total System Charge             0.00000
Bonding info available!
 
 *** GO1_GOStep5 ***

 Energy gradients wrt nuclear displacements
 ==========================================

     Atom      Cartesian (a.u./angstrom)
                 X         Y         Z
 ----------------------------------------
     1 C     0.000180 -0.000300  0.000195
     2 C    -0.000233  0.000036 -0.000599
     3 C     0.000268  0.003470 -0.001617
     4 O    -0.000088 -0.001989 -0.000905
     5 C     0.000236  0.000541 -0.000498
     6 H     0.000752  0.000258  0.000712
     7 H    -0.000135  0.000433  0.000688
     8 H    -0.000393  0.000031  0.000223
     9 C    -0.000213  0.000174 -0.000394
    10 C    -0.000408  0.000311 -0.000612
    11 H    -0.000167  0.000010  0.000086
    12 H     0.000060  0.000228 -0.000371
    13 H    -0.000047  0.000396 -0.000370
    14 H    -0.000089  0.000418 -0.000224
    15 H    -0.000042  0.000334  0.000087
    16 C    -0.000952  0.000761 -0.000707
    17 C     0.000948 -0.000083  0.000385
    18 C    -0.000526  0.000298 -0.000037
    19 N    -0.000708  0.000829  0.002480
    20 C    -0.002315  0.003098 -0.000393
    21 O     0.000123 -0.001270  0.000633
    22 N     0.002860 -0.003084 -0.001217
    23 C    -0.001951  0.003069  0.000070
    24 H    -0.000288 -0.001403 -0.000125
    25 C     0.000461  0.004429  0.001496
    26 H     0.000632 -0.000270  0.000372
    27 H    -0.000665 -0.001990 -0.000348
    28 C     0.000093 -0.003678 -0.000040
    29 C     0.001446 -0.002930  0.001179
    30 H     0.000146 -0.000169  0.000023
    31 H    -0.001110  0.000197  0.000438
    32 C     0.001383  0.001243 -0.000223
    33 C     0.000901  0.000216 -0.001030
    34 C     0.000024  0.000109 -0.000053
    35 C     0.000380 -0.000099  0.000345
    36 C     0.000171 -0.000551 -0.000737
    37 C    -0.001598  0.000647  0.000157
    38 H    -0.000039 -0.000060  0.000264
    39 H    -0.000010  0.000001  0.000052
    40 H     0.000122  0.000095 -0.000023
    41 H     0.000069 -0.000037 -0.000342
    42 C     0.000399  0.000099  0.000960
    43 C    -0.000362  0.000100 -0.000508
    44 H    -0.000089 -0.000292  0.000009
    45 H     0.000184  0.000089 -0.000286
    46 H    -0.000084  0.000110 -0.000040
    47 C     0.000207 -0.000559  0.000251
    48 H     0.000004 -0.000073 -0.000191
    49 H     0.000146 -0.000008 -0.000091
    50 H    -0.000066  0.000073 -0.000272
    51 C     0.000147 -0.000047  0.000506
    52 H     0.000200  0.000133  0.000117
    53 H    -0.000019  0.000051 -0.000264
    54 H    -0.000465  0.000198 -0.000095
    55 H    -0.000417 -0.000841  0.001696
    56 H    -0.001423 -0.000473 -0.001034
    57 H     0.001339 -0.000682 -0.000541
    58 H     0.000248 -0.000585  0.001960
    59 H    -0.001129 -0.001606 -0.000495
    60 H     0.001901  0.000594 -0.000701
 ----------------------------------------
 Mulliken charges used for AMS results%charges...

 dE(predicted):    -0.13680E-02, dE(actual):    -0.11349E-02, Trust radius:    0.400000, all in a.u.
 
----------------------------------------------------------------------
Geometry Convergence after Step   5       (Hartree/Angstrom,Angstrom)
----------------------------------------------------------------------
current energy                              -12.88945185 Hartree
energy change                      -0.00113493     0.00060000    F
constrained gradient max            0.00458759     0.00100000    F
constrained gradient rms            0.00097974     0.00066667    F
gradient max                        0.00458759
gradient rms                        0.00097974
cart. step max                      0.21064953     0.01000000    F
cart. step rms                      0.05783844     0.00666667    F
 
 
--------
Geometry
--------
Formula: C24H32N2O2
Atoms
  Index Symbol   x (angstrom)   y (angstrom)   z (angstrom)
      1      C    -0.96067932    -0.20970684     3.22056547
      2      C    -0.21783971    -0.74776053     2.22175385
      3      C    -0.02329422    -2.18836368     2.11754091
      4      O     0.57948313    -2.76121389     1.21082292
      5      C    -2.04304045     3.87019080     3.90425855
      6      H    -1.39522467    -0.90260213     3.94452978
      7      H     0.23328599    -0.13481828     1.44710362
      8      H    -0.47376249    -2.78458205     2.94545610
      9      C    -2.66072105     2.83950114     4.61274183
     10      C    -2.28334255     1.51869438     4.38905590
     11      H     0.12049414     2.04502696     2.02975624
     12      H    -0.54939415     4.37140822     2.43077228
     13      H    -2.33419090     4.90391026     4.07714644
     14      H    -3.43592972     3.06632247     5.34103185
     15      H    -2.76935666     0.72073014     4.94628339
     16      C    -1.29010628     1.19481831     3.44240131
     17      C    -0.66864568     2.25195645     2.74532970
     18      C    -1.04264679     3.56992486     2.97584508
     19      N     1.97888071    -1.24602385    -1.27145059
     20      C     1.03811215    -0.93201676    -2.23753694
     21      O     1.28587712    -0.29968156    -3.26642145
     22      N    -0.22796498    -1.39744982    -1.89395929
     23      C     3.35244917    -0.75109317    -1.24816930
     24      H     1.66684116    -1.74853383    -0.45024322
     25      C    -1.31564271    -1.54191333    -2.85818120
     26      H    -0.25807777    -2.02957356    -1.10670556
     27      H     3.52387686    -0.34084896    -2.24655259
     28      C    -1.55594845    -3.04144564    -3.20164020
     29      C     4.32542689    -1.92324574    -1.02720327
     30      H     2.91683438     1.89085205    -1.68598196
     31      H    -0.95408818    -1.03667513    -3.75671548
     32      C     3.50418375     0.40249686    -0.24434310
     33      C     3.87703214     0.19982597     1.09082153
     34      C     3.95151524     1.26623281     1.98829515
     35      C     3.66030661     2.56208109     1.56511095
     36      C     3.29109012     2.77906074     0.23646734
     37      C     3.21191098     1.71065831    -0.65513338
     38      H     4.11283332    -0.79893957     1.44883505
     39      H     4.24231478     1.08181642     3.02092841
     40      H     3.72637190     3.39543822     2.26145695
     41      H     3.06897552     3.78657745    -0.11005628
     42      C    -2.60634290    -0.75143059    -2.41584157
     43      C    -3.68042695    -0.88378707    -3.51731304
     44      H    -4.55724492    -0.27846440    -3.26410651
     45      H    -4.02391385    -1.91406991    -3.64654179
     46      H    -3.30438876    -0.53116805    -4.48386155
     47      C    -2.24768787     0.74138490    -2.26495654
     48      H    -1.86098046     1.15499202    -3.20150347
     49      H    -3.13443950     1.31948657    -1.98266127
     50      H    -1.48653646     0.89534666    -1.49623461
     51      C    -3.18225524    -1.25703654    -1.07650919
     52      H    -3.44999056    -2.31790676    -1.10356570
     53      H    -4.09356651    -0.70306419    -0.82560594
     54      H    -2.47817148    -1.10649962    -0.25348963
     55      H    -0.71735212    -3.65146814    -2.85250564
     56      H    -2.46350820    -3.45184061    -2.74929524
     57      H    -1.63290631    -3.19467917    -4.28270718
     58      H     5.33778048    -1.56809688    -0.80836121
     59      H     4.00774323    -2.56942335    -0.20091892
     60      H     4.36598905    -2.54331041    -1.92803781
 
Total System Charge             0.00000
Bonding info available!
 
 *** GO1_GOStep6 ***

 Energy gradients wrt nuclear displacements
 ==========================================

     Atom      Cartesian (a.u./angstrom)
                 X         Y         Z
 ----------------------------------------
     1 C    -0.000204 -0.000055  0.000032
     2 C     0.000044 -0.000048 -0.000770
     3 C    -0.001084  0.000657 -0.002203
     4 O     0.000240  0.000458 -0.000046
     5 C     0.000350  0.000468 -0.000581
     6 H     0.000604  0.000192  0.000505
     7 H    -0.000035  0.000715  0.000283
     8 H     0.000001  0.000137  0.000948
     9 C    -0.000204  0.000546 -0.000171
    10 C    -0.000408  0.000090 -0.000593
    11 H     0.000409 -0.000113 -0.000304
    12 H     0.000082  0.000221 -0.000293
    13 H    -0.000016  0.000375 -0.000457
    14 H    -0.000014  0.000433 -0.000247
    15 H     0.000030  0.000354 -0.000014
    16 C    -0.000056  0.000438 -0.000300
    17 C     0.000457  0.000098  0.000480
    18 C    -0.000467  0.000526 -0.000150
    19 N    -0.000864  0.001889  0.003390
    20 C    -0.000612  0.000244 -0.001174
    21 O     0.000215  0.000945 -0.001037
    22 N     0.001049 -0.001797 -0.000077
    23 C    -0.000043 -0.000913  0.000951
    24 H     0.000139 -0.001190 -0.000388
    25 C     0.000762  0.000453  0.001484
    26 H     0.000396 -0.000241  0.000147
    27 H    -0.000957 -0.000983 -0.000484
    28 C    -0.000070 -0.000720  0.000268
    29 C    -0.000545 -0.000013  0.000581
    30 H     0.000092 -0.000151 -0.000080
    31 H    -0.001321  0.001151  0.000424
    32 C     0.000708  0.002230 -0.000403
    33 C     0.000587  0.000172 -0.001139
    34 C    -0.000206  0.000436  0.000217
    35 C     0.000022 -0.000207  0.000596
    36 C    -0.000135 -0.000640 -0.000754
    37 C    -0.000838 -0.000190  0.000040
    38 H    -0.000068 -0.000223  0.000318
    39 H    -0.000067  0.000005  0.000184
    40 H     0.000046  0.000129 -0.000062
    41 H     0.000051 -0.000058 -0.000272
    42 C    -0.000107 -0.000238  0.000983
    43 C     0.000262  0.000070 -0.000674
    44 H     0.000069 -0.000203  0.000172
    45 H    -0.000047 -0.000101 -0.000367
    46 H    -0.000062  0.000059 -0.000029
    47 C     0.000733 -0.000445  0.000274
    48 H     0.000011  0.000028 -0.000132
    49 H     0.000078 -0.000118 -0.000144
    50 H     0.000140  0.000257 -0.000006
    51 C    -0.000155  0.000633  0.000126
    52 H     0.000057  0.000048  0.000293
    53 H    -0.000139  0.000000 -0.000043
    54 H    -0.000051  0.000208  0.000232
    55 H    -0.000214 -0.001357  0.001704
    56 H    -0.001661 -0.001047 -0.001128
    57 H     0.001707 -0.001121 -0.000889
    58 H     0.000890 -0.000470  0.001656
    59 H    -0.000958 -0.001978  0.000031
    60 H     0.001376 -0.000041 -0.000908
 ----------------------------------------
 Mulliken charges used for AMS results%charges...

 dE(predicted):    -0.12573E-02, dE(actual):    -0.74120E-03, Trust radius:    0.400000, all in a.u.
 
----------------------------------------------------------------------
Geometry Convergence after Step   6       (Hartree/Angstrom,Angstrom)
----------------------------------------------------------------------
current energy                              -12.89019305 Hartree
energy change                      -0.00074120     0.00060000    F
constrained gradient max            0.00326127     0.00100000    F
constrained gradient rms            0.00069339     0.00066667    F
gradient max                        0.00326127
gradient rms                        0.00069339
cart. step max                      0.15967804     0.01000000    F
cart. step rms                      0.04802971     0.00666667    F
 
 
--------
Geometry
--------
Formula: C24H32N2O2
Atoms
  Index Symbol   x (angstrom)   y (angstrom)   z (angstrom)
      1      C    -0.99978770    -0.20057331     3.24962782
      2      C    -0.24852889    -0.72513210     2.24981846
      3      C    -0.02470427    -2.16142214     2.14235608
      4      O     0.58111904    -2.71589821     1.22630285
      5      C    -2.10935017     3.85920878     4.00361108
      6      H    -1.43076243    -0.90367898     3.96571446
      7      H     0.19219921    -0.10573241     1.47397554
      8      H    -0.47217436    -2.77142576     2.96157086
      9      C    -2.68576031     2.81503306     4.72640119
     10      C    -2.30222258     1.50127714     4.47492615
     11      H    -0.01098801     2.07825269     2.01715707
     12      H    -0.68669004     4.39165393     2.47156076
     13      H    -2.40370070     4.88783259     4.19961985
     14      H    -3.43346170     3.02589882     5.48752142
     15      H    -2.75603999     0.69248446     5.04346628
     16      C    -1.34357454     1.19755690     3.48680246
     17      C    -0.76909833     2.26839178     2.76997202
     18      C    -1.14636182     3.57948642     3.02993995
     19      N     1.99339136    -1.25343536    -1.28533845
     20      C     1.05562522    -0.94403536    -2.25443588
     21      O     1.31055755    -0.33509430    -3.29511478
     22      N    -0.21960504    -1.37834688    -1.89823475
     23      C     3.37082514    -0.76915589    -1.27080015
     24      H     1.67613036    -1.73831471    -0.45569942
     25      C    -1.30399053    -1.54481768    -2.86337445
     26      H    -0.25425203    -1.99932969    -1.10200241
     27      H     3.53817364    -0.35947289    -2.27053281
     28      C    -1.54529477    -3.04558717    -3.16785275
     29      C     4.33605854    -1.93993523    -1.05514521
     30      H     3.05614244     1.88236847    -1.74466069
     31      H    -0.94167053    -1.06253180    -3.77483797
     32      C     3.53362818     0.38646148    -0.27119481
     33      C     3.85254888     0.18304540     1.07831976
     34      C     3.94094635     1.25539153     1.96726925
     35      C     3.71541389     2.55742681     1.52271025
     36      C     3.39916195     2.77509843     0.18127496
     37      C     3.30852575     1.70070957    -0.70267709
     38      H     4.03617555    -0.82026894     1.45369179
     39      H     4.19089034     1.07093283     3.01049140
     40      H     3.79150999     3.39486812     2.21294976
     41      H     3.22865356     3.78693128    -0.18128057
     42      C    -2.59572701    -0.74265262    -2.44552597
     43      C    -3.67572905    -0.91640732    -3.53400547
     44      H    -4.54693958    -0.29369869    -3.30494171
     45      H    -4.02701423    -1.94943270    -3.61330904
     46      H    -3.30181087    -0.61142542    -4.51739137
     47      C    -2.23998613     0.75599541    -2.35190071
     48      H    -1.85622429     1.13477713    -3.30418539
     49      H    -3.12748860     1.34227917    -2.08941068
     50      H    -1.47714548     0.93925407    -1.59136722
     51      C    -3.16473543    -1.20056726    -1.08674294
     52      H    -3.43742710    -2.26083277    -1.07625114
     53      H    -4.07190845    -0.63488329    -0.84724839
     54      H    -2.45319038    -1.02619427    -0.27441549
     55      H    -0.67557911    -3.63914418    -2.87005839
     56      H    -2.41264498    -3.46081288    -2.64624226
     57      H    -1.69471050    -3.21763580    -4.23820208
     58      H     5.36504450    -1.58916413    -0.92382009
     59      H     4.06870016    -2.53837217    -0.17688252
     60      H     4.30485831    -2.60720393    -1.92196845
 
Total System Charge             0.00000
Bonding info available!
 
 *** GO1_GOStep7 ***

 Energy gradients wrt nuclear displacements
 ==========================================

     Atom      Cartesian (a.u./angstrom)
                 X         Y         Z
 ----------------------------------------
     1 C     0.000045  0.000602  0.000268
     2 C    -0.000780 -0.000625 -0.000920
     3 C     0.003544  0.000122  0.001761
     4 O    -0.001071  0.001345 -0.001601
     5 C     0.000097  0.000100 -0.000564
     6 H    -0.000481  0.000243 -0.000309
     7 H    -0.000651  0.000317 -0.000392
     8 H    -0.001472  0.000180  0.000034
     9 C    -0.000098  0.000437 -0.000227
    10 C    -0.000044  0.000200 -0.000333
    11 H    -0.000053  0.000102  0.000045
    12 H     0.000131  0.000215 -0.000200
    13 H     0.000022  0.000283 -0.000394
    14 H    -0.000098  0.000462 -0.000279
    15 H    -0.000101  0.000376 -0.000242
    16 C     0.000480  0.000296  0.000514
    17 C    -0.000489  0.000475 -0.000509
    18 C     0.000199  0.000416 -0.000036
    19 N    -0.000454  0.002967  0.002376
    20 C     0.000927 -0.001025 -0.001029
    21 O     0.000118  0.000848 -0.000183
    22 N     0.000435 -0.001676 -0.000886
    23 C     0.002742 -0.005084  0.001998
    24 H     0.000059 -0.001437 -0.000581
    25 C     0.000774 -0.002799  0.002127
    26 H     0.000484 -0.000486  0.000024
    27 H    -0.000747 -0.000167 -0.000595
    28 C    -0.000293  0.003158  0.001526
    29 C    -0.002652  0.003466 -0.000237
    30 H     0.000127 -0.000106 -0.000137
    31 H    -0.001917  0.001427 -0.000355
    32 C     0.000260  0.001826 -0.000661
    33 C     0.000155  0.000138 -0.000509
    34 C     0.000046  0.000707  0.000213
    35 C     0.000185 -0.000143  0.000125
    36 C    -0.000111 -0.000292 -0.000282
    37 C    -0.000592 -0.000907  0.000222
    38 H    -0.000133 -0.000074  0.000294
    39 H    -0.000057  0.000052  0.000126
    40 H     0.000013  0.000103 -0.000238
    41 H     0.000143 -0.000051 -0.000150
    42 C    -0.000385 -0.001434  0.000573
    43 C     0.000445  0.000851  0.000052
    44 H     0.000013 -0.000174  0.000070
    45 H    -0.000084 -0.000378 -0.000168
    46 H     0.000118  0.000030  0.000167
    47 C     0.000835  0.000132 -0.000437
    48 H    -0.000015  0.000016 -0.000042
    49 H    -0.000091 -0.000152 -0.000180
    50 H    -0.000063  0.000106 -0.000076
    51 C    -0.000587  0.000681 -0.001033
    52 H    -0.000066 -0.000268  0.000380
    53 H    -0.000176 -0.000043  0.000106
    54 H     0.000403  0.000224  0.000384
    55 H    -0.000346 -0.001379  0.001840
    56 H    -0.001473 -0.000618 -0.001267
    57 H     0.002227 -0.001095 -0.000768
    58 H     0.000816 -0.000329  0.001067
    59 H    -0.000729 -0.001587  0.000050
    60 H     0.000466 -0.000573 -0.000522
 ----------------------------------------
 Mulliken charges used for AMS results%charges...

 dE(predicted):    -0.96797E-03, dE(actual):    -0.11069E-02, Trust radius:    0.800000, all in a.u.
 
----------------------------------------------------------------------
Geometry Convergence after Step   7       (Hartree/Angstrom,Angstrom)
----------------------------------------------------------------------
current energy                              -12.89130000 Hartree
energy change                      -0.00110695     0.00060000    F
constrained gradient max            0.00491837     0.00100000    F
constrained gradient rms            0.00098724     0.00066667    F
gradient max                        0.00491837
gradient rms                        0.00098724
cart. step max                      0.21409062     0.01000000    F
cart. step rms                      0.06066923     0.00666667    F
 
 
--------
Geometry
--------
Formula: C24H32N2O2
Atoms
  Index Symbol   x (angstrom)   y (angstrom)   z (angstrom)
      1      C    -1.01017495    -0.16161296     3.30724283
      2      C    -0.27340894    -0.67788148     2.29243766
      3      C    -0.06168283    -2.11384535     2.15595560
      4      O     0.54902620    -2.64991206     1.23199388
      5      C    -2.10698234     3.88686742     4.13656907
      6      H    -1.42572174    -0.87090800     4.02628297
      7      H     0.16814513    -0.05260180     1.52154597
      8      H    -0.48755996    -2.73637502     2.97679254
      9      C    -2.62598036     2.83655506     4.89267445
     10      C    -2.24987487     1.52675745     4.61217602
     11      H    -0.13210454     2.12900753     2.00848848
     12      H    -0.79708601     4.43387345     2.51142756
     13      H    -2.39621360     4.91258815     4.35422143
     14      H    -3.32403522     3.03949859     5.70161203
     15      H    -2.65902778     0.71311645     5.20705749
     16      C    -1.35354658     1.23268263     3.56417025
     17      C    -0.83673131     2.31030400     2.81381576
     18      C    -1.20898880     3.61707158     3.09949523
     19      N     1.98788309    -1.24484317    -1.30382037
     20      C     1.05711241    -0.93483841    -2.27807249
     21      O     1.32646986    -0.36076110    -3.33440120
     22      N    -0.22670522    -1.34788250    -1.92260501
     23      C     3.36823093    -0.76775781    -1.28920218
     24      H     1.66105837    -1.71067596    -0.46705227
     25      C    -1.29171135    -1.55793394    -2.90196873
     26      H    -0.26873034    -1.95497006    -1.11568482
     27      H     3.53511625    -0.34706888    -2.28457801
     28      C    -1.50056215    -3.06445237    -3.16773117
     29      C     4.32887247    -1.93779381    -1.08892434
     30      H     3.19070969     1.89888838    -1.75650761
     31      H    -0.92592792    -1.09531514    -3.82266677
     32      C     3.53972228     0.37474015    -0.27620428
     33      C     3.79404701     0.15033121     1.08431659
     34      C     3.89103443     1.21292572     1.98345671
     35      C     3.73903082     2.52625752     1.53974804
     36      C     3.49015878     2.76534964     0.18846467
     37      C     3.39156483     1.70005509    -0.70639456
     38      H     3.91988321    -0.86163937     1.46000447
     39      H     4.09076972     1.01249961     3.03445556
     40      H     3.82152797     3.35560175     2.23886882
     41      H     3.37716812     3.78555742    -0.17285788
     42      C    -2.60253453    -0.76764394    -2.52162770
     43      C    -3.67662300    -1.00693587    -3.60257996
     44      H    -4.55469430    -0.38195349    -3.40897006
     45      H    -4.01740387    -2.04630766    -3.62825073
     46      H    -3.30257165    -0.75010228    -4.59960844
     47      C    -2.27728717     0.74065210    -2.48592190
     48      H    -1.89571446     1.08821790    -3.45087536
     49      H    -3.17705500     1.31972585    -2.25067855
     50      H    -1.52129900     0.96724693    -1.73025243
     51      C    -3.16649665    -1.18363284    -1.14769318
     52      H    -3.42592712    -2.24636539    -1.09940801
     53      H    -4.08109727    -0.62175123    -0.92872444
     54      H    -2.45749035    -0.97146439    -0.34202989
     55      H    -0.58168682    -3.61850580    -2.95343224
     56      H    -2.29323610    -3.50566115    -2.55643366
     57      H    -1.74926373    -3.25752641    -4.21538466
     58      H     5.36754668    -1.59350928    -1.04996644
     59      H     4.12286296    -2.49063149    -0.16568325
     60      H     4.22519663    -2.64531117    -1.91708154
 
Total System Charge             0.00000
Bonding info available!
 
 *** GO1_GOStep8 ***

 Energy gradients wrt nuclear displacements
 ==========================================

     Atom      Cartesian (a.u./angstrom)
                 X         Y         Z
 ----------------------------------------
     1 C     0.000516  0.001453  0.000266
     2 C     0.000906 -0.000318  0.001111
     3 C    -0.004720 -0.001522 -0.002099
     4 O     0.002004  0.002153 -0.000858
     5 C    -0.000344 -0.000325  0.000061
     6 H     0.000114  0.000502  0.000131
     7 H     0.000095 -0.000016 -0.000189
     8 H     0.001062  0.000522  0.001276
     9 C     0.000313  0.000538 -0.000399
    10 C     0.000031  0.000436 -0.000185
    11 H     0.000041  0.000310 -0.000264
    12 H     0.000068  0.000226 -0.000302
    13 H     0.000062  0.000265 -0.000260
    14 H    -0.000207  0.000496 -0.000208
    15 H    -0.000112  0.000376 -0.000210
    16 C    -0.000712 -0.000247 -0.000461
    17 C    -0.000354  0.000664  0.000068
    18 C     0.000331  0.000219 -0.000568
    19 N    -0.000293  0.001855  0.000510
    20 C     0.001178  0.004279  0.002750
    21 O     0.000294 -0.001824 -0.000809
    22 N    -0.000062 -0.002331 -0.001812
    23 C     0.004856 -0.008244  0.001787
    24 H     0.000048 -0.001894 -0.000736
    25 C     0.001099 -0.005507  0.002165
    26 H     0.000522 -0.000901 -0.000202
    27 H    -0.000036  0.000423 -0.000592
    28 C    -0.000002  0.005886  0.002232
    29 C    -0.004612  0.006603 -0.001046
    30 H     0.000142 -0.000101 -0.000071
    31 H    -0.002494  0.001271 -0.001048
    32 C    -0.000265  0.000841 -0.000485
    33 C     0.000287 -0.000067  0.000186
    34 C    -0.000047  0.000430  0.000313
    35 C    -0.000271 -0.000023 -0.000278
    36 C    -0.000033  0.000268  0.000173
    37 C    -0.000045 -0.001018 -0.000040
    38 H     0.000050  0.000083  0.000213
    39 H    -0.000064  0.000072 -0.000036
    40 H     0.000054  0.000097 -0.000358
    41 H     0.000037 -0.000052 -0.000009
    42 C    -0.000430 -0.001629  0.000572
    43 C     0.000426  0.001157  0.000509
    44 H     0.000011 -0.000219 -0.000067
    45 H    -0.000171 -0.000390 -0.000030
    46 H     0.000194 -0.000039  0.000216
    47 C     0.000731  0.000482 -0.000589
    48 H     0.000016 -0.000193  0.000050
    49 H    -0.000150 -0.000048 -0.000186
    50 H    -0.000159 -0.000131 -0.000152
    51 C    -0.000611  0.000679 -0.001792
    52 H    -0.000113 -0.000415  0.000439
    53 H    -0.000129 -0.000068  0.000153
    54 H     0.000697  0.000108  0.000479
    55 H    -0.000538 -0.001581  0.001931
    56 H    -0.001233 -0.000301 -0.001652
    57 H     0.002535 -0.001028 -0.000658
    58 H     0.000480 -0.000155  0.000460
    59 H    -0.000445 -0.001128  0.000299
    60 H    -0.000548 -0.000978  0.000300
 ----------------------------------------
 Mulliken charges used for AMS results%charges...

 dE(predicted):    -0.14833E-02, dE(actual):    -0.11428E-02, Trust radius:    0.800000, all in a.u.
 
----------------------------------------------------------------------
Geometry Convergence after Step   8       (Hartree/Angstrom,Angstrom)
----------------------------------------------------------------------
current energy                              -12.89244280 Hartree
energy change                      -0.00114280     0.00060000    F
constrained gradient max            0.00808290     0.00100000    F
constrained gradient rms            0.00144999     0.00066667    F
gradient max                        0.00808290
gradient rms                        0.00144999
cart. step max                      0.20901044     0.01000000    F
cart. step rms                      0.06421609     0.00666667    F
 
 
--------
Geometry
--------
Formula: C24H32N2O2
Atoms
  Index Symbol   x (angstrom)   y (angstrom)   z (angstrom)
      1      C    -1.03143731    -0.13317379     3.34343920
      2      C    -0.28252889    -0.63540177     2.33072897
      3      C    -0.05317932    -2.06723312     2.17836099
      4      O     0.55004164    -2.58103853     1.23721849
      5      C    -2.17814743     3.90132286     4.17652688
      6      H    -1.43710971    -0.84946036     4.06128541
      7      H     0.16323514    -0.00193726     1.56871510
      8      H    -0.48775297    -2.70925170     2.97869934
      9      C    -2.63372859     2.85075411     4.97217916
     10      C    -2.24264599     1.54560523     4.69050409
     11      H    -0.27326352     2.15761802     1.97454273
     12      H    -0.96901567     4.45199534     2.47603896
     13      H    -2.48267694     4.92316642     4.39177597
     14      H    -3.29522443     3.04979964     5.81210176
     15      H    -2.60369737     0.73203350     5.31584645
     16      C    -1.39060809     1.25593065     3.60448726
     17      C    -0.93496181     2.33463897     2.81661899
     18      C    -1.32698625     3.63585823     3.09918578
     19      N     1.99705825    -1.24504671    -1.34135451
     20      C     1.06727338    -0.94093480    -2.31775889
     21      O     1.33957065    -0.38308930    -3.38216976
     22      N    -0.22609086    -1.30706378    -1.94174891
     23      C     3.37483334    -0.75712180    -1.33027059
     24      H     1.66622918    -1.68707903    -0.49318876
     25      C    -1.28634811    -1.55746669    -2.91893977
     26      H    -0.27153048    -1.89745205    -1.12215352
     27      H     3.53000657    -0.30991977    -2.31556611
     28      C    -1.47366978    -3.06807479    -3.14066412
     29      C     4.35192178    -1.91552420    -1.16828342
     30      H     3.36031295     1.93013620    -1.74053861
     31      H    -0.92829102    -1.12004255    -3.85498326
     32      C     3.55374042     0.35486551    -0.28546692
     33      C     3.73345148     0.08582846     1.07950862
     34      C     3.85202108     1.12023731     2.00738017
     35      C     3.79769804     2.45030118     1.59013449
     36      C     3.62361004     2.73401898     0.23631968
     37      C     3.50155934     1.69585596    -0.68791361
     38      H     3.78603846    -0.93957136     1.43538646
     39      H     3.99466070     0.88548074     3.06055056
     40      H     3.89679621     3.25709002     2.31308204
     41      H     3.58617856     3.76678037    -0.10416618
     42      C    -2.60334369    -0.77176417    -2.54941215
     43      C    -3.69536230    -1.08291030    -3.59308464
     44      H    -4.57262950    -0.44989704    -3.42400026
     45      H    -4.03115720    -2.12299211    -3.54374889
     46      H    -3.34210059    -0.89088557    -4.61219847
     47      C    -2.30047708     0.74118227    -2.58783564
     48      H    -1.94194696     1.04880125    -3.57503814
     49      H    -3.20310372     1.31887190    -2.36107077
     50      H    -1.53208793     1.01019884    -1.85880121
     51      C    -3.13231493    -1.13141122    -1.14584081
     52      H    -3.38368386    -2.19251587    -1.04708848
     53      H    -4.04594855    -0.56656352    -0.93127117
     54      H    -2.40767554    -0.88046683    -0.36608367
     55      H    -0.50377692    -3.57335187    -3.11676167
     56      H    -2.10347354    -3.53801675    -2.37946489
     57      H    -1.92051732    -3.28234438    -4.11524730
     58      H     5.38600594    -1.56420169    -1.24279453
     59      H     4.24112875    -2.42559620    -0.20553302
     60      H     4.17512224    -2.65957107    -1.95017491
 
Total System Charge             0.00000
Bonding info available!
 
 *** GO1_GOStep9 ***

 Energy gradients wrt nuclear displacements
 ==========================================

     Atom      Cartesian (a.u./angstrom)
                 X         Y         Z
 ----------------------------------------
     1 C    -0.000666  0.001808 -0.000963
     2 C    -0.001231 -0.000164  0.000615
     3 C     0.001885 -0.001815  0.002529
     4 O    -0.000174  0.003181 -0.002347
     5 C    -0.000381 -0.000059  0.000607
     6 H     0.000195  0.000587  0.000340
     7 H     0.000789 -0.000365 -0.000427
     8 H    -0.000895  0.000380 -0.000534
     9 C    -0.000047  0.000260 -0.000503
    10 C    -0.000200  0.000930  0.000315
    11 H    -0.000239  0.000399 -0.000553
    12 H    -0.000152  0.000173 -0.000421
    13 H     0.000010  0.000349 -0.000324
    14 H    -0.000142  0.000499 -0.000252
    15 H     0.000016  0.000424 -0.000085
    16 C    -0.000392 -0.001058 -0.000386
    17 C     0.000647  0.000903  0.000953
    18 C     0.000226 -0.000438 -0.001230
    19 N    -0.001223  0.002143  0.000252
    20 C     0.001985 -0.003236  0.000602
    21 O    -0.000108  0.001085 -0.000188
    22 N    -0.001507  0.001297  0.000131
    23 C     0.006279 -0.008954  0.000297
    24 H    -0.000050 -0.001949 -0.000209
    25 C     0.002365 -0.006364  0.000535
    26 H     0.000511 -0.000838 -0.000280
    27 H     0.001224  0.000565 -0.000369
    28 C    -0.000152  0.006190  0.002330
    29 C    -0.006349  0.008682 -0.001278
    30 H     0.000176 -0.000074 -0.000047
    31 H    -0.002460  0.000532 -0.001177
    32 C    -0.000491 -0.000503  0.000321
    33 C    -0.000212 -0.000448  0.000636
    34 C    -0.000164 -0.000250  0.000292
    35 C    -0.000175  0.000244 -0.000655
    36 C     0.000328  0.000633  0.000437
    37 C    -0.000206 -0.000395 -0.000174
    38 H     0.000328 -0.000055  0.000002
    39 H     0.000063  0.000062 -0.000092
    40 H    -0.000033 -0.000002 -0.000285
    41 H     0.000066 -0.000087  0.000063
    42 C    -0.000529 -0.000631  0.001171
    43 C     0.000880  0.000187  0.000540
    44 H     0.000215 -0.000330 -0.000092
    45 H    -0.000079 -0.000568  0.000012
    46 H     0.000190 -0.000345  0.000009
    47 C     0.000330  0.000850 -0.000044
    48 H     0.000200 -0.000439  0.000138
    49 H    -0.000001 -0.000013 -0.000230
    50 H     0.000029 -0.000227  0.000066
    51 C    -0.000190  0.001013 -0.001516
    52 H    -0.000201 -0.000124  0.000431
    53 H     0.000047 -0.000130  0.000134
    54 H     0.000677 -0.000172  0.000379
    55 H    -0.000889 -0.001339  0.001501
    56 H    -0.000825 -0.000057 -0.002159
    57 H     0.002024 -0.000889 -0.000658
    58 H    -0.000307  0.000174 -0.000237
    59 H     0.000326 -0.000340  0.000647
    60 H    -0.001344 -0.000894  0.001431
 ----------------------------------------
 Mulliken charges used for AMS results%charges...

 dE(predicted):    -0.14279E-02, dE(actual):    -0.10980E-02, Trust radius:    1.000000, all in a.u.
 
----------------------------------------------------------------------
Geometry Convergence after Step   9       (Hartree/Angstrom,Angstrom)
----------------------------------------------------------------------
current energy                              -12.89354078 Hartree
energy change                      -0.00109798     0.00060000    F
constrained gradient max            0.00883655     0.00100000    F
constrained gradient rms            0.00157189     0.00066667    F
gradient max                        0.00883655
gradient rms                        0.00157189
cart. step max                      0.20719118     0.01000000    F
cart. step rms                      0.05761900     0.00666667    F
 
 
--------
Geometry
--------
Formula: C24H32N2O2
Atoms
  Index Symbol   x (angstrom)   y (angstrom)   z (angstrom)
      1      C    -1.06984836    -0.10979051     3.37997983
      2      C    -0.31938021    -0.59960482     2.36280843
      3      C    -0.09999833    -2.02971535     2.18376686
      4      O     0.50674646    -2.52814040     1.23706149
      5      C    -2.12317514     3.93159519     4.30075543
      6      H    -1.50283796    -0.83590793     4.07163063
      7      H     0.13778484     0.04339119     1.61573626
      8      H    -0.53336219    -2.68460303     2.97403672
      9      C    -2.59114542     2.87628519     5.08325242
     10      C    -2.23331361     1.56810845     4.77230651
     11      H    -0.29031945     2.18714798     2.03935392
     12      H    -0.92392121     4.48681519     2.59485104
     13      H    -2.40111823     4.95583568     4.53931698
     14      H    -3.23554632     3.07405927     5.93655815
     15      H    -2.60383517     0.75127195     5.38781897
     16      C    -1.40134165     1.28028898     3.67039535
     17      C    -0.93805407     2.36291124     2.89243157
     18      C    -1.29335746     3.66730897     3.20669698
     19      N     1.98259536    -1.23050772    -1.35279263
     20      C     1.06092987    -0.92527059    -2.33686510
     21      O     1.34814388    -0.39656960    -3.41178506
     22      N    -0.24012326    -1.27220651    -1.96632441
     23      C     3.36148376    -0.74263555    -1.33720401
     24      H     1.64163806    -1.65747676    -0.50087723
     25      C    -1.28009081    -1.56583089    -2.95563238
     26      H    -0.29418462    -1.84862631    -1.13700480
     27      H     3.51423017    -0.28592626    -2.31785673
     28      C    -1.42327125    -3.08378580    -3.14094220
     29      C     4.34758685    -1.89883356    -1.18896800
     30      H     3.48759852     1.94298911    -1.74116406
     31      H    -0.91753700    -1.14483486    -3.89735817
     32      C     3.54743857     0.35972523    -0.28371596
     33      C     3.66508305     0.08212665     1.08658678
     34      C     3.81090716     1.10854654     2.01889442
     35      C     3.84556571     2.43959055     1.60219690
     36      C     3.72897813     2.73194264     0.24428650
     37      C     3.58034501     1.70138095    -0.68473571
     38      H     3.64676053    -0.94403808     1.44346949
     39      H     3.90410119     0.86707337     3.07610764
     40      H     3.96536723     3.23964296     2.32957793
     41      H     3.75938821     3.76484981    -0.09634555
     42      C    -2.62253409    -0.80859751    -2.61849222
     43      C    -3.70126589    -1.18605361    -3.65426153
     44      H    -4.59257473    -0.56504660    -3.51662420
     45      H    -4.01506523    -2.22981944    -3.56137904
     46      H    -3.34697579    -1.03026969    -4.67927556
     47      C    -2.36496971     0.71060189    -2.70374552
     48      H    -2.01341347     0.99770295    -3.69979601
     49      H    -3.28461289     1.26814367    -2.49642137
     50      H    -1.60586641     1.02438099    -1.98280641
     51      C    -3.14908526    -1.14135259    -1.20697710
     52      H    -3.37251526    -2.20564536    -1.08016083
     53      H    -4.07916766    -0.59566590    -1.01493867
     54      H    -2.43740177    -0.84774339    -0.43082740
     55      H    -0.43479688    -3.53389562    -3.27026018
     56      H    -1.89628236    -3.57213784    -2.28294964
     57      H    -2.00993757    -3.33211843    -4.02898061
     58      H     5.37586348    -1.54546098    -1.31532483
     59      H     4.28187461    -2.38537586    -0.21066795
     60      H     4.14181606    -2.66022922    -1.94641617
 
Total System Charge             0.00000
Bonding info available!
 
 *** GO1_GOStep10 ***

 Energy gradients wrt nuclear displacements
 ==========================================

     Atom      Cartesian (a.u./angstrom)
                 X         Y         Z
 ----------------------------------------
     1 C     0.000329  0.001385 -0.000425
     2 C    -0.000550  0.000671  0.001458
     3 C     0.000758 -0.002070  0.001611
     4 O    -0.000310  0.003618 -0.001426
     5 C    -0.000448  0.000218  0.000319
     6 H    -0.001096  0.000357 -0.000531
     7 H     0.000242 -0.000497 -0.000976
     8 H     0.000147  0.000363 -0.000306
     9 C    -0.000160  0.000348 -0.000392
    10 C    -0.000101  0.000791  0.000367
    11 H     0.000146  0.000315 -0.000285
    12 H     0.000056  0.000134 -0.000237
    13 H    -0.000009  0.000398 -0.000386
    14 H     0.000079  0.000462 -0.000240
    15 H    -0.000078  0.000389 -0.000135
    16 C     0.000946 -0.001283  0.000446
    17 C    -0.001103  0.000406 -0.000542
    18 C     0.000649 -0.000307 -0.000791
    19 N    -0.001945  0.000821 -0.001203
    20 C     0.001105  0.001257  0.002586
    21 O    -0.000003 -0.000926 -0.000453
    22 N    -0.001789  0.000897  0.000688
    23 C     0.006141 -0.007998 -0.000331
    24 H    -0.000144 -0.002262 -0.000133
    25 C     0.003774 -0.004837 -0.000741
    26 H     0.000469 -0.001182 -0.000392
    27 H     0.001399  0.000767  0.000316
    28 C    -0.000979  0.005088  0.002348
    29 C    -0.005168  0.006990 -0.001047
    30 H     0.000133 -0.000186 -0.000031
    31 H    -0.001602 -0.000302 -0.000968
    32 C    -0.001096 -0.000427  0.000556
    33 C    -0.000402 -0.000263  0.001017
    34 C     0.000143 -0.000271 -0.000066
    35 C     0.000439  0.000175 -0.000507
    36 C     0.000097  0.000388  0.000266
    37 C    -0.000326 -0.000406  0.000040
    38 H     0.000183  0.000400  0.000067
    39 H     0.000043  0.000162 -0.000070
    40 H    -0.000127  0.000012 -0.000197
    41 H     0.000220 -0.000128 -0.000009
    42 C    -0.000791 -0.000148  0.001027
    43 C     0.000933 -0.000283  0.000687
    44 H     0.000179 -0.000331 -0.000158
    45 H     0.000424 -0.000807  0.000099
    46 H     0.000141 -0.000356 -0.000045
    47 C    -0.000248  0.000708 -0.000223
    48 H     0.000345 -0.000359  0.000133
    49 H     0.000079 -0.000144 -0.000319
    50 H     0.000147 -0.000317  0.000032
    51 C     0.000105  0.000615 -0.000960
    52 H    -0.000428  0.000180  0.000439
    53 H     0.000188 -0.000115 -0.000043
    54 H     0.000239 -0.000332 -0.000047
    55 H    -0.000676 -0.000596  0.000751
    56 H    -0.000411 -0.000173 -0.001544
    57 H     0.000518 -0.000234 -0.000526
    58 H    -0.000487  0.000054 -0.000510
    59 H     0.000926  0.000011  0.000160
    60 H    -0.001243 -0.000839  0.001783
 ----------------------------------------
 Mulliken charges used for AMS results%charges...

 dE(predicted):    -0.94835E-03, dE(actual):    -0.61954E-03, Trust radius:    1.000000, all in a.u.
 
----------------------------------------------------------------------
Geometry Convergence after Step  10       (Hartree/Angstrom,Angstrom)
----------------------------------------------------------------------
current energy                              -12.89416033 Hartree
energy change                      -0.00061954     0.00060000    F
constrained gradient max            0.00784990     0.00100000    F
constrained gradient rms            0.00137864     0.00066667    F
gradient max                        0.00784990
gradient rms                        0.00137864
cart. step max                      0.12381423     0.01000000    F
cart. step rms                      0.02362414     0.00666667    F
 
 
--------
Geometry
--------
Formula: C24H32N2O2
Atoms
  Index Symbol   x (angstrom)   y (angstrom)   z (angstrom)
      1      C    -1.08242571    -0.10132455     3.37471782
      2      C    -0.32950765    -0.58432785     2.35605607
      3      C    -0.11496605    -2.01418985     2.17112177
      4      O     0.49782172    -2.51659742     1.23014519
      5      C    -2.12705274     3.93696071     4.32134100
[...]
                                   -5.02%     2 P:y             4.559  0.00    18 C
                                    4.93%     1 S              -6.484  1.00    40 H
                                    4.19%     2 S               2.096  0.00    42 H
                                   -4.16%     2 P:y             4.559  0.00    16 C
                                    4.00%     2 S               2.096  0.00    41 H
                                   -3.56%     2 P:z             4.559  0.00    14 C
                                   -3.41%     2 P:z             4.559  0.00    17 C
                                   -2.98%     2 P:z             4.559  0.00    13 C
                                    2.74%     1 S              -6.484  1.00    57 H
                                    2.53%     1 S              -6.484  1.00    54 H
                                    2.51%     1 S              -6.484  1.00    50 H
                                    2.50%     1 S              -6.484  1.00    51 H
                                   -2.48%     2 P:y             4.559  0.00    22 C
                                   -2.48%     2 P:y             4.559  0.00    24 C
                                    2.30%     2 S               2.096  0.00    55 H
                                    2.24%     2 S               2.096  0.00    58 H
                                    2.19%     1 S              -6.484  1.00    44 H
                                    2.19%     2 P:z             4.559  0.00    15 C
                                    2.12%     1 S              -6.484  1.00    58 H
                                    2.06%     1 S              -6.484  1.00    56 H
                                    2.03%     2 S               2.096  0.00    44 H
                                    1.97%     2 S               2.096  0.00    56 H
                                   -1.85%     2 P:x             4.559  0.00    14 C
                                    1.75%     1 S              -6.484  1.00    47 H
                                    1.74%     1 S              -6.484  1.00    45 H
                                   -1.69%     2 P:y             4.559  0.00    11 C
                                    1.66%     1 S              -6.484  1.00    30 H
                                    1.61%     1 P:z            -5.135  0.67    14 C
                                    1.58%     3 S              41.380  0.00    42 H
                                    1.57%     3 S              41.380  0.00    43 H
                                   -1.41%     2 P:z             4.559  0.00    23 C
                                   -1.29%     3 S              10.456  0.00    11 C
                                   -1.29%     2 P:z             4.559  0.00    11 C
                                    1.26%     2 S               2.096  0.00    40 H
                                   -1.25%     2 P:x             4.559  0.00    13 C
                                    1.18%     1 S              -6.484  1.00    46 H
                                    1.13%     2 S               2.096  0.00    49 H
                                    1.13%     2 P:x             4.559  0.00     1 C
                                    1.12%     2 S               2.096  0.00    57 H
                                    1.08%     2 S               2.096  0.00    51 H
                                   -1.06%     2 P:x             4.559  0.00     7 C
                                    1.03%     2 S               2.096  0.00    46 H
                                    1.02%     1 P:z            -5.135  0.67    13 C
       1.920  0.00   131 A          9.53%     1 S              -6.484  1.00    30 H
                                    7.94%     1 S              -6.484  1.00    52 H
                                    6.41%     1 S              -6.484  1.00    41 H
                                    5.60%     2 S               2.096  0.00    52 H
                                   -5.49%     2 P:z             4.559  0.00    17 C
                                   -4.64%     2 P:z             4.559  0.00    14 C
                                    4.29%     1 S              -6.484  1.00    36 H
                                    4.25%     1 S              -6.484  1.00    58 H
                                    4.07%     1 S              -6.484  1.00    39 H
                                    3.93%     1 S              -6.484  1.00    50 H
                                   -3.62%     2 P:x             4.559  0.00    24 C
                                    3.61%     1 S              -6.484  1.00    57 H
                                    3.22%     2 S               2.096  0.00    58 H
                                   -3.22%     2 P:z             4.559  0.00     2 C
                                    2.63%     2 P:x             4.559  0.00     1 C
                                   -2.49%     2 P:x             4.559  0.00     7 C
                                    2.38%     1 S              -6.484  1.00    43 H
                                    2.33%     2 S               2.096  0.00    30 H
                                    2.32%     2 P:z             4.559  0.00     3 C
                                    2.27%     1 S              -6.484  1.00    44 H
                                    2.21%     1 S              -6.484  1.00    40 H
                                   -2.18%     2 P:y             4.559  0.00    19 C
                                    2.09%     1 S              -6.484  1.00    51 H
                                    1.96%     1 P:x            -5.135  0.67    22 C
                                    1.95%     2 S               2.096  0.00    42 H
                                    1.88%     1 S              -6.484  1.00    55 H
                                   -1.82%     2 P:y             4.559  0.00    24 C
                                    1.71%     1 S              -6.484  1.00    27 H
                                    1.71%     2 S               2.096  0.00    40 H
                                   -1.68%     2 P:z             4.559  0.00    12 C
                                    1.61%     1 P:z            -5.135  0.67     8 C
                                    1.52%     2 S               2.096  0.00    39 H
                                    1.48%     1 P:z            -5.135  0.67    13 C
                                   -1.47%     2 S               2.096  0.00    55 H
                                   -1.42%     2 P:z             4.559  0.00    23 C
                                    1.39%     2 S               2.096  0.00    48 H
                                    1.37%     1 P:z            -5.135  0.67    14 C
                                   -1.35%     2 P:y             4.559  0.00     9 C
                                    1.35%     1 S              -6.484  1.00    54 H
                                    1.32%     2 S             -13.802  2.00     8 C
                                    1.31%     2 P:x             4.559  0.00    18 C
                                    1.31%     1 S              -6.484  1.00    45 H
                                    1.30%     1 P:z            -5.135  0.67     3 C
                                    1.28%     2 P:z             4.559  0.00     6 C
                                    1.28%     2 S               2.096  0.00    38 H
                                    1.25%     1 P:y            -5.135  0.67    12 C
                                    1.23%     1 S              -6.484  1.00    47 H
                                    1.21%     1 P:x            -5.135  0.67    24 C
                                    1.20%     1 S              -6.484  1.00    31 H
                                    1.19%     1 P:x            -5.135  0.67     1 C
                                    1.17%     1 S              -6.484  1.00    53 H
                                   -1.16%     2 P:x             4.559  0.00    21 C
                                    1.12%     2 P:z             4.559  0.00    22 C
                                    1.07%     1 S              -6.484  1.00    42 H
                                   -1.05%     2 P:y             4.559  0.00    22 C
                                   -1.04%     3 S              10.456  0.00     8 C
                                   -1.03%     2 P:z             4.559  0.00     9 C
                                    1.02%     1 S              -6.484  1.00    48 H
                                    1.00%     1 S              -6.484  1.00    49 H

 Energy gradients wrt nuclear displacements
 ==========================================

     Atom      Cartesian (a.u./angstrom)
                 X         Y         Z
 ----------------------------------------
     1 C    -0.000082  0.000228 -0.000012
     2 C    -0.000080  0.000159  0.000021
     3 C    -0.000040  0.000126  0.000161
     4 O    -0.000116  0.000866 -0.000417
     5 C     0.000004  0.000304 -0.000284
     6 H    -0.000116  0.000273  0.000012
     7 H    -0.000043  0.000086 -0.000002
     8 H    -0.000135  0.000190  0.000149
     9 C    -0.000044  0.000355 -0.000237
    10 C    -0.000072  0.000338 -0.000144
    11 H     0.000007  0.000126 -0.000131
    12 H     0.000054  0.000175 -0.000284
    13 H     0.000022  0.000323 -0.000353
    14 H    -0.000055  0.000425 -0.000262
    15 H    -0.000103  0.000377 -0.000109
    16 C    -0.000047  0.000246 -0.000109
    17 C    -0.000007  0.000193 -0.000162
    18 C     0.000018  0.000220 -0.000245
    19 N    -0.000203  0.000305  0.000503
    20 C     0.000069 -0.000191  0.000133
    21 O     0.000061 -0.000208  0.000076
    22 N    -0.000017  0.000004  0.000261
    23 C     0.000003 -0.000170  0.000172
    24 H    -0.000022 -0.001049 -0.000006
    25 C    -0.000036 -0.000114  0.000131
    26 H     0.000151 -0.000445  0.000029
    27 H     0.000161 -0.000313  0.000064
    28 C     0.000049 -0.000133  0.000077
    29 C    -0.000066 -0.000180  0.000294
    30 H     0.000092 -0.000197 -0.000036
    31 H     0.000013 -0.000084  0.000076
    32 C     0.000010 -0.000068  0.000016
    33 C     0.000084 -0.000041  0.000070
    34 C    -0.000020  0.000024  0.000033
    35 C     0.000020 -0.000004 -0.000046
    36 C     0.000056 -0.000082 -0.000079
    37 C    -0.000061 -0.000107 -0.000001
    38 H    -0.000051 -0.000012  0.000145
    39 H    -0.000053  0.000083  0.000048
    40 H     0.000025  0.000040 -0.000090
    41 H     0.000100 -0.000098 -0.000131
    42 C     0.000061 -0.000197  0.000002
    43 C     0.000043 -0.000110 -0.000018
    44 H     0.000069 -0.000093 -0.000075
    45 H     0.000032 -0.000100  0.000027
    46 H     0.000081 -0.000180 -0.000023
    47 C     0.000078 -0.000080 -0.000096
    48 H     0.000109 -0.000163 -0.000113
    49 H     0.000093 -0.000060 -0.000152
    50 H     0.000076 -0.000077 -0.000100
    51 C    -0.000016  0.000018  0.000022
    52 H    -0.000030  0.000025  0.000049
    53 H     0.000010  0.000049 -0.000064
    54 H    -0.000014  0.000044 -0.000008
    55 H    -0.000009 -0.000183  0.000193
    56 H    -0.000036 -0.000081  0.000168
    57 H     0.000004 -0.000171  0.000146
    58 H    -0.000012 -0.000221  0.000219
    59 H    -0.000058 -0.000148  0.000243
    60 H    -0.000008 -0.000240  0.000248
 ----------------------------------------



 =======================================================================
 Electrostatic potential at the Nuclei due to electrons and other nuclei
 =======================================================================
  
         Atom                  Potential
         ----                  ---------
     1)   C                  14.74156420
     2)   C                  14.76482724
     3)   C                  14.69961040
     4)   O                  22.39038786
     5)   C                  14.76054845
     6)   H                   1.07454397
     7)   H                   1.08157337
     8)   H                   1.08880648
     9)   C                  14.76292869
    10)   C                  14.75888356
    11)   H                   1.08578781
    12)   H                   1.08711999
    13)   H                   1.08476281
    14)   H                   1.08530171
    15)   H                   1.08157851
    16)   C                  14.74555137
    17)   C                  14.76105841
    18)   C                  14.76352692
    19)   N                  18.40599705
    20)   C                  14.69504460
    21)   O                  22.45806659
    22)   N                  18.40893439
    23)   C                  14.74793606
    24)   H                   1.04550853
    25)   C                  14.75777633
    26)   H                   1.04947349
    27)   H                   1.12785942
    28)   C                  14.80542999
    29)   C                  14.80316063
    30)   H                   1.11350165
    31)   H                   1.13557424
    32)   C                  14.78053243
    33)   C                  14.78920952
    34)   C                  14.78727526
    35)   C                  14.78807603
    36)   C                  14.78822674
    37)   C                  14.79131691
    38)   H                   1.10916293
    39)   H                   1.10801213
    40)   H                   1.10775606
    41)   H                   1.10923965
    42)   C                  14.77199794
    43)   C                  14.80776279
    44)   H                   1.13278748
    45)   H                   1.13350755
    46)   H                   1.13263101
    47)   C                  14.81583782
    48)   H                   1.14085538
    49)   H                   1.13850520
    50)   H                   1.14264143
    51)   C                  14.80643051
    52)   H                   1.13068153
    53)   H                   1.13035065
    54)   H                   1.13178653
    55)   H                   1.13129494
    56)   H                   1.12844871
    57)   H                   1.12897894
    58)   H                   1.12716488
    59)   H                   1.12730801
    60)   H                   1.13027181
 Mulliken charges used for AMS results%charges...


    =====================
     CALCULATION RESULTS
    =====================

Energy (hartree)           -12.89469318

Gradients (hartree/bohr)
  Index   Atom            d/dx            d/dy            d/dz
      1      C   -0.0000435409    0.0001204444   -0.0000064265
      2      C   -0.0000425351    0.0000839431    0.0000110376
      3      C   -0.0000210046    0.0000664329    0.0000851389
      4      O   -0.0000611273    0.0004584125   -0.0002207348
      5      C    0.0000021722    0.0001609489   -0.0001503899
      6      H   -0.0000615855    0.0001446542    0.0000064803
      7      H   -0.0000228406    0.0000455455   -0.0000012126
      8      H   -0.0000714961    0.0001004516    0.0000785999
      9      C   -0.0000233234    0.0001875941   -0.0001255354
     10      C   -0.0000383437    0.0001787893   -0.0000759832
     11      H    0.0000035613    0.0000665863   -0.0000694721
     12      H    0.0000284059    0.0000925652   -0.0001502257
     13      H    0.0000117698    0.0001710758   -0.0001866620
     14      H   -0.0000292564    0.0002250817   -0.0001386065
     15      H   -0.0000546459    0.0001996121   -0.0000577687
     16      C   -0.0000251018    0.0001301341   -0.0000575576
     17      C   -0.0000036026    0.0001018822   -0.0000855167
     18      C    0.0000096297    0.0001162526   -0.0001299057
     19      N   -0.0001072288    0.0001615721    0.0002661319
     20      C    0.0000364862   -0.0001012133    0.0000702504
     21      O    0.0000323913   -0.0001100795    0.0000400355
     22      N   -0.0000087791    0.0000019046    0.0001382360
     23      C    0.0000015976   -0.0000898188    0.0000910671
     24      H   -0.0000116656   -0.0005551705   -0.0000031803
     25      C   -0.0000190881   -0.0000605810    0.0000691994
     26      H    0.0000798299   -0.0002356379    0.0000154843
     27      H    0.0000852497   -0.0001658733    0.0000340685
     28      C    0.0000258799   -0.0000704805    0.0000407009
     29      C   -0.0000349738   -0.0000954805    0.0001555520
     30      H    0.0000486992   -0.0001039848   -0.0000192884
     31      H    0.0000068884   -0.0000447084    0.0000403930
     32      C    0.0000052344   -0.0000357769    0.0000084659
     33      C    0.0000442342   -0.0000215325    0.0000370949
     34      C   -0.0000103307    0.0000128914    0.0000173165
     35      C    0.0000104412   -0.0000022738   -0.0000243243
     36      C    0.0000295503   -0.0000431762   -0.0000415430
     37      C   -0.0000324191   -0.0000568121   -0.0000002809
     38      H   -0.0000271491   -0.0000062538    0.0000769530
     39      H   -0.0000279865    0.0000436591    0.0000256635
     40      H    0.0000133377    0.0000211702   -0.0000475725
     41      H    0.0000528322   -0.0000517355   -0.0000693637
     42      C    0.0000321625   -0.0001043856    0.0000010721
     43      C    0.0000227503   -0.0000580779   -0.0000095713
     44      H    0.0000367034   -0.0000489494   -0.0000394870
     45      H    0.0000168598   -0.0000529677    0.0000142865
     46      H    0.0000428029   -0.0000953653   -0.0000121318
     47      C    0.0000412970   -0.0000422517   -0.0000505532
     48      H    0.0000575094   -0.0000864139   -0.0000600143
     49      H    0.0000492728   -0.0000314936   -0.0000806748
     50      H    0.0000403956   -0.0000407741   -0.0000528958
     51      C   -0.0000084765    0.0000094709    0.0000117566
     52      H   -0.0000158544    0.0000132900    0.0000261309
     53      H    0.0000051956    0.0000259013   -0.0000340317
     54      H   -0.0000076707    0.0000234247   -0.0000042361
     55      H   -0.0000046738   -0.0000970648    0.0001020408
     56      H   -0.0000190987   -0.0000428004    0.0000888990
     57      H    0.0000023380   -0.0000903327    0.0000771651
     58      H   -0.0000066069   -0.0001169824    0.0001160259
     59      H   -0.0000308696   -0.0000785012    0.0001284810
     60      H   -0.0000042033   -0.0001267411    0.0001314192


--------------
Atomic charges
--------------
  Index   Atom    Charge
      1      C    0.2932
      2      C    0.1814
      3      C    0.6417
      4      O   -0.5583
      5      C    0.2577
      6      H   -0.2261
      7      H   -0.1583
      8      H   -0.2816
      9      C    0.2409
     10      C    0.3052
     11      H   -0.2455
     12      H   -0.2436
     13      H   -0.2397
     14      H   -0.2438
     15      H   -0.2545
     16      C   -0.0149
     17      C    0.3014
     18      C    0.2482
     19      N   -0.1909
     20      C    0.7583
     21      O   -0.6440
     22      N   -0.2079
     23      C    0.3221
     24      H    0.0119
     25      C    0.3861
     26      H   -0.0361
     27      H   -0.1799
     28      C    0.6926
     29      C    0.6721
     30      H   -0.2495
     31      H   -0.1659
     32      C    0.0066
     33      C    0.2830
     34      C    0.2443
     35      C    0.2311
     36      C    0.2327
     37      C    0.2750
     38      H   -0.2524
     39      H   -0.2571
     40      H   -0.2502
     41      H   -0.2506
     42      C   -0.0601
     43      C    0.7528
     44      H   -0.2515
     45      H   -0.2499
     46      H   -0.2550
     47      C    0.7641
     48      H   -0.2487
     49      H   -0.2633
     50      H   -0.2375
     51      C    0.7360
     52      H   -0.2634
     53      H   -0.2528
     54      H   -0.2041
     55      H   -0.2337
     56      H   -0.2338
     57      H   -0.2449
     58      H   -0.2355
     59      H   -0.2248
     60      H   -0.2288


Dipole moment vector    (Debye):    -2.97797613    1.71321490    6.34455276
              magnitude (Debye):     7.21503962


AMS application finished. Exiting.
NORMAL TERMINATION
     Total cpu time:    8054.08
  Total system time:     255.22
 Total elapsed time:    8978.65
