

 Parallel Execution: Process Information
 ==============================================================================
 Rank   Node Name                              NodeID   MyNodeRank  NodeMaster
    0   DESKTOP-1M8FOJT                           0          0          0
    1   DESKTOP-1M8FOJT                           0          1         -1
    2   DESKTOP-1M8FOJT                           0          2         -1
    3   DESKTOP-1M8FOJT                           0          3         -1
 ==============================================================================


May use up to 4096MB of RAM as shared memory on node 0

 *******************************************************************************
 *                                                                             *
 *  --------------------------------                                           *
 *   Amsterdam Modeling Suite (AMS)              2022.101                      *
 *  --------------------------------                                           *
 *                                               r100871 2022-01-28            *
 *                                                                             *
 *                                                                             *
 *                              =================                              *
 *                              |               |                              *
 *                              |     A M S     |                              *
 *                              |               |                              *
 *                              =================                              *
 *                                                                             *
 *                                                                             *
 *   Online information and documentation:  https://www.scm.com/support/       *
 *   E-mail:  support@scm.com   info@scm.com                                   *
 *                                                                             *
 *   Scientific publications using AMS results must be properly referenced     *
 *   See the User Manuals (or the web site) for recommended citations          *
 *   The terms and conditions of the End User License Agreement apply to       *
 *   the use of AMS, https://www.scm.com/license-terms/                        *
 *                                                                             *
 *********************  x86_64_windows_intel / intelmpi  ***********************
 
 Licensed to: Mr. Yuman Hordijk / SCM / Amsterdam / Netherlands 2022-01-24 11:07:43
 SCM User ID: u24430
  
 AMS 2022.101  RunTime: Jan30-2022 15:14:54  ShM Nodes: 1  Procs: 4

 AMS jobname: ams
 AMS jobid  : 801736996

 Start   directory: D:/Users/Yuman/Desktop/MasterProject/manual_calculations/urea/tmp..3964.0.noindex/
 Results directory: D:/Users/Yuman/Desktop/MasterProject/manual_calculations/urea/urea_complex.results/
 Scratch directory: Z:/SCMTMP/amstmp_ams_kid0.801736996/


 Communication costs MPI_COMM_WORLD:      1.745 usec per message,   0.0039 usec per 8-byte item
 Communication costs for intra-node:      1.290 usec per message,   0.0036 usec per 8-byte item

 RNG seed: 1781670319 -101865541 -424287040 1676493102 -1307460518 -91983186 1374307319 1957018459



                      ************************************************************************
                      *  ADF 2022.101  RunTime: Jan30-2022 15:14:54  ShM Nodes: 1  Procs: 4  *
                      ************************************************************************
  
       ***************************
       *  GEOMETRY OPTIMIZATION  *
       ***************************

Optimization Method                    Quasi Newton
Optimization Coordinates               Delocalized Coordinates
Optimize lattice                       F
 
 ------------------------------------------------------
 Convergence criteria (Hartree,Angstrom)
 ------------------------------------------------------
 Maximum gradient               0.001000000000
 Maximum rms gradient           0.000666666667
 Maximum step allowed           0.010000000000
 Maximum rms step allowed       0.006666666667
 Maximum energy change allowe   0.000540000000
 Maximum stress energy allowe   0.000500000000
 
Initial model Hessian                  Automatic Hessian
 
------------------------------------
Quasi-Newton Optimizer Parameters
------------------------------------
Hessian Update Method                  BFGS
Maximum number of steps                  324
First GDIIS cycle                          0
Maximum GDIIS vectors                      0
Trust radius (bohr)                        0.200000
Trust radius varies                        T
Constraints converged at all steps         T
Use projector                              T
 
 Rigid motions settings for: old optimizer
 Atomic rotations (x,y,z):     T T T
 Atomic translations (x,y,z):  T T T
 Tolerance:                   1.000000000000000E-006
 
--------
Geometry
--------
Formula: C22H28N2OS
Atoms
  Index Symbol   x (angstrom)   y (angstrom)   z (angstrom)
      1      C     0.77099294    -0.92575212    -0.78626799
      2      C     0.74802977    -1.99737472     0.03063693
      3      C     1.12273597    -3.33310459    -0.39546564
      4      O     1.18013110    -4.28656063     0.35652878
      5      C    -0.07464799     3.09506422     0.28737090
      6      H     1.03908991    -1.06586292    -1.83225556
      7      H     0.47685293    -1.89728662     1.07354488
      8      H     1.37268477    -3.43419235    -1.47219436
      9      C     0.11008420     2.74132832    -1.04364991
     10      C     0.38467244     1.42703034    -1.37956292
     11      H     0.37793223     0.07721955     1.74972787
     12      H    -0.11512250     2.40201282     2.31940214
     13      H    -0.28588147     4.12518102     0.55090593
     14      H     0.04342030     3.49489130    -1.82042989
     15      H     0.53187588     1.15477824    -2.41949378
     16      C     0.47108640     0.43746251    -0.38935037
     17      C     0.28671503     0.80933663     0.95098581
     18      C     0.01884479     2.12631336     1.27951043
     19      N     2.36547005    -3.24680103     2.94012685
     20      C     1.20613266    -2.58977640     3.26024770
     21      S     1.14717356    -1.06749100     3.90389139
     22      N     0.10958010    -3.36495023     3.04258560
     23      C     3.62530041    -2.51648071     2.91496961
     24      H     2.27698777    -3.96560038     2.23126959
     25      C    -1.23723952    -2.85155438     3.21124156
     26      H     0.22250219    -4.17543994     2.45036183
     27      H     3.61493109    -1.81543941     3.75576876
     28      H    -1.16546985    -1.75957075     3.30375712
     29      H     4.43612676    -3.23945609     3.05029412
     30      H     3.25148565     0.13012861     2.43129525
     31      H    -1.82307781    -3.10076456     2.31913828
     32      C     3.78954233    -1.77449323     1.60711778
     33      C     4.15183700    -2.46291234     0.45117125
     34      C     4.28201697    -1.78894116    -0.75478741
     35      C     4.05171389    -0.42059309    -0.81648505
     36      C     3.68754343     0.26989567     0.33167952
     37      C     3.55262320    -0.40460508     1.53702880
     38      H     4.33514320    -3.53133733     0.49483249
     39      H     4.56557312    -2.33264896    -1.64935890
     40      H     4.15646830     0.10643881    -1.75838463
     41      H     3.50408209     1.33777810     0.28729972
     42      C    -1.91540174    -3.43303616     4.46973429
     43      C    -3.30393801    -2.79257512     4.60548483
     44      H    -3.82081691    -3.19185875     5.47860492
     45      H    -3.21420681    -1.71173963     4.72062186
     46      H    -3.90844205    -2.99860581     3.72093947
     47      C    -2.05844662    -4.95463331     4.32408131
     48      H    -2.66084287    -5.20064893     3.44837294
     49      H    -2.53973527    -5.37674273     5.20680411
     50      H    -1.07656338    -5.41560269     4.21121999
     51      C    -1.07014219    -3.10788424     5.70829560
     52      H    -0.89364189    -2.03367548     5.77458500
     53      H    -1.57871448    -3.44094390     6.61359425
     54      H    -0.10440548    -3.60951711     5.64648320
 
Total System Charge             0.00000
Bonding info available!
 
 
----------------
ADF Engine Input
----------------
 
 Basis
 Type TZ2P
 Core None
 End
 XC
 GGA OLYP
 End
 

 Title: *** (NO TITLE) ***

 Using automatic Hessian for delocalized coordinates.
 *** GO1_GOStep1 ***

 Energy gradients wrt nuclear displacements
 ==========================================

     Atom      Cartesian (a.u./angstrom)
                 X         Y         Z
 ----------------------------------------
     1 C     0.006349 -0.000319  0.001220
     2 C     0.005241  0.008518  0.000379
     3 C     0.008218 -0.040318  0.020443
     4 O    -0.002825  0.051112 -0.016454
     5 C     0.001377 -0.008117  0.000814
     6 H     0.000188  0.002156  0.002059
     7 H     0.000115 -0.002292  0.006797
     8 H    -0.000796  0.004376  0.004938
     9 C     0.000830 -0.007142  0.006333
    10 C     0.000517  0.001637  0.003027
    11 H     0.001057 -0.005408  0.004974
    12 H     0.000494 -0.000840 -0.004424
    13 H     0.001044 -0.004793 -0.000838
    14 H     0.000491 -0.003249  0.003349
    15 H    -0.000668  0.000677  0.003997
    16 C     0.002609  0.001824  0.007334
    17 C     0.005418  0.002715 -0.004581
    18 C     0.001519  0.001163 -0.005580
    19 N    -0.010499 -0.010036 -0.015085
    20 C    -0.002900  0.042766  0.003667
    21 S    -0.001705 -0.026583 -0.023914
    22 N     0.012741 -0.021174  0.000968
    23 C    -0.003246 -0.001130  0.005002
    24 H     0.001925  0.001420 -0.002261
    25 C     0.002198  0.005416 -0.007023
    26 H    -0.002410 -0.001192  0.001291
    27 H    -0.003249  0.006168  0.003503
    28 H     0.002395  0.008040  0.002894
    29 H    -0.001058  0.000469 -0.001557
    30 H    -0.002862  0.000297  0.001241
    31 H     0.001217 -0.000153  0.001274
    32 C    -0.010544  0.000837 -0.010058
    33 C    -0.006988 -0.000173  0.002233
    34 C    -0.005116  0.004187  0.005741
    35 C    -0.003920 -0.004114  0.004755
    36 C    -0.006113 -0.006079  0.001027
    37 C    -0.007468 -0.008677 -0.003213
    38 H    -0.002252  0.003851  0.001008
    39 H    -0.001994  0.002143  0.004068
    40 H    -0.001154 -0.002201  0.004212
    41 H    -0.000170 -0.002927  0.000159
    42 C     0.009414  0.000501 -0.003584
    43 C    -0.007185  0.002278  0.003166
    44 H     0.004893 -0.000058 -0.002925
    45 H     0.003381 -0.005897 -0.000933
    46 H     0.006845 -0.000900  0.003184
    47 C    -0.000907 -0.006080  0.000394
    48 H     0.003894  0.005168  0.003861
    49 H     0.001835  0.005021 -0.002562
    50 H    -0.001309  0.006592 -0.001064
    51 C     0.003577 -0.001710  0.001761
    52 H    -0.000982  0.000386 -0.004860
    53 H     0.001533  0.002392 -0.005094
    54 H    -0.002994 -0.000553 -0.005062
 ----------------------------------------
 Mulliken charges used for AMS results%charges...
 
----------------------------------------------------------------------
Geometry Convergence after Step   1       (Hartree/Angstrom,Angstrom)
----------------------------------------------------------------------
current energy                              -11.56668746 Hartree
energy change                     -11.56668746     0.00054000    F
constrained gradient max            0.05103163     0.00100000    F
constrained gradient rms            0.00841871     0.00066667    F
gradient max                        0.05103163
gradient rms                        0.00841871
cart. step max                      0.21174637     0.01000000    F
cart. step rms                      0.05021117     0.00666667    F
 
 
--------
Geometry
--------
Formula: C22H28N2OS
Atoms
  Index Symbol   x (angstrom)   y (angstrom)   z (angstrom)
      1      C     0.76320320    -0.93119040    -0.76964413
      2      C     0.75928403    -2.00586836     0.05345075
      3      C     1.13432784    -3.34020191    -0.37903403
      4      O     1.21153551    -4.30486836     0.38391523
      5      C    -0.07449839     3.10881607     0.30576793
      6      H     1.01075548    -1.07593704    -1.82100986
      7      H     0.50331821    -1.90448168     1.10106031
      8      H     1.36474214    -3.44499568    -1.46220725
      9      C     0.08224378     2.74946378    -1.03155223
     10      C     0.35427918     1.42901058    -1.36715500
     11      H     0.41830432     0.09129209     1.77473666
     12      H    -0.06824103     2.41805191     2.34569549
     13      H    -0.28350343     4.14123643     0.57112729
     14      H    -0.00403237     3.50095676    -1.81116999
     15      H     0.47969162     1.15357725    -2.41082519
     16      C     0.46670638     0.43845090    -0.37350005
     17      C     0.31021921     0.81730025     0.97317711
     18      C     0.04423150     2.13905644     1.30201181
     19      N     2.44100903    -3.23671169     2.94136013
     20      C     1.27467467    -2.58907748     3.28151709
     21      S     1.22341984    -1.05002098     3.92387704
     22      N     0.17111934    -3.37417249     3.08312689
     23      C     3.70322509    -2.50076428     2.87551534
     24      H     2.34198870    -3.96064169     2.23738489
     25      C    -1.19166743    -2.88441203     3.26356723
     26      H     0.28422263    -4.18402116     2.48982449
     27      H     3.71348594    -1.79818738     3.71116248
     28      H    -1.12698729    -1.79486240     3.34610905
     29      H     4.51829118    -3.22218322     2.99782381
     30      H     3.31986350     0.15375013     2.38650270
     31      H    -1.75965430    -3.14698493     2.36289602
     32      C     3.84149174    -1.75871556     1.56015706
     33      C     4.18053970    -2.45022728     0.39459673
     34      C     4.28096788    -1.77923922    -0.81919957
     35      C     4.04303876    -0.40868803    -0.88160239
     36      C     3.70243780     0.28698031     0.27422718
     37      C     3.59999870    -0.38403047     1.48828095
     38      H     4.37068537    -3.51934665     0.43591039
     39      H     4.54739715    -2.32596806    -1.71976628
     40      H     4.12412212     0.11532518    -1.82991337
     41      H     3.51410579     1.35524226     0.22920119
     42      C    -1.95209158    -3.44689618     4.49582553
     43      C    -3.33691569    -2.77663068     4.52841252
     44      H    -3.92720484    -3.15741056     5.36500498
     45      H    -3.24051290    -1.69400907     4.64427003
     46      H    -3.88903568    -2.97347312     3.60508168
     47      C    -2.11449883    -4.97132547     4.34836805
     48      H    -2.66189513    -5.21888498     3.43429593
     49      H    -2.66510334    -5.38292836     5.19743198
     50      H    -1.13993738    -5.46278214     4.30737419
     51      C    -1.20128250    -3.13637474     5.80233046
     52      H    -1.00992012    -2.06679231     5.89581304
     53      H    -1.79046085    -3.46367770     6.66268961
     54      H    -0.24083867    -3.65312098     5.82952435
 
Total System Charge             0.00000
Bonding info available!
 
 *** GO1_GOStep2 ***

 Energy gradients wrt nuclear displacements
 ==========================================

     Atom      Cartesian (a.u./angstrom)
                 X         Y         Z
 ----------------------------------------
     1 C     0.007479  0.000860 -0.003484
     2 C     0.004541  0.003945  0.005162
     3 C     0.007098 -0.010525 -0.002910
     4 O    -0.000619  0.015812  0.010728
     5 C     0.000235 -0.001943  0.000678
     6 H     0.000267  0.001721  0.000842
     7 H    -0.000503 -0.002226  0.007705
     8 H    -0.000080  0.004523  0.000177
     9 C     0.000209 -0.001442  0.002043
    10 C     0.000880  0.000524 -0.000534
    11 H     0.000795 -0.004430  0.004753
    12 H     0.000093 -0.000324 -0.001799
    13 H     0.000473 -0.001935 -0.000266
    14 H     0.000299 -0.001061  0.001648
    15 H    -0.000300  0.000338  0.002016
    16 C     0.003267  0.000320  0.005794
    17 C     0.006514 -0.003304  0.000421
    18 C     0.000914  0.001018 -0.000314
    19 N    -0.003960 -0.012334 -0.011940
    20 C    -0.000936  0.033554 -0.001157
    21 S     0.001517 -0.007783 -0.018576
    22 N     0.010827 -0.020333 -0.013286
    23 C     0.001776 -0.001198  0.006874
    24 H     0.002149  0.000803 -0.003394
    25 C     0.000169  0.003297 -0.002451
    26 H    -0.002982 -0.000425  0.000839
    27 H    -0.002726  0.003537  0.000688
    28 H     0.002912  0.003246  0.001986
    29 H     0.000184  0.000434 -0.000718
    30 H    -0.002097 -0.000175  0.000215
    31 H     0.000450 -0.002843  0.001571
    32 C    -0.008515 -0.001564 -0.005544
    33 C    -0.006552 -0.002731  0.001488
    34 C    -0.004410  0.001454  0.003689
    35 C    -0.003627 -0.001850  0.002517
    36 C    -0.007350 -0.001886  0.000659
    37 C    -0.008599 -0.001890  0.000712
    38 H    -0.001479  0.001615  0.000833
    39 H    -0.001196  0.000849  0.001691
    40 H    -0.000773 -0.000934  0.001845
    41 H    -0.000399 -0.001270 -0.000078
    42 C    -0.000534  0.005651 -0.002116
    43 C    -0.004983  0.001392  0.003660
    44 H     0.002322  0.000005 -0.001087
    45 H     0.002024 -0.002964 -0.000411
    46 H     0.003625 -0.000749  0.001546
    47 C     0.000676 -0.004726  0.000831
    48 H     0.001958  0.002849  0.001781
    49 H     0.001305  0.002923 -0.001197
    50 H    -0.001195  0.003324 -0.000645
    51 C     0.001507 -0.000872  0.003932
    52 H    -0.000472 -0.001532 -0.002787
    53 H     0.000535  0.001206 -0.002397
    54 H    -0.002712  0.000046 -0.002234
 ----------------------------------------
 Mulliken charges used for AMS results%charges...

 dE(predicted):    -0.70279E-02, dE(actual):    -0.59907E-02, Trust radius:    0.400000, all in a.u.
 
----------------------------------------------------------------------
Geometry Convergence after Step   2       (Hartree/Angstrom,Angstrom)
----------------------------------------------------------------------
current energy                              -11.57267812 Hartree
energy change                      -0.00599066     0.00054000    F
constrained gradient max            0.03364958     0.00100000    F
constrained gradient rms            0.00510753     0.00066667    F
gradient max                        0.03364958
gradient rms                        0.00510753
cart. step max                      0.15638048     0.01000000    F
cart. step rms                      0.05338875     0.00666667    F
 
 
--------
Geometry
--------
Formula: C22H28N2OS
Atoms
  Index Symbol   x (angstrom)   y (angstrom)   z (angstrom)
      1      C     0.75220605    -0.92472565    -0.74023262
      2      C     0.74992569    -1.98849426     0.10036503
      3      C     1.10874137    -3.33163930    -0.31671565
      4      O     1.19076703    -4.29079133     0.45789464
      5      C    -0.01047827     3.15807142     0.26439814
      6      H     0.97465757    -1.09600398    -1.79396245
      7      H     0.50186400    -1.86985789     1.14742985
      8      H     1.31898067    -3.46584030    -1.40125065
      9      C     0.10980665     2.76692232    -1.07000615
     10      C     0.35671325     1.43301360    -1.38117620
     11      H     0.46487784     0.16489833     1.79560320
     12      H     0.02831200     2.50798333     2.32129702
     13      H    -0.20108486     4.20000568     0.51276610
     14      H     0.01349931     3.50247393    -1.86552557
     15      H     0.45353591     1.13395799    -2.42288699
     16      C     0.48243060     0.46027515    -0.36837700
     17      C     0.36242979     0.87166517     0.97660948
     18      C     0.11676208     2.20541104     1.28020747
     19      N     2.45233368    -3.16655210     2.98689445
     20      C     1.28059700    -2.53013810     3.34357144
     21      S     1.22868269    -0.97302911     3.97445277
     22      N     0.17028284    -3.31300121     3.15835113
     23      C     3.72920405    -2.45005547     2.85812034
     24      H     2.33717807    -3.90496615     2.29915833
     25      C    -1.20905318    -2.86239369     3.33084624
     26      H     0.28872493    -4.12600411     2.56961064
     27      H     3.78260087    -1.73662671     3.67977338
     28      H    -1.18465342    -1.77610697     3.43715766
     29      H     4.52733109    -3.19029216     2.98175339
     30      H     3.42601984     0.20997817     2.31906012
     31      H    -1.75436938    -3.11934402     2.41384520
     32      C     3.87995842    -1.73344553     1.52462541
     33      C     4.18669019    -2.45055543     0.36133202
     34      C     4.26765056    -1.80760277    -0.87171740
     35      C     4.04084186    -0.43444860    -0.95920413
     36      C     3.73986010     0.28981229     0.19236054
     37      C     3.66812395    -0.35283778     1.42575138
     38      H     4.36894820    -3.52184829     0.41667410
     39      H     4.51003108    -2.37695095    -1.76707802
     40      H     4.10407776     0.06913465    -1.92177356
     41      H     3.56455734     1.36035490     0.12987653
     42      C    -1.98533332    -3.49859836     4.52152235
     43      C    -3.38668770    -2.85639620     4.52548078
     44      H    -4.00355362    -3.28320945     5.32188643
     45      H    -3.32648042    -1.77549750     4.69154867
     46      H    -3.90826561    -3.02120844     3.57571841
     47      C    -2.11437375    -5.02097891     4.29814176
     48      H    -2.63012264    -5.24330105     3.35651972
     49      H    -2.68447441    -5.48805006     5.10739207
     50      H    -1.13209817    -5.50219429     4.26650279
     51      C    -1.27978451    -3.23064201     5.86541123
     52      H    -1.12115944    -2.16253024     6.02759915
     53      H    -1.88374944    -3.62005818     6.69149109
     54      H    -0.30283660    -3.71933580     5.90473217
 
Total System Charge             0.00000
Bonding info available!
 
 *** GO1_GOStep3 ***

 Energy gradients wrt nuclear displacements
 ==========================================

     Atom      Cartesian (a.u./angstrom)
                 X         Y         Z
 ----------------------------------------
     1 C     0.007739  0.000541 -0.003466
     2 C     0.004936  0.000593  0.006570
     3 C     0.007282 -0.001592 -0.004471
     4 O     0.000356  0.008423  0.012827
     5 C     0.000029  0.000799  0.000443
     6 H    -0.000385  0.000809  0.000048
     7 H    -0.001528 -0.002528  0.006129
     8 H     0.000018  0.001738 -0.000563
     9 C     0.000085  0.000612 -0.000396
    10 C     0.000095  0.000534 -0.001184
    11 H    -0.000701 -0.002895  0.005129
    12 H    -0.000120  0.000036  0.000164
    13 H     0.000037  0.000169  0.000222
    14 H     0.000049  0.000401  0.000312
    15 H    -0.000016  0.000210  0.000268
    16 C     0.003978  0.000210  0.002252
    17 C     0.009058 -0.006009  0.004792
    18 C     0.000165 -0.000026  0.001601
    19 N    -0.000507 -0.009079 -0.003049
    20 C    -0.000039  0.013353 -0.003028
    21 S     0.000545  0.004346 -0.013360
    22 N     0.002223 -0.013298 -0.009771
    23 C     0.003773 -0.001125  0.003125
    24 H     0.002493  0.000855 -0.004696
    25 C    -0.003154  0.006621 -0.003290
    26 H    -0.003675  0.000032  0.000436
    27 H    -0.001699  0.000281 -0.001134
    28 H     0.001072  0.000413 -0.000656
    29 H     0.000428  0.000553 -0.000474
    30 H    -0.000507 -0.001055 -0.000666
    31 H    -0.001062 -0.003853  0.001933
    32 C    -0.002094 -0.000519 -0.001143
    33 C    -0.006152 -0.001958  0.000371
    34 C    -0.004396 -0.000392  0.001081
    35 C    -0.003534 -0.000459  0.001007
    36 C    -0.009863 -0.000603  0.000485
    37 C    -0.005695  0.002266  0.001688
    38 H    -0.000164  0.000255  0.000206
    39 H    -0.000557  0.000072 -0.000455
    40 H    -0.000210  0.000082 -0.000103
    41 H    -0.000641 -0.000153 -0.000181
    42 C    -0.000970  0.002988  0.001381
    43 C    -0.001372  0.000148 -0.000283
    44 H     0.001022 -0.000177 -0.000224
    45 H     0.000467 -0.000282 -0.000209
    46 H     0.000264  0.000088 -0.000047
    47 C     0.000658 -0.002455  0.000263
    48 H     0.000267  0.000322 -0.000144
    49 H     0.000193  0.000357 -0.000320
    50 H    -0.000016  0.000832 -0.000702
    51 C     0.001860  0.000599  0.002574
    52 H     0.000597 -0.001043 -0.000695
    53 H    -0.000263  0.000183 -0.000502
    54 H    -0.000370 -0.000222 -0.000096
 ----------------------------------------
 Mulliken charges used for AMS results%charges...

 dE(predicted):    -0.39100E-02, dE(actual):    -0.38045E-02, Trust radius:    0.800000, all in a.u.
 
----------------------------------------------------------------------
Geometry Convergence after Step   3       (Hartree/Angstrom,Angstrom)
----------------------------------------------------------------------
current energy                              -11.57648258 Hartree
energy change                      -0.00380446     0.00054000    F
constrained gradient max            0.01344863     0.00100000    F
constrained gradient rms            0.00340335     0.00066667    F
gradient max                        0.01344863
gradient rms                        0.00340335
cart. step max                      0.21286314     0.01000000    F
cart. step rms                      0.05408734     0.00666667    F
 
 
--------
Geometry
--------
Formula: C22H28N2OS
Atoms
  Index Symbol   x (angstrom)   y (angstrom)   z (angstrom)
      1      C     0.74033501    -0.92165091    -0.71856233
      2      C     0.73659655    -1.97068145     0.13924250
      3      C     1.08109140    -3.32334851    -0.25869581
      4      O     1.16913972    -4.27406681     0.52596904
      5      C     0.03519143     3.19140035     0.20346337
      6      H     0.94734889    -1.11768629    -1.77136606
      7      H     0.49825851    -1.83114840     1.18501416
      8      H     1.27700491    -3.48063357    -1.34266895
      9      C     0.12904722     2.76733370    -1.12287511
     10      C     0.35933475     1.42422161    -1.40579034
     11      H     0.49790363     0.23130658     1.80054109
     12      H     0.10152046     2.58944105     2.27445694
     13      H    -0.14081304     4.24100273     0.43058143
     14      H     0.02561070     3.48425390    -1.93460553
     15      H     0.43489241     1.09988895    -2.44201511
     16      C     0.49187293     0.47417831    -0.37312351
     17      C     0.39725596     0.91843184     0.96443065
     18      C     0.16972503     2.26152747     1.23920706
     19      N     2.45005124    -3.08992323     3.02831135
     20      C     1.28201537    -2.45719737     3.39654871
     21      S     1.22267563    -0.89070986     4.01321604
     22      N     0.17624421    -3.24414671     3.22710545
     23      C     3.73524249    -2.39234299     2.86008022
     24      H     2.31941580    -3.84677482     2.36280586
     25      C    -1.20901502    -2.81940897     3.40529960
     26      H     0.30024783    -4.06129996     2.64434606
     27      H     3.81733922    -1.66411154     3.66613667
     28      H    -1.20159207    -1.74203944     3.57706816
     29      H     4.51871052    -3.14664266     2.99334523
     30      H     3.49318244     0.26108174     2.26298903
     31      H    -1.73429968    -3.01919499     2.46242959
     32      C     3.89500540    -1.70949450     1.50851681
     33      C     4.18199742    -2.45508599     0.35705597
     34      C     4.25698904    -1.84216482    -0.89192950
     35      C     4.03861264    -0.46949445    -1.00970125
     36      C     3.76552441     0.28471846     0.12984054
     37      C     3.70965638    -0.32770367     1.37931932
     38      H     4.35316754    -3.52737370     0.43261724
     39      H     4.48595443    -2.43481924    -1.77585646
     40      H     4.09238768     0.01113715    -1.98479622
     41      H     3.60400160     1.35619550     0.04630508
     42      C    -2.00151079    -3.54447127     4.53421157
     43      C    -3.40638951    -2.90925208     4.56341892
     44      H    -4.03595518    -3.39505064     5.31584397
     45      H    -3.35676660    -1.84276685     4.81012670
     46      H    -3.91428308    -3.00513669     3.59639368
     47      C    -2.12571396    -5.04749202     4.20129276
     48      H    -2.62545708    -5.20465615     3.23748410
     49      H    -2.71101149    -5.57101035     4.96472926
     50      H    -1.14434810    -5.53075873     4.15473965
     51      C    -1.31959104    -3.37121601     5.90475864
     52      H    -1.18000936    -2.31653886     6.15430060
     53      H    -1.92806568    -3.83292132     6.68998402
     54      H    -0.33508350    -3.84729789     5.92228536
 
Total System Charge             0.00000
Bonding info available!
 
 *** GO1_GOStep4 ***

 Energy gradients wrt nuclear displacements
 ==========================================

     Atom      Cartesian (a.u./angstrom)
                 X         Y         Z
 ----------------------------------------
     1 C     0.007201  0.000114 -0.001353
     2 C     0.004928  0.001488  0.005233
     3 C     0.006594  0.000707 -0.002714
     4 O     0.001192  0.006715  0.010715
     5 C    -0.000160  0.000556  0.000311
     6 H    -0.000612  0.000278 -0.000036
     7 H    -0.001631 -0.002423  0.004460
     8 H     0.000188  0.000257 -0.000154
     9 C    -0.000026  0.000179 -0.000208
    10 C     0.000163  0.000485 -0.000244
    11 H    -0.001353 -0.002289  0.005645
    12 H     0.000017  0.000150  0.000514
    13 H     0.000004  0.000470  0.000357
    14 H    -0.000028  0.000534  0.000055
    15 H    -0.000147  0.000127 -0.000134
    16 C     0.004351  0.000736  0.000420
    17 C     0.009596 -0.005398  0.005262
    18 C     0.000083 -0.000444  0.000959
    19 N    -0.002413 -0.006919  0.000887
    20 C    -0.000534  0.003557 -0.004154
    21 S    -0.001779  0.006698 -0.011708
    22 N     0.003796 -0.006602 -0.008232
    23 C     0.003130  0.000354  0.000786
    24 H     0.001166  0.000040 -0.005244
    25 C    -0.001527  0.006286 -0.001520
    26 H    -0.002900 -0.000069  0.000125
    27 H    -0.000689 -0.000433 -0.001022
    28 H    -0.000208  0.000097 -0.001711
    29 H    -0.000132  0.000138 -0.000397
    30 H     0.000135 -0.001029 -0.000590
    31 H     0.000018 -0.003709  0.001558
    32 C     0.000038 -0.000030 -0.000337
    33 C    -0.005922 -0.000597 -0.000135
    34 C    -0.003905 -0.000882  0.000409
    35 C    -0.004160 -0.000271  0.000679
    36 C    -0.010954 -0.000818  0.000685
    37 C    -0.002930  0.002285  0.000689
    38 H     0.000205 -0.000087 -0.000186
    39 H    -0.000295 -0.000017 -0.000733
    40 H    -0.000087  0.000320 -0.000411
    41 H    -0.000552  0.000067 -0.000055
    42 C    -0.000711  0.002050  0.001432
    43 C     0.000080 -0.000724 -0.000160
    44 H     0.000120  0.000000  0.000063
    45 H    -0.000052  0.000441  0.000049
    46 H    -0.000409  0.000133 -0.000276
    47 C     0.000652 -0.001156  0.000198
    48 H    -0.000319 -0.000218 -0.000679
    49 H    -0.000190 -0.000399 -0.000078
    50 H     0.000318  0.000295 -0.000540
    51 C     0.000389  0.000504  0.001624
    52 H     0.000634 -0.000817 -0.000140
    53 H    -0.000432 -0.000331 -0.000134
    54 H     0.000060 -0.000399  0.000172
 ----------------------------------------
 Mulliken charges used for AMS results%charges...

 dE(predicted):    -0.22854E-02, dE(actual):    -0.18723E-02, Trust radius:    0.800000, all in a.u.
 
----------------------------------------------------------------------
Geometry Convergence after Step   4       (Hartree/Angstrom,Angstrom)
----------------------------------------------------------------------
current energy                              -11.57835485 Hartree
energy change                      -0.00187227     0.00054000    F
constrained gradient max            0.01173696     0.00100000    F
constrained gradient rms            0.00282153     0.00066667    F
gradient max                        0.01173696
gradient rms                        0.00282153
cart. step max                      0.21393405     0.01000000    F
cart. step rms                      0.05300255     0.00666667    F
 
 
--------
Geometry
--------
Formula: C22H28N2OS
Atoms
  Index Symbol   x (angstrom)   y (angstrom)   z (angstrom)
      1      C     0.73013325    -0.91959652    -0.70373230
      2      C     0.72110620    -1.95477240     0.17065321
      3      C     1.05335101    -3.31631202    -0.20761344
      4      O     1.14395425    -4.26011522     0.58713235
      5      C     0.07473065     3.21998152     0.13674589
      6      H     0.92959613    -1.13778287    -1.75386569
      7      H     0.49076825    -1.79367789     1.21431626
      8      H     1.23861886    -3.49285467    -1.29053076
      9      C     0.15137742     2.76574398    -1.18056026
     10      C     0.36445118     1.41403169    -1.43552732
     11      H     0.52221501     0.29303696     1.79742755
     12      H     0.15318920     2.66216635     2.21975410
     13      H    -0.08758190     4.27623560     0.34277729
     14      H     0.04826149     3.46543112    -2.00728666
     15      H     0.42915140     1.06706254    -2.46525482
     16      C     0.49774231     0.48510837    -0.38415883
     17      C     0.41980851     0.95989813     0.94470133
     18      C     0.20787875     2.31116717     1.19113250
     19      N     2.43973040    -3.01588475     3.06556622
     20      C     1.27565487    -2.38526153     3.44297032
     21      S     1.21573147    -0.81090052     4.04609113
     22      N     0.17310778    -3.17652911     3.28739322
     23      C     3.73172737    -2.33721860     2.86990120
     24      H     2.29631548    -3.79056759     2.42330211
     25      C    -1.21538272    -2.77559625     3.47916447
     26      H     0.30211343    -3.99669621     2.70866837
     27      H     3.83358540    -1.59475033     3.66084936
     28      H    -1.21536516    -1.71426609     3.72925826
     29      H     4.50366565    -3.10134049     3.01627661
     30      H     3.53695849     0.30684707     2.21592632
     31      H    -1.73250093    -2.90061728     2.51827352
     32      C     3.89964290    -1.68739710     1.50272682
     33      C     4.17477850    -2.46057703     0.36581066
     34      C     4.25115659    -1.87598107    -0.89662639
     35      C     4.04207899    -0.50430228    -1.04426818
     36      C     3.78769288     0.27846647     0.08056447
     37      C     3.73709161    -0.30582189     1.34382155
     38      H     4.33443959    -3.53318850     0.46249875
     39      H     4.47224128    -2.49029319    -1.76766249
     40      H     4.09232294    -0.04606463    -2.03033345
     41      H     3.63955825     1.35012538    -0.02448253
     42      C    -2.01161763    -3.58876208     4.54359529
     43      C    -3.41645826    -2.95656851     4.61926525
     44      H    -4.04948474    -3.49969127     5.32908762
     45      H    -3.36856456    -1.91276524     4.94975097
     46      H    -3.92283170    -2.97567529     3.64665124
     47      C    -2.14087484    -5.06207108     4.09869084
     48      H    -2.63726490    -5.14599129     3.12389787
     49      H    -2.73343551    -5.63761739     4.81825755
     50      H    -1.16362341    -5.55071551     4.02206544
     51      C    -1.32955129    -3.51724931     5.92227084
     52      H    -1.20261739    -2.48367093     6.25606354
     53      H    -1.92943186    -4.04685537     6.67078500
     54      H    -0.33869531    -3.98089747     5.90164407
 
Total System Charge             0.00000
Bonding info available!
 
 *** GO1_GOStep5 ***

 Energy gradients wrt nuclear displacements
 ==========================================

     Atom      Cartesian (a.u./angstrom)
                 X         Y         Z
 ----------------------------------------
     1 C     0.006898  0.000607 -0.000152
     2 C     0.004418  0.001750  0.004417
     3 C     0.005977  0.004050 -0.002717
     4 O     0.002008  0.002764  0.010713
     5 C     0.000070  0.000615  0.000238
     6 H    -0.000516 -0.000110 -0.000129
     7 H    -0.001325 -0.002036  0.003094
     8 H     0.000250 -0.000571 -0.000120
     9 C     0.000006  0.000293 -0.000082
    10 C    -0.000330  0.000140  0.000297
    11 H    -0.001191 -0.001720  0.006271
    12 H     0.000049  0.000172  0.000685
    13 H    -0.000049  0.000554  0.000411
    14 H    -0.000076  0.000561 -0.000074
    15 H     0.000073  0.000190 -0.000314
    16 C     0.004451  0.000735 -0.000890
    17 C     0.009265 -0.005108  0.005107
    18 C    -0.000301 -0.000530  0.000642
    19 N    -0.003073 -0.004049  0.003037
    20 C    -0.000709 -0.003216 -0.004632
    21 S    -0.002669  0.008077 -0.010417
    22 N     0.003792 -0.001236 -0.006066
    23 C     0.002558  0.001196 -0.001092
    24 H    -0.000373 -0.000486 -0.005169
    25 C    -0.000716  0.004750 -0.000534
    26 H    -0.001991 -0.000430 -0.000266
    27 H    -0.000004 -0.000825 -0.000673
    28 H    -0.000563 -0.000368 -0.002299
    29 H    -0.000309 -0.000232 -0.000232
    30 H     0.000329 -0.000643 -0.000282
    31 H     0.000207 -0.003009  0.000978
    32 C     0.000551 -0.000169  0.000295
    33 C    -0.005587 -0.000158 -0.000788
    34 C    -0.003274 -0.001304  0.000151
    35 C    -0.004616 -0.000213  0.000425
    36 C    -0.011410 -0.000291  0.000801
    37 C    -0.000968  0.001774 -0.000133
    38 H     0.000317 -0.000404 -0.000448
    39 H    -0.000069 -0.000059 -0.000718
    40 H    -0.000133  0.000421 -0.000478
    41 H    -0.000406  0.000246  0.000047
    42 C    -0.000639  0.000209  0.001647
    43 C     0.001086 -0.000445 -0.000544
    44 H    -0.000385 -0.000049  0.000297
    45 H    -0.000375  0.000608  0.000211
    46 H    -0.000776  0.000159 -0.000300
    47 C     0.000338 -0.000138  0.000288
    48 H    -0.000636 -0.000594 -0.000770
    49 H    -0.000310 -0.000772 -0.000042
    50 H     0.000353 -0.000163 -0.000307
    51 C     0.000000  0.000884  0.000025
    52 H     0.000750 -0.000380  0.000081
    53 H    -0.000453 -0.000525  0.000173
    54 H     0.000488 -0.000523  0.000336
 ----------------------------------------
 Mulliken charges used for AMS results%charges...

 dE(predicted):    -0.20984E-02, dE(actual):    -0.13681E-02, Trust radius:    0.800000, all in a.u.
 
----------------------------------------------------------------------
Geometry Convergence after Step   5       (Hartree/Angstrom,Angstrom)
----------------------------------------------------------------------
current energy                              -11.57972297 Hartree
energy change                      -0.00136813     0.00054000    F
constrained gradient max            0.01140031     0.00100000    F
constrained gradient rms            0.00259776     0.00066667    F
gradient max                        0.01140031
gradient rms                        0.00259776
cart. step max                      0.21536149     0.01000000    F
cart. step rms                      0.05295141     0.00666667    F
 
 
--------
Geometry
--------
Formula: C22H28N2OS
Atoms
  Index Symbol   x (angstrom)   y (angstrom)   z (angstrom)
      1      C     0.72010286    -0.92013708    -0.69147948
      2      C     0.70559450    -1.94167208     0.19873509
      3      C     1.02611447    -3.31082601    -0.16113758
      4      O     1.11690449    -4.24714127     0.64237963
      5      C     0.10351722     3.24078188     0.06921549
      6      H     0.91480707    -1.15833599    -1.73829722
      7      H     0.48242705    -1.76002196     1.24010976
      8      H     1.20268825    -3.50384876    -1.24268007
      9      C     0.16698973     2.75824717    -1.23851486
     10      C     0.36755875     1.39969198    -1.46591574
     11      H     0.54025058     0.34777493     1.79076000
     12      H     0.19306267     2.72609950     2.16283333
     13      H    -0.04718484     4.30262626     0.25432859
     14      H     0.06412384     3.44085451    -2.07933874
     15      H     0.42137590     1.03057070    -2.48853429
     16      C     0.50019316     0.49166208    -0.39657559
     17      C     0.43426160     0.99485993     0.92275479
     18      C     0.23636614     2.35315598     1.14139770
     19      N     2.43019089    -2.95033465     3.09921146
     20      C     1.27061344    -2.31939234     3.48487034
     21      S     1.21550648    -0.73835994     4.07467203
     22      N     0.16879016    -3.11321380     3.34359929
     23      C     3.72649263    -2.28735265     2.88362543
     24      H     2.27718656    -3.73932096     2.47723653
     25      C    -1.21895280    -2.72766665     3.55616610
     26      H     0.29862689    -3.93443451     2.76530685
     27      H     3.84121629    -1.53142459     3.66037651
     28      H    -1.21801318    -1.68827673     3.88512803
     29      H     4.49067106    -3.05692033     3.04358252
     30      H     3.56691046     0.34608666     2.17627571
     31      H    -1.73584837    -2.77311066     2.58721658
     32      C     3.90061670    -1.66795734     1.50311069
     33      C     4.16785401    -2.46652905     0.38131985
     34      C     4.24820550    -1.90843137    -0.89272704
     35      C     4.04909774    -0.53840619    -1.06846199
     36      C     3.80764709     0.27012205     0.04094235
     37      C     3.75617699    -0.28793669     1.31625883
     38      H     4.31691007    -3.53867552     0.49856732
     39      H     4.46297257    -2.54245472    -1.75098503
     40      H     4.09932706    -0.10122070    -2.06397968
     41      H     3.67160131     1.34118729    -0.08496033
     42      C    -2.01568090    -3.62257991     4.55184869
     43      C    -3.41934345    -2.99640405     4.68158329
     44      H    -4.05381241    -3.59652797     5.34293878
     45      H    -3.36989810    -1.98438275     5.09915541
     46      H    -3.92608148    -2.93260695     3.71101678
     47      C    -2.15334438    -5.05351650     3.98814494
     48      H    -2.64891879    -5.05439815     3.00944681
     49      H    -2.75184151    -5.68090441     4.65791098
     50      H    -1.18120194    -5.54545436     3.87334724
     51      C    -1.33085174    -3.66486050     5.92968526
     52      H    -1.21339027    -2.66256280     6.35245173
     53      H    -1.92239109    -4.26221686     6.63254444
     54      H    -0.33555137    -4.11549760     5.86735875
 
Total System Charge             0.00000
Bonding info available!
 
 *** GO1_GOStep6 ***
