

 Parallel Execution: Process Information
 ==============================================================================
 Rank   Node Name                              NodeID   MyNodeRank  NodeMaster
    0   node117                                   0          0          0
    1   node117                                   0          1         -1
    2   node117                                   0          2         -1
    3   node117                                   0          3         -1
 ==============================================================================


May use up to 122928MB of RAM as shared memory on node 0

 *******************************************************************************
 *                                                                             *
 *  --------------------------------                                           *
 *   Amsterdam Modeling Suite (AMS)              2021.102                      *
 *  --------------------------------                                           *
 *                                               r95042 2021-06-07             *
 *                                                                             *
 *                                                                             *
 *                              =================                              *
 *                              |               |                              *
 *                              |     A M S     |                              *
 *                              |               |                              *
 *                              =================                              *
 *                                                                             *
 *                                                                             *
 *   Online information and documentation:  https://www.scm.com/support/       *
 *   E-mail:  support@scm.com   info@scm.com                                   *
 *                                                                             *
 *   Scientific publications using AMS results must be properly referenced     *
 *   See the User Manuals (or the web site) for recommended citations          *
 *   The terms and conditions of the End User License Agreement apply to       *
 *   the use of AMS, https://www.scm.com/license-terms/                        *
 *                                                                             *
 **********************  x86_64_linux_intel / intelmpi  ************************
 
 Licensed to: VU/FEW (+ SARA) / ALGEMEEN / Amsterdam / THE NETHERLANDS
 SCM User ID: u7668
  
 AMS 2021.102  RunTime: Jan27-2022 12:31:26  ShM Nodes: 1  Procs: 4

 AMS jobname: 12.achiral_catalyst.H_Ph_TiCl4.Rsub_cat_complex
 AMS jobid  : 1640935224

 Start   directory: /scistor/tc/yhk800/MasterProject/calculations/achiral_catalyst_H_Ph_TiCl4/12.achiral_catalyst.H_Ph_TiCl4.Rsub_cat_complex/
 Results directory: /scistor/tc/yhk800/MasterProject/calculations/achiral_catalyst_H_Ph_TiCl4/12.achiral_catalyst.H_Ph_TiCl4.Rsub_cat_complex/
 Scratch directory: /scratch/5296/amstmp_12.achiral_catalyst.H_Ph_TiCl4.Rsub_cat_complex_kid0.1640935224/


 Communication costs MPI_COMM_WORLD:      2.819 usec per message,   0.0044 usec per 8-byte item
 Communication costs for intra-node:      2.088 usec per message,   0.0053 usec per 8-byte item

 RNG seed: -1276315094 -2040526320 972076646 523821337 749814792 -342963737 366213053 -1052370074



                      ************************************************************************
                      *  ADF 2021.102  RunTime: Jan27-2022 12:31:27  ShM Nodes: 1  Procs: 4  *
                      ************************************************************************
  
       ***************************
       *  GEOMETRY OPTIMIZATION  *
       ***************************

Optimization Method                    Quasi Newton
Optimization Coordinates               Delocalized Coordinates
Optimize lattice                       F
 
 ------------------------------------------------------
 Convergence criteria (Hartree,Angstrom)
 ------------------------------------------------------
 Maximum gradient               0.001000000000
 Maximum rms gradient           0.000666666667
 Maximum step allowed           0.010000000000
 Maximum rms step allowed       0.006666666667
 Maximum energy change allowe   0.000230000000
 Maximum stress energy allowe   0.000500000000
 
Initial model Hessian                  Automatic Hessian
 
------------------------------------
Quasi-Newton Optimizer Parameters
------------------------------------
Hessian Update Method                  BFGS
Maximum number of steps                  250
First GDIIS cycle                          0
Maximum GDIIS vectors                      0
Trust radius (bohr)                        0.200000
Trust radius varies                        T
Constraints converged at all steps         T
Use projector                              T
 
 Rigid motions settings for: old optimizer
 Atomic rotations (x,y,z):     T T T
 Atomic translations (x,y,z):  T T T
 Tolerance:                   1.000000000000000E-006
 
--------
Geometry
--------
Formula: C9H8Cl4OTi
Atoms
  Index Symbol   x (angstrom)   y (angstrom)   z (angstrom)
      1      H    -0.62056146    -0.03764738    -0.08023722
      2      C    -0.09659473    -2.02948020    -0.54883449
      3      C     0.18266548    -0.75219647    -0.26512258
      4      C     1.55928918    -0.22013974    -0.18291419
      5      O     1.86635738     0.93365884     0.07180470
      6      H     0.69695300    -2.74612423    -0.73626627
      7      C    -4.19306316    -3.45045331    -0.75693434
      8      C    -3.40647232    -3.74315213     0.36417241
      9      C    -2.08487807    -3.28472070     0.43130916
     10      C    -1.54987465    -2.53359044    -0.62266085
     11      C    -2.33646548    -2.24089162    -1.74376760
     12      C    -3.65805974    -2.69932305    -1.81090435
     13      H    -3.81587125    -4.31793708     1.17069844
     14      H    -1.48295774    -3.50870166     1.28921002
     15      H    -1.92706657    -1.66610667    -2.55029363
     16      H    -4.25998008    -2.47534209    -2.66880521
     17      H    -5.20438242    -3.80125730    -0.80830917
     18      H     2.32514145    -0.94333367    -0.37095895
     19     Ti     1.91414500     4.38051025     1.74146995
     20     Cl     1.85103070     2.46611042     0.80757453
     21     Cl     1.80087097     4.14332119     3.85617586
     22     Cl     0.26705963     5.55353714     1.06902036
     23     Cl     3.73761871     5.35907224     1.23310903
 
Total System Charge             0.00000
 
 
----------------
ADF Engine Input
----------------
 
 NumericalQuality VeryGood
 SCF
 Converge 1.0e-6
 Iterations 99
 End
 SYMMETRY NOSYM
 XC
 GGA OLYP
 End
 basis
 core None
 type TZ2P
 End
 

 Title: *** (NO TITLE) ***

Bad geometry: added dihedral     4    5   19   23
Bad geometry: added dihedral    21   19    5    4
Bad geometry: added dihedral    22   19    5    4
 Using automatic Hessian for delocalized coordinates.
 *** GOStep1 ***

 Energy gradients wrt nuclear displacements
 ==========================================

     Atom      Cartesian (a.u./angstrom)
                 X         Y         Z
 ----------------------------------------
     1 H    -0.000588  0.001886 -0.000280
     2 C     0.059937  0.021759  0.002296
     3 C    -0.022554 -0.042430 -0.007823
     4 C     0.072382  0.081383  0.005096
     5 O    -0.021368  0.283853  0.199689
     6 H    -0.005452  0.005677 -0.002095
     7 C    -0.025079 -0.008945 -0.000579
     8 C    -0.010876 -0.016710  0.022838
     9 C     0.017327  0.002284  0.018432
    10 C    -0.049326 -0.012415  0.001057
    11 C     0.015937  0.012004 -0.015523
    12 C    -0.015478  0.007406 -0.024961
    13 H     0.007018  0.010274 -0.015930
    14 H    -0.010886  0.004303 -0.016150
    15 H    -0.007475 -0.010215  0.014754
    16 H     0.010636 -0.004723  0.016534
    17 H     0.019093  0.006708  0.000989
    18 H    -0.037767  0.032847 -0.000196
    19 Ti   -0.001073 -0.006410 -0.008159
    20 Cl    0.006027 -0.324454 -0.170849
    21 Cl    0.003139  0.009313 -0.055347
    22 Cl    0.046300 -0.029595  0.020639
    23 Cl   -0.049876 -0.023801  0.015568
 ----------------------------------------
 Mulliken charges used for AMS results%charges...
 
----------------------------------------------------------------------
Geometry Convergence after Step   1       (Hartree/Angstrom,Angstrom)
----------------------------------------------------------------------
current energy                               -4.71341273 Hartree
energy change                      -4.71341273     0.00023000    F
constrained gradient max            0.32445629     0.00100000    F
constrained gradient rms            0.06535729     0.00066667    F
gradient max                        0.32445629
gradient rms                        0.06535729
cart. step max                      0.07292250     0.01000000    F
cart. step rms                      0.02458104     0.00666667    F
 
 
--------
Geometry
--------
Formula: C9H8Cl4OTi
Atoms
  Index Symbol   x (angstrom)   y (angstrom)   z (angstrom)
      1      H    -0.60286835    -0.04049742    -0.11157740
      2      C    -0.10842168    -2.05005093    -0.55841118
      3      C     0.18843849    -0.76939304    -0.28952575
      4      C     1.57005779    -0.26527985    -0.21850956
      5      O     1.89614294     0.90544446     0.02768683
      6      H     0.67988111    -2.77706001    -0.73771967
      7      C    -4.19897088    -3.44997400    -0.75120150
      8      C    -3.41402974    -3.73400963     0.37115169
      9      C    -2.09192505    -3.28213917     0.43389265
     10      C    -1.55326559    -2.54423375    -0.62721684
     11      C    -2.33945298    -2.26026505    -1.75053700
     12      C    -3.66141957    -2.71335188    -1.81157160
     13      H    -3.82728386    -4.30075770     1.18749431
     14      H    -1.48894193    -3.50131245     1.29798451
     15      H    -1.92668668    -1.69348706    -2.56688060
     16      H    -4.26497568    -2.49454548    -2.67542791
     17      H    -5.21628125    -3.79818970    -0.79875804
     18      H     2.33353393    -1.00925023    -0.39943906
     19     Ti     1.91848997     4.43663330     1.77590544
     20     Cl     1.86991955     2.52085518     0.81504674
     21     Cl     1.79887425     4.16740959     3.89907127
     22     Cl     0.25386026     5.60727243     1.10092664
     23     Cl     3.75022878     5.43199474     1.27615163
 
Total System Charge             0.00000
 
 *** GOStep2 ***

 Energy gradients wrt nuclear displacements
 ==========================================

     Atom      Cartesian (a.u./angstrom)
                 X         Y         Z
 ----------------------------------------
     1 H    -0.000686  0.001759 -0.000155
     2 C     0.049695  0.013232  0.000939
     3 C    -0.017297 -0.029693 -0.003904
     4 C     0.039888  0.017715 -0.004089
     5 O    -0.004262  0.274134  0.164617
     6 H    -0.004658  0.003878 -0.002452
     7 C    -0.016787 -0.005926 -0.000213
     8 C    -0.007582 -0.011456  0.015802
     9 C     0.012675  0.003493  0.013024
    10 C    -0.043093 -0.010902  0.000605
    11 C     0.012371  0.007799 -0.010746
    12 C    -0.010677  0.005170 -0.017353
    13 H     0.004827  0.006869 -0.011325
    14 H    -0.007548  0.002836 -0.011225
    15 H    -0.005333 -0.006931  0.010246
    16 H     0.007249 -0.003297  0.011624
    17 H     0.013260  0.004618  0.000630
    18 H    -0.026635  0.022374 -0.000576
    19 Ti   -0.000901  0.000541 -0.002386
    20 Cl    0.005346 -0.261837 -0.136878
    21 Cl    0.002567  0.007609 -0.043336
    22 Cl    0.035760 -0.023036  0.015651
    23 Cl   -0.038179 -0.018948  0.011498
 ----------------------------------------
 Mulliken charges used for AMS results%charges...

 dE(predicted):    -0.38641E-01, dE(actual):    -0.42779E-01, Trust radius:    0.400000, all in a.u.
 
----------------------------------------------------------------------
Geometry Convergence after Step   2       (Hartree/Angstrom,Angstrom)
----------------------------------------------------------------------
current energy                               -4.75619149 Hartree
energy change                      -0.04277876     0.00023000    F
constrained gradient max            0.27413260     0.00100000    F
constrained gradient rms            0.05482178     0.00066667    F
gradient max                        0.27413260
gradient rms                        0.05482178
cart. step max                      0.12603121     0.01000000    F
cart. step rms                      0.04148263     0.00666667    F
 
 
--------
Geometry
--------
Formula: C9H8Cl4OTi
Atoms
  Index Symbol   x (angstrom)   y (angstrom)   z (angstrom)
      1      H    -0.58824305    -0.03713647    -0.14876436
      2      C    -0.14125825    -2.06996563    -0.57011136
      3      C     0.18235131    -0.78802255    -0.31889226
      4      C     1.57029594    -0.33479244    -0.26206750
      5      O     1.91812917     0.82418709    -0.03281465
      6      H     0.64453840    -2.80698828    -0.73891394
      7      C    -4.20563900    -3.47053040    -0.75143978
      8      C    -3.42069817    -3.74245771     0.37074553
      9      C    -2.10178467    -3.28975132     0.43058974
     10      C    -1.56136062    -2.55827253    -0.63507749
     11      C    -2.35116061    -2.28717156    -1.75965328
     12      C    -3.66961238    -2.74353729    -1.81537846
     13      H    -3.83484116    -4.30646140     1.19853300
     14      H    -1.49584029    -3.50301801     1.30335093
     15      H    -1.93810757    -1.72287635    -2.58709038
     16      H    -4.27689039    -2.53122215    -2.68771873
     17      H    -5.22947936    -3.82345664    -0.79617664
     18      H     2.33000651    -1.11042022    -0.43652100
     19     Ti     1.94765865     4.54474895     1.82963383
     20     Cl     1.89566601     2.61737463     0.84766573
     21     Cl     1.81397605     4.24968346     3.97461431
     22     Cl     0.26807190     5.73330364     1.13930858
     23     Cl     3.80912541     5.54259553     1.33471379
 
Total System Charge             0.00000
 
 *** GOStep3 ***

 Energy gradients wrt nuclear displacements
 ==========================================

     Atom      Cartesian (a.u./angstrom)
                 X         Y         Z
 ----------------------------------------
     1 H    -0.000472  0.000776 -0.000250
     2 C     0.026928  0.002915 -0.000218
     3 C    -0.003069 -0.005842  0.001845
     4 C     0.009744  0.002356 -0.002846
     5 O    -0.001877  0.164845  0.093706
     6 H    -0.003127  0.001028 -0.003045
     7 C    -0.004000 -0.001467  0.000164
     8 C    -0.002434 -0.003640  0.004542
     9 C     0.005032  0.004658  0.005162
    10 C    -0.024387 -0.006423  0.000187
    11 C     0.006499  0.001773 -0.003729
    12 C    -0.003291  0.001741 -0.005206
    13 H     0.001336  0.001792 -0.003822
    14 H    -0.002397  0.000673 -0.003429
    15 H    -0.001899 -0.002041  0.003030
    16 H     0.002000 -0.001154  0.003759
    17 H     0.004002  0.001447  0.000181
    18 H    -0.010170  0.010893 -0.000114
    19 Ti   -0.000329  0.006492  0.002779
    20 Cl    0.001759 -0.163682 -0.083945
    21 Cl    0.001389  0.003493 -0.021091
    22 Cl    0.016899 -0.011352  0.007229
    23 Cl   -0.018136 -0.009281  0.005111
 ----------------------------------------
 Mulliken charges used for AMS results%charges...

 dE(predicted):    -0.54875E-01, dE(actual):    -0.57669E-01, Trust radius:    0.800000, all in a.u.
 
----------------------------------------------------------------------
Geometry Convergence after Step   3       (Hartree/Angstrom,Angstrom)
----------------------------------------------------------------------
current energy                               -4.81386002 Hartree
energy change                      -0.05766853     0.00023000    F
constrained gradient max            0.16484417     0.00100000    F
constrained gradient rms            0.03259526     0.00066667    F
gradient max                        0.16484417
gradient rms                        0.03259526
cart. step max                      0.21146062     0.01000000    F
cart. step rms                      0.06908791     0.00666667    F
 
 
--------
Geometry
--------
Formula: C9H8Cl4OTi
Atoms
  Index Symbol   x (angstrom)   y (angstrom)   z (angstrom)
      1      H    -0.59244338    -0.03711076    -0.14706423
      2      C    -0.18485269    -2.08396017    -0.55233218
      3      C     0.16123162    -0.80628270    -0.30506800
      4      C     1.55927762    -0.39402456    -0.22551578
      5      O     1.93405449     0.75172873    -0.01384232
      6      H     0.60514127    -2.82466554    -0.69837985
      7      C    -4.21921441    -3.52624554    -0.78107232
      8      C    -3.41553330    -3.85930731     0.30984020
      9      C    -2.10211046    -3.39642194     0.38212651
     10      C    -1.58312252    -2.57616771    -0.63056098
     11      C    -2.39613646    -2.24595050    -1.72413854
     12      C    -3.70549444    -2.72257052    -1.79826303
     13      H    -3.81184256    -4.48209017     1.10853408
     14      H    -1.48140209    -3.66085275     1.23468065
     15      H    -2.00158607    -1.61863293    -2.51907881
     16      H    -4.32639429    -2.46053579    -2.65187173
     17      H    -5.24167632    -3.89217770    -0.83777547
     18      H     2.30524101    -1.19802933    -0.40781644
     19     Ti     2.01363601     4.68896064     1.83207271
     20     Cl     1.93917955     2.72466533     0.90422970
     21     Cl     1.81987352     4.46114407     4.00036306
     22     Cl     0.36436443     5.90483868     1.05948762
     23     Cl     3.92471330     5.63950080     1.34998077
 
Total System Charge             0.00000
 
 *** GOStep4 ***

 Energy gradients wrt nuclear displacements
 ==========================================

     Atom      Cartesian (a.u./angstrom)
                 X         Y         Z
 ----------------------------------------
     1 H    -0.000012 -0.000336 -0.000360
     2 C     0.007921  0.000487 -0.002098
     3 C     0.002791  0.000825  0.000923
     4 C    -0.000733  0.005570  0.008837
     5 O    -0.001699  0.094330  0.048005
     6 H    -0.001300  0.000412 -0.003865
     7 C     0.000971  0.000174  0.000347
     8 C    -0.000844 -0.000092 -0.000512
     9 C     0.000766  0.003453  0.000813
    10 C    -0.007501 -0.001043  0.002759
    11 C     0.003373 -0.002037 -0.000844
    12 C    -0.000052 -0.000511  0.000023
    13 H    -0.000382 -0.000151 -0.000053
    14 H    -0.000074  0.000107  0.000046
    15 H    -0.000188  0.000140 -0.000162
    16 H    -0.000432  0.000005  0.000109
    17 H    -0.000258 -0.000029 -0.000003
    18 H    -0.001571  0.004026 -0.003276
    19 Ti    0.000080  0.005453  0.002312
    20 Cl   -0.000901 -0.105613 -0.050447
    21 Cl    0.000573  0.000667 -0.006086
    22 Cl    0.004718 -0.003300  0.002181
    23 Cl   -0.005246 -0.002537  0.001350
 ----------------------------------------
 Mulliken charges used for AMS results%charges...

 dE(predicted):    -0.29778E-01, dE(actual):    -0.29151E-01, Trust radius:    0.800000, all in a.u.
 
----------------------------------------------------------------------
Geometry Convergence after Step   4       (Hartree/Angstrom,Angstrom)
----------------------------------------------------------------------
current energy                               -4.84301091 Hartree
energy change                      -0.02915089     0.00023000    F
constrained gradient max            0.10561457     0.00100000    F
constrained gradient rms            0.01917953     0.00066667    F
gradient max                        0.10561457
gradient rms                        0.01917953
cart. step max                      0.21755691     0.01000000    F
cart. step rms                      0.08179225     0.00666667    F
 
 
--------
Geometry
--------
Formula: C9H8Cl4OTi
Atoms
  Index Symbol   x (angstrom)   y (angstrom)   z (angstrom)
      1      H    -0.58958687    -0.04075539    -0.18572975
      2      C    -0.20975036    -2.11020683    -0.50615996
      3      C     0.15185821    -0.82818965    -0.30587524
      4      C     1.55885956    -0.43479006    -0.24695567
      5      O     1.95484704     0.69913203    -0.02566208
      6      H     0.58306889    -2.85722996    -0.60723271
      7      C    -4.23160976    -3.55900413    -0.80125173
      8      C    -3.40100140    -3.99256053     0.23299835
      9      C    -2.09137991    -3.52528772     0.32562427
     10      C    -1.59577300    -2.60251261    -0.60983954
     11      C    -2.43923223    -2.17162296    -1.64570108
     12      C    -3.74602536    -2.65005709    -1.74044278
     13      H    -3.77300204    -4.69964708     0.97233863
     14      H    -1.44984389    -3.87125302     1.13380269
     15      H    -2.06613125    -1.46360425    -2.38235158
     16      H    -4.38497550    -2.31086873    -2.55388745
     17      H    -5.25205708    -3.93008057    -0.87527672
     18      H     2.28868466    -1.27733978    -0.33131207
     19     Ti     2.05316895     4.80380025     1.80917381
     20     Cl     1.97254615     2.81797755     0.92143281
     21     Cl     1.71676469     4.63785779     3.97718559
     22     Cl     0.48713537     6.05998731     0.90657531
     23     Cl     4.02833894     5.69206776     1.42708251
 
Total System Charge             0.00000
 
 *** GOStep5 ***

 Energy gradients wrt nuclear displacements
 ==========================================

     Atom      Cartesian (a.u./angstrom)
                 X         Y         Z
 ----------------------------------------
     1 H     0.000055 -0.000710  0.000028
     2 C    -0.001114  0.000647  0.001259
     3 C     0.002768 -0.001698  0.010461
     4 C    -0.002103  0.013281 -0.018023
     5 O    -0.001716  0.056844  0.037208
     6 H     0.000388  0.000279 -0.004434
     7 C     0.001789  0.000537  0.000199
     8 C    -0.000264  0.000899 -0.002297
     9 C    -0.001186  0.005206  0.001737
    10 C     0.000530 -0.000087 -0.000788
    11 C     0.001925 -0.004373 -0.000975
    12 C     0.000170 -0.000650  0.001801
    13 H    -0.000412 -0.001035  0.000818
    14 H     0.000701 -0.000375  0.000815
    15 H     0.000192  0.001149 -0.000752
    16 H    -0.000894  0.000348 -0.001021
    17 H    -0.001294 -0.000432 -0.000091
    18 H     0.001437 -0.001511  0.005440
    19 Ti    0.000239  0.002400  0.000822
    20 Cl   -0.001243 -0.072714 -0.033045
    21 Cl   -0.000330 -0.000230  0.002148
    22 Cl   -0.001572  0.001308 -0.000905
    23 Cl    0.001935  0.000915 -0.000404
 ----------------------------------------
 Mulliken charges used for AMS results%charges...
 Rebuilding optimization coordinates
Bad geometry: added dihedral     4    5   19   22
Bad geometry: added dihedral    21   19    5    4
Bad geometry: added dihedral    23   19    5    4

 dE(predicted):    -0.17835E-01, dE(actual):    -0.14856E-01, Trust radius:    1.000000, all in a.u.
 
----------------------------------------------------------------------
Geometry Convergence after Step   5       (Hartree/Angstrom,Angstrom)
----------------------------------------------------------------------
current energy                               -4.85786737 Hartree
energy change                      -0.01485646     0.00023000    F
constrained gradient max            0.07271706     0.00100000    F
constrained gradient rms            0.01306735     0.00066667    F
gradient max                        0.07271706
gradient rms                        0.01306735
cart. step max                      0.21854893     0.01000000    F
cart. step rms                      0.08304315     0.00666667    F
 
 
--------
Geometry
--------
Formula: C9H8Cl4OTi
Atoms
  Index Symbol   x (angstrom)   y (angstrom)   z (angstrom)
      1      H    -0.59966692    -0.06243364    -0.15268351
      2      C    -0.23284312    -2.13707128    -0.47082970
      3      C     0.13513557    -0.85890303    -0.25292833
      4      C     1.54566906    -0.48622514    -0.13018554
      5      O     1.95478635     0.64989486     0.05346485
      6      H     0.56176813    -2.88523536    -0.55328461
      7      C    -4.24309775    -3.59087895    -0.84176023
      8      C    -3.38722572    -4.12203390     0.12461140
      9      C    -2.08015578    -3.65450070     0.23839954
     10      C    -1.61101900    -2.62926463    -0.60106501
     11      C    -2.48173036    -2.10111975    -1.56841943
     12      C    -3.78456497    -2.58303336    -1.68940081
     13      H    -3.73697899    -4.90735439     0.79270899
     14      H    -1.41876745    -4.07801864     0.99225843
     15      H    -2.12940408    -1.31648176    -2.23454036
     16      H    -4.44201851    -2.16760541    -2.45135906
     17      H    -5.26143023    -3.96384868    -0.93504861
     18      H     2.26782021    -1.33405290    -0.25541726
     19     Ti     2.10337455     4.92156608     1.76445364
     20     Cl     2.00199662     2.90101023     0.96007126
     21     Cl     1.73351859     4.85640671     3.93830753
     22     Cl     0.56751651     6.16866446     0.78643726
     23     Cl     4.10222114     5.76633152     1.37474517
 
Total System Charge             0.00000
 
 *** GOStep6 ***

 Energy gradients wrt nuclear displacements
 ==========================================

     Atom      Cartesian (a.u./angstrom)
                 X         Y         Z
 ----------------------------------------
     1 H    -0.000038 -0.000526 -0.000790
     2 C    -0.005035  0.001217 -0.001320
     3 C     0.001392 -0.001484  0.002039
     4 C    -0.003580  0.007168  0.009947
     5 O     0.000758  0.045383  0.017531
     6 H     0.001474  0.000454 -0.005821
     7 C     0.001817  0.000739 -0.000002
     8 C     0.000084  0.001299 -0.001991
     9 C    -0.002868  0.004270  0.001914
    10 C     0.003661  0.000259  0.002595
    11 C     0.001853 -0.004170 -0.001548
    12 C     0.000417 -0.001677  0.001751
    13 H    -0.000373 -0.001267  0.000993
    14 H     0.000790 -0.000474  0.001037
    15 H     0.000398  0.001510 -0.000621
    16 H    -0.000903  0.000742 -0.001125
    17 H    -0.001474 -0.000470 -0.000093
    18 H     0.002979 -0.002472 -0.003802
    19 Ti    0.000286 -0.000199 -0.000227
    20 Cl   -0.001740 -0.056125 -0.022768
    21 Cl   -0.001067 -0.000247  0.006240
    22 Cl   -0.004428  0.003645 -0.002838
    23 Cl    0.005597  0.002425 -0.001101
 ----------------------------------------
 Mulliken charges used for AMS results%charges...

 dE(predicted):    -0.18582E-01, dE(actual):    -0.80415E-02, Trust radius:    1.000000, all in a.u.
 
----------------------------------------------------------------------
Geometry Convergence after Step   6       (Hartree/Angstrom,Angstrom)
----------------------------------------------------------------------
current energy                               -4.86590891 Hartree
energy change                      -0.00804154     0.00023000    F
constrained gradient max            0.05612228     0.00100000    F
constrained gradient rms            0.00972578     0.00066667    F
gradient max                        0.05612228
gradient rms                        0.00972578
cart. step max                      0.19272423     0.01000000    F
cart. step rms                      0.07984427     0.00666667    F
 
 
--------
Geometry
--------
Formula: C9H8Cl4OTi
Atoms
  Index Symbol   x (angstrom)   y (angstrom)   z (angstrom)
      1      H    -0.59957632    -0.07668020    -0.14901465
      2      C    -0.24730562    -2.16096581    -0.43144630
      3      C     0.12775332    -0.88324661    -0.21880102
      4      C     1.53908028    -0.52713763    -0.05067692
      5      O     1.95914498     0.60779500     0.11183961
      6      H     0.54517812    -2.91496136    -0.47568042
      7      C    -4.25083752    -3.60748885    -0.86981632
      8      C    -3.36731782    -4.23179245     0.01271879
      9      C    -2.06109168    -3.76790834     0.14339010
     10      C    -1.62015614    -2.64971011    -0.58710717
     11      C    -2.51959326    -2.02942689    -1.47102616
     12      C    -3.82029257    -2.50978208    -1.61454044
     13      H    -3.69436649    -5.08836262     0.59998476
     14      H    -1.37795056    -4.26493667     0.83023533
     15      H    -2.18848414    -1.17576272    -2.05858032
     16      H    -4.49821559    -2.02216566    -2.31325532
     17      H    -5.26811945    -3.97897000    -0.97958275
     18      H     2.25317482    -1.38543797    -0.16533517
     19     Ti     2.13241052     5.00727263     1.71397945
     20     Cl     2.02141686     2.96152711     0.97752936
     21     Cl     1.68367837     5.02871452     3.87759626
     22     Cl     0.65425145     6.24960044     0.63765658
     23     Cl     4.16212227     5.80563860     1.36846833
 
Total System Charge             0.00000
 
 *** GOStep7 ***

 Energy gradients wrt nuclear displacements
 ==========================================

     Atom      Cartesian (a.u./angstrom)
                 X         Y         Z
 ----------------------------------------
     1 H    -0.000276 -0.000484 -0.001022
     2 C    -0.005664  0.002800 -0.002985
     3 C     0.000142 -0.002222 -0.001335
     4 C    -0.003394  0.006691  0.020321
     5 O     0.001005  0.035831  0.008207
     6 H     0.002470  0.000255 -0.005817
     7 C     0.001708  0.001110 -0.000342
     8 C     0.000236  0.001820 -0.001730
     9 C    -0.003196  0.003365  0.001759
    10 C     0.003479  0.000220  0.004232
    11 C     0.002303 -0.003723 -0.001652
    12 C     0.000017 -0.002892  0.001629
    13 H    -0.000282 -0.001387  0.001066
    14 H     0.000816 -0.000583  0.001138
    15 H     0.000694  0.001750 -0.000380
    16 H    -0.000886  0.001023 -0.001078
    17 H    -0.001517 -0.000503 -0.000122
    18 H     0.003663 -0.003235 -0.007066
    19 Ti    0.000269 -0.002171 -0.000952
    20 Cl   -0.001765 -0.046012 -0.016902
    21 Cl   -0.001779  0.000080  0.008742
    22 Cl   -0.005966  0.005044 -0.004355
    23 Cl    0.007922  0.003222 -0.001357
 ----------------------------------------
 Mulliken charges used for AMS results%charges...

 dE(predicted):    -0.99710E-02, dE(actual):    -0.49450E-02, Trust radius:    1.000000, all in a.u.
 
----------------------------------------------------------------------
Geometry Convergence after Step   7       (Hartree/Angstrom,Angstrom)
----------------------------------------------------------------------
current energy                               -4.87085386 Hartree
energy change                      -0.00494495     0.00023000    F
constrained gradient max            0.04601305     0.00100000    F
constrained gradient rms            0.00829810     0.00066667    F
gradient max                        0.04601305
gradient rms                        0.00829810
cart. step max                      0.19890853     0.01000000    F
cart. step rms                      0.08449024     0.00666667    F
 
 
--------
Geometry
--------
Formula: C9H8Cl4OTi
Atoms
  Index Symbol   x (angstrom)   y (angstrom)   z (angstrom)
      1      H    -0.58371720    -0.08674144    -0.19466633
      2      C    -0.25956113    -2.18873717    -0.39298012
      3      C     0.13047807    -0.90757146    -0.22073003
      4      C     1.54427485    -0.56617526    -0.03885602
      5      O     1.97632246     0.56313359     0.12935538
      6      H     0.52260659    -2.95376284    -0.37619348
      7      C    -4.26056558    -3.61912776    -0.87784504
      8      C    -3.34470161    -4.32820120    -0.09769623
      9      C    -2.03839517    -3.86843297     0.04025799
     10      C    -1.62875511    -2.66960059    -0.57329935
     11      C    -2.56087069    -1.96788450    -1.35923854
     12      C    -3.86140845    -2.44276708    -1.51329369
     13      H    -3.64670408    -5.24715684     0.40107623
     14      H    -1.32977022    -4.43076365     0.64558584
     15      H    -2.25349264    -1.05613875    -1.86575902
     16      H    -4.56365127    -1.89157198    -2.13580945
     17      H    -5.27759407    -3.98722632    -0.99637559
     18      H     2.24127813    -1.44528981    -0.06089227
     19     Ti     2.15336618     5.09058619     1.67338850
     20     Cl     2.04535404     3.03118491     0.98245511
     21     Cl     1.54411947     5.18331339     3.79640648
     22     Cl     0.79288779     6.34170675     0.45919978
     23     Cl     4.22340347     5.83303713     1.46444547
 
Total System Charge             0.00000
 
 *** GOStep8 ***

 Energy gradients wrt nuclear displacements
 ==========================================

     Atom      Cartesian (a.u./angstrom)
                 X         Y         Z
 ----------------------------------------
     1 H    -0.000655 -0.000366 -0.000285
     2 C    -0.004585  0.001715 -0.001924
     3 C    -0.001654 -0.002536  0.003282
     4 C    -0.000450  0.009072  0.001287
     5 O     0.000441  0.025041  0.009952
     6 H     0.002553 -0.000034 -0.004100
     7 C     0.000996  0.001386 -0.000548
     8 C     0.000568  0.001626 -0.000713
     9 C    -0.002269  0.001727  0.001663
    10 C     0.002230  0.000749  0.002500
    11 C     0.001838 -0.002543 -0.002130
    12 C    -0.000762 -0.002675  0.000986
    13 H    -0.000008 -0.000932  0.000803
    14 H     0.000531 -0.000528  0.000781
    15 H     0.000840  0.001273 -0.000023
    16 H    -0.000486  0.000877 -0.000656
    17 H    -0.000907 -0.000378 -0.000130
    18 H     0.002834 -0.004162 -0.000444
    19 Ti    0.000148 -0.004292 -0.001607
    20 Cl   -0.001443 -0.034555 -0.011862
    21 Cl   -0.002723  0.000515  0.009497
    22 Cl   -0.006030  0.005709 -0.005436
    23 Cl    0.008991  0.003313 -0.000890
 ----------------------------------------
 Mulliken charges used for AMS results%charges...

 dE(predicted):    -0.11691E-01, dE(actual):    -0.56251E-02, Trust radius:    1.000000, all in a.u.
 
----------------------------------------------------------------------
Geometry Convergence after Step   8       (Hartree/Angstrom,Angstrom)
----------------------------------------------------------------------
current energy                               -4.87647894 Hartree
energy change                      -0.00562508     0.00023000    F
constrained gradient max            0.03455374     0.00100000    F
constrained gradient rms            0.00615531     0.00066667    F
gradient max                        0.03455374
gradient rms                        0.00615531
cart. step max                      0.20005434     0.01000000    F
cart. step rms                      0.06649075     0.00666667    F
 
 
--------
Geometry
--------
Formula: C9H8Cl4OTi
Atoms
  Index Symbol   x (angstrom)   y (angstrom)   z (angstrom)
      1      H    -0.57607954    -0.09624097    -0.19852958
      2      C    -0.27641584    -2.20884662    -0.34531003
      3      C     0.12566249    -0.92790333    -0.18833167
      4      C     1.53794803    -0.60014402     0.02460775
      5      O     1.97973331     0.52804581     0.17628898
      6      H     0.49555202    -2.98126757    -0.28744321
      7      C    -4.26563739    -3.63769996    -0.90958316
      8      C    -3.32913638    -4.40382619    -0.21225874
      9      C    -2.02778088    -3.93894632    -0.04924859
     10      C    -1.64041623    -2.68383258    -0.55751434
     11      C    -2.59393963    -1.92710175    -1.26483570
     12      C    -3.89067790    -2.40220851    -1.44045646
     13      H    -3.61163054    -5.36984146     0.20102189
     14      H    -1.30245112    -4.54509505     0.49004369
     15      H    -2.30553879    -0.97199156    -1.69607786
     16      H    -4.60865659    -1.80797885    -2.00192075
     17      H    -5.27943126    -4.00725369    -1.04744221
     18      H     2.22446490    -1.48690965     0.03071317
     19     Ti     2.18349624     5.16464405     1.63084376
     20     Cl     2.06860630     3.09129606     0.99049875
     21     Cl     1.53530099     5.31750878     3.73795739
     22     Cl     0.85888002     6.39781985     0.36141811
     23     Cl     4.26305162     5.88358588     1.44409443
 
Total System Charge             0.00000
 
 *** GOStep9 ***

 Energy gradients wrt nuclear displacements
 ==========================================

     Atom      Cartesian (a.u./angstrom)
                 X         Y         Z
 ----------------------------------------
     1 H    -0.000759 -0.000309 -0.000351
     2 C    -0.004323  0.000110 -0.001355
     3 C    -0.001750 -0.001408  0.001904
     4 C    -0.000017  0.007551  0.003408
     5 O     0.000621  0.020265  0.006505
     6 H     0.002196 -0.000008 -0.003275
     7 C     0.000602  0.001537 -0.000558
     8 C     0.000902  0.001058 -0.000436
     9 C    -0.002132  0.001083  0.002198
    10 C     0.002586  0.000986  0.001607
    11 C     0.001173 -0.001551 -0.002102
    12 C    -0.001042 -0.002151  0.000929
    13 H     0.000083 -0.000739  0.000470
    14 H     0.000411 -0.000548  0.000392
    15 H     0.000975  0.000873  0.000096
    16 H    -0.000229  0.000630 -0.000560
    17 H    -0.000584 -0.000301 -0.000091
    18 H     0.002310 -0.003678 -0.001234
    19 Ti    0.000105 -0.005365 -0.001863
    20 Cl   -0.001386 -0.027529 -0.008658
    21 Cl   -0.002840  0.000753  0.009296
    22 Cl   -0.005795  0.005567 -0.005557
    23 Cl    0.008894  0.003173 -0.000765
 ----------------------------------------
 Mulliken charges used for AMS results%charges...

 dE(predicted):    -0.74058E-02, dE(actual):    -0.31369E-02, Trust radius:    1.000000, all in a.u.
 
----------------------------------------------------------------------
Geometry Convergence after Step   9       (Hartree/Angstrom,Angstrom)
----------------------------------------------------------------------
current energy                               -4.87961583 Hartree
energy change                      -0.00313689     0.00023000    F
constrained gradient max            0.02752867     0.00100000    F
constrained gradient rms            0.00507944     0.00066667    F
gradient max                        0.02752867
gradient rms                        0.00507944
cart. step max                      0.20019957     0.01000000    F
cart. step rms                      0.07111146     0.00666667    F
 
 
--------
Geometry
--------
Formula: C9H8Cl4OTi
Atoms
  Index Symbol   x (angstrom)   y (angstrom)   z (angstrom)
      1      H    -0.55829885    -0.10063528    -0.21771997
      2      C    -0.29307605    -2.22349839    -0.31733294
      3      C     0.12598386    -0.94527932    -0.17320899
      4      C     1.53525605    -0.63655564     0.07840881
      5      O     1.98927735     0.48795904     0.22352111
      6      H     0.46539443    -3.00442770    -0.22124263
      7      C    -4.27163530    -3.66029709    -0.92880637
      8      C    -3.30662205    -4.47029584    -0.32703798
      9      C    -2.00961554    -3.99766961    -0.15233299
     10      C    -1.65388448    -2.69293491    -0.54827602
     11      C    -2.63769805    -1.89283580    -1.16251669
     12      C    -3.92906670    -2.37402605    -1.35234445
     13      H    -3.56367019    -5.47508502     0.00082232
     14      H    -1.26184355    -4.63643284     0.31322103
     15      H    -2.37814338    -0.89747550    -1.51218390
     16      H    -4.67112316    -1.74395891    -1.83776481
     17      H    -5.28268955    -4.03313605    -1.07602759
     18      H     2.20497984    -1.53310361     0.13272841
     19     Ti     2.21403859     5.23619785     1.59136480
     20     Cl     2.09911755     3.14999987     1.00204524
     21     Cl     1.46089243     5.45758614     3.65446267
     22     Cl     0.97822809     6.45218156     0.22391322
     23     Cl     4.30910249     5.91953543     1.49484332
 
Total System Charge             0.00000
 
 *** GOStep10 ***

 Energy gradients wrt nuclear displacements
 ==========================================

     Atom      Cartesian (a.u./angstrom)
                 X         Y         Z
 ----------------------------------------
     1 H    -0.000779 -0.000328 -0.000211
     2 C    -0.003646 -0.000947 -0.002462
     3 C    -0.001248 -0.000451  0.001655
     4 C     0.000562  0.005916  0.001670
     5 O     0.000385  0.015726  0.004900
     6 H     0.001510  0.000075 -0.002092
     7 C     0.000288  0.001285 -0.000425
     8 C     0.000829  0.000746  0.000268
     9 C    -0.001519 -0.000167  0.000824
    10 C     0.002664  0.001639  0.002436
    11 C     0.000207 -0.000637 -0.001539
    12 C    -0.000554 -0.001735  0.000079
    13 H     0.000031 -0.000445  0.000315
    14 H     0.000220 -0.000306  0.000354
    15 H     0.000986  0.000451  0.000050
    16 H    -0.000152  0.000499 -0.000157
    17 H    -0.000336 -0.000231 -0.000016
    18 H     0.001482 -0.002928 -0.000263
    19 Ti    0.000131 -0.005950 -0.001766
    20 Cl   -0.001235 -0.020790 -0.006039
    21 Cl   -0.002900  0.000960  0.008069
    22 Cl   -0.004866  0.004890 -0.005306
    23 Cl    0.007940  0.002726 -0.000345
 ----------------------------------------
 Mulliken charges used for AMS results%charges...

 dE(predicted):    -0.56494E-02, dE(actual):    -0.26535E-02, Trust radius:    1.000000, all in a.u.
 
----------------------------------------------------------------------
Geometry Convergence after Step  10       (Hartree/Angstrom,Angstrom)
----------------------------------------------------------------------
current energy                               -4.88226929 Hartree
energy change                      -0.00265346     0.00023000    F
constrained gradient max            0.02078926     0.00100000    F
constrained gradient rms            0.00401521     0.00066667    F
gradient max                        0.02078926
gradient rms                        0.00401521
cart. step max                      0.20288343     0.01000000    F
cart. step rms                      0.07195412     0.00666667    F
 
 
--------
Geometry
--------
Formula: C9H8Cl4OTi
Atoms
  Index Symbol   x (angstrom)   y (angstrom)   z (angstrom)
      1      H    -0.55477657    -0.10106935    -0.20404871
      2      C    -0.31506539    -2.23075568    -0.28106560
      3      C     0.11626565    -0.95501070    -0.14421250
      4      C     1.52603244    -0.65963861     0.11557609
      5      O     1.99097175     0.46182626     0.25233753
      6      H     0.43639108    -3.01601602    -0.17162016
      7      C    -4.27532661    -3.69231301    -0.94941626
      8      C    -3.28123782    -4.52987166    -0.44066729
      9      C    -1.99305541    -4.04195858    -0.24362786
     10      C    -1.67092937    -2.70038633    -0.53218470
     11      C    -2.68512608    -1.87299119    -1.05631390
     12      C    -3.96931116    -2.36475940    -1.26114754
     13      H    -3.50919494    -5.56615020    -0.20206111
     14      H    -1.22195787    -4.70165273     0.14865795
     15      H    -2.45796878    -0.84442801    -1.32107876
     16      H    -4.73492480    -1.71243815    -1.67495646
     17      H    -5.28062344    -4.07391731    -1.11195650
     18      H     2.18599804    -1.56144901     0.18193850
     19     Ti     2.25340648     5.30278797     1.55520400
     20     Cl     2.13167264     3.20692583     1.00895578
     21     Cl     1.35581452     5.59401279     3.54757261
     22     Cl     1.15464294     6.50996463     0.07253371
     23     Cl     4.36320650     5.93510079     1.60011680
 
Total System Charge             0.00000
 
 *** GOStep11 ***

 Energy gradients wrt nuclear displacements
 ==========================================

     Atom      Cartesian (a.u./angstrom)
                 X         Y         Z
 ----------------------------------------
     1 H    -0.000577 -0.000297  0.000012
     2 C    -0.003758 -0.001780 -0.000786
     3 C    -0.000359  0.000223  0.000884
     4 C     0.000284  0.004282  0.001417
     5 O     0.000598  0.012831  0.003591
     6 H     0.000927  0.000189 -0.001577
     7 C     0.000125  0.000927 -0.000222
     8 C     0.000855  0.000313  0.000098
     9 C    -0.001247 -0.000203  0.001270
    10 C     0.003315  0.001749  0.001062
    11 C    -0.000609 -0.000439 -0.001692
    12 C    -0.000418 -0.000747  0.000605
    13 H     0.000013 -0.000284  0.000091
    14 H     0.000254 -0.000265 -0.000017
    15 H     0.000772  0.000214  0.000019
    16 H    -0.000043  0.000269 -0.000244
    17 H    -0.000180 -0.000194 -0.000050
    18 H     0.000995 -0.002119 -0.000392
    19 Ti    0.000050 -0.005960 -0.001507
    20 Cl   -0.001112 -0.015977 -0.004388
    21 Cl   -0.002898  0.001070  0.006523
    22 Cl   -0.003646  0.004040 -0.004933
    23 Cl    0.006660  0.002157  0.000234
 ----------------------------------------
 Mulliken charges used for AMS results%charges...
 Rebuilding optimization coordinates
Bad geometry: added dihedral    22   19    5    4
Bad geometry: added dihedral    21   19    5    4
Bad geometry: added dihedral    23   19    5    4

 dE(predicted):    -0.39534E-02, dE(actual):    -0.18051E-02, Trust radius:    1.000000, all in a.u.
 
----------------------------------------------------------------------
Geometry Convergence after Step  11       (Hartree/Angstrom,Angstrom)
----------------------------------------------------------------------
current energy                               -4.88407436 Hartree
energy change                      -0.00180507     0.00023000    F
constrained gradient max            0.01597626     0.00100000    F
constrained gradient rms            0.00323255     0.00066667    F
gradient max                        0.01597626
gradient rms                        0.00323255
cart. step max                      0.20941664     0.01000000    F
cart. step rms                      0.06580930     0.00666667    F
 
 
--------
Geometry
--------
Formula: C9H8Cl4OTi
Atoms
  Index Symbol   x (angstrom)   y (angstrom)   z (angstrom)
      1      H    -0.55273686    -0.10186690    -0.21307543
      2      C    -0.34479970    -2.23950269    -0.23421104
      3      C     0.09947276    -0.96609556    -0.11168771
      4      C     1.50477829    -0.68499862     0.18134253
      5      O     1.98225433     0.43278365     0.30787989
      6      H     0.39504075    -3.02880737    -0.08556066
      7      C    -4.27609704    -3.73287653    -0.99994266
      8      C    -3.25905265    -4.58376548    -0.56530621
      9      C    -1.98252853    -4.08003761    -0.33413130
     10      C    -1.69364878    -2.71152258    -0.51258708
     11      C    -2.73362415    -1.86948417    -0.95910507
     12      C    -4.00457582    -2.37606001    -1.20148312
     13      H    -3.45985008    -5.64131843    -0.41147775
     14      H    -1.19339434    -4.74923580     0.00178081
     15      H    -2.53949355    -0.81572910    -1.13471365
     16      H    -4.79068806    -1.71104134    -1.55128910
     17      H    -5.27321108    -4.12397526    -1.18760596
     18      H     2.14907198    -1.59296223     0.28826960
     19     Ti     2.30895310     5.38579251     1.52068704
     20     Cl     2.16360345     3.28087989     1.02285542
     21     Cl     1.40285024     5.73453272     3.49551654
     22     Cl     1.23943297     6.57193728     0.00608166
     23     Cl     4.42314660     5.98916595     1.56629888
 
Total System Charge             0.00000
 
 *** GOStep12 ***

 Energy gradients wrt nuclear displacements
 ==========================================

     Atom      Cartesian (a.u./angstrom)
                 X         Y         Z
 ----------------------------------------
     1 H    -0.000147 -0.000196  0.000119
     2 C    -0.003360 -0.002082 -0.001998
     3 C     0.000467  0.000566  0.001169
     4 C    -0.000336  0.002655  0.000284
     5 O     0.001084  0.010414  0.002824
     6 H     0.000214  0.000182 -0.000500
     7 C    -0.000041  0.000296  0.000048
     8 C     0.000515 -0.000000  0.000523
     9 C    -0.000813 -0.000695 -0.000152
    10 C     0.003568  0.001892  0.001624
    11 C    -0.001570 -0.000070 -0.000420
    12 C     0.000526 -0.000142 -0.000611
    13 H    -0.000068 -0.000104  0.000006
    14 H     0.000112 -0.000045  0.000162
    15 H     0.000429 -0.000079 -0.000246
    16 H    -0.000052  0.000121  0.000061
    17 H    -0.000075 -0.000116  0.000063
    18 H     0.000448 -0.001171 -0.000098
    19 Ti   -0.000098 -0.005408 -0.001301
    20 Cl   -0.000919 -0.011280 -0.002793
    21 Cl   -0.002108  0.000885  0.004670
    22 Cl   -0.002571  0.002888 -0.003604
    23 Cl    0.004794  0.001489  0.000170
 ----------------------------------------
 Mulliken charges used for AMS results%charges...

 dE(predicted):    -0.27721E-02, dE(actual):    -0.16064E-02, Trust radius:    1.000000, all in a.u.
 
----------------------------------------------------------------------
Geometry Convergence after Step  12       (Hartree/Angstrom,Angstrom)
----------------------------------------------------------------------
current energy                               -4.88568072 Hartree
energy change                      -0.00160637     0.00023000    F
constrained gradient max            0.01128172     0.00100000    F
constrained gradient rms            0.00246662     0.00066667    F
gradient max                        0.01128172
gradient rms                        0.00246662
cart. step max                      0.21086875     0.01000000    F
cart. step rms                      0.06439651     0.00666667    F
 
 
--------
Geometry
--------
Formula: C9H8Cl4OTi
Atoms
  Index Symbol   x (angstrom)   y (angstrom)   z (angstrom)
      1      H    -0.55219137    -0.10634434    -0.21426378
      2      C    -0.37290920    -2.24935632    -0.18857790
      3      C     0.08250468    -0.97842345    -0.07728448
      4      C     1.48295663    -0.70902465     0.24503976
      5      O     1.97126672     0.40539861     0.36177216
      6      H     0.35745729    -3.04142527    -0.01243710
      7      C    -4.27585100    -3.76725064    -1.04790841
      8      C    -3.23548177    -4.62493751    -0.68976963
      9      C    -1.97086204    -4.10872542    -0.42272170
     10      C    -1.71472844    -2.72359604    -0.49262535
     11      C    -2.78005552    -1.87434203    -0.86064547
     12      C    -4.03927397    -2.39129210    -1.13625930
     13      H    -3.40900123    -5.69612838    -0.62234650
     14      H    -1.16337823    -4.78272442    -0.14545793
     15      H    -2.61858000    -0.80419754    -0.94479449
     16      H    -4.84567251    -1.71987918    -1.42131011
     17      H    -5.26477066    -4.16577880    -1.26105235
     18      H     2.11283865    -1.62124775     0.38703828
     19     Ti     2.36121318     5.46265859     1.48496121
     20     Cl     2.19312721     3.34995766     1.03425499
     21     Cl     1.43326797     5.86969449     3.43422292
     22     Cl     1.33328569     6.62747023    -0.06895247
     23     Cl     4.47974176     6.03530661     1.54765330
 
Total System Charge             0.00000
 
 *** GOStep13 ***

 Energy gradients wrt nuclear displacements
 ==========================================

     Atom      Cartesian (a.u./angstrom)
                 X         Y         Z
 ----------------------------------------
     1 H     0.000405 -0.000063  0.000228
     2 C    -0.003526 -0.002296 -0.002249
     3 C     0.001401  0.000895  0.001177
     4 C    -0.000884  0.001270 -0.000342
     5 O     0.001254  0.008138  0.002081
     6 H    -0.000384  0.000210 -0.000012
     7 C    -0.000034 -0.000424  0.000113
     8 C     0.000268 -0.000381  0.000575
     9 C    -0.000611 -0.000784 -0.000841
    10 C     0.004193  0.001929  0.001930
    11 C    -0.002340 -0.000156  0.000040
    12 C     0.001171  0.000922 -0.000636
    13 H    -0.000136  0.000054 -0.000038
    14 H     0.000053  0.000083  0.000153
    15 H    -0.000048 -0.000328 -0.000494
    16 H    -0.000018 -0.000056  0.000132
    17 H     0.000025 -0.000059  0.000082
    18 H     0.000020 -0.000375  0.000035
    19 Ti   -0.000184 -0.004752 -0.001104
    20 Cl   -0.000664 -0.007194 -0.001585
    21 Cl   -0.001376  0.000640  0.002912
    22 Cl   -0.001578  0.001835 -0.002286
    23 Cl    0.002995  0.000891  0.000129
 ----------------------------------------
 Mulliken charges used for AMS results%charges...

 dE(predicted):    -0.14990E-02, dE(actual):    -0.10772E-02, Trust radius:    1.000000, all in a.u.
 
----------------------------------------------------------------------
Geometry Convergence after Step  13       (Hartree/Angstrom,Angstrom)
----------------------------------------------------------------------
current energy                               -4.88675789 Hartree
energy change                      -0.00107716     0.00023000    F
constrained gradient max            0.00813505     0.00100000    F
constrained gradient rms            0.00189708     0.00066667    F
gradient max                        0.00813505
gradient rms                        0.00189708
cart. step max                      0.21150236     0.01000000    F
cart. step rms                      0.06298121     0.00666667    F
 
 
--------
Geometry
--------
Formula: C9H8Cl4OTi
Atoms
  Index Symbol   x (angstrom)   y (angstrom)   z (angstrom)
      1      H    -0.55380883    -0.12345625    -0.20698408
      2      C    -0.39292251    -2.26857514    -0.14531442
      3      C     0.06890195    -0.99946249    -0.04272863
      4      C     1.46495835    -0.73610039     0.30174619
      5      O     1.95928966     0.37657416     0.40933748
      6      H     0.33262667    -3.06241695     0.04227520
      7      C    -4.27643970    -3.78615650    -1.09060667
      8      C    -3.21681139    -4.64983513    -0.81301825
      9      C    -1.96104410    -4.13242449    -0.50853115
     10      C    -1.72953018    -2.74167078    -0.47284545
     11      C    -2.81489756    -1.88600283    -0.75853987
     12      C    -4.06753403    -2.40292435    -1.06180319
     13      H    -3.36905642    -5.72611232    -0.83384886
     14      H    -1.13871472    -4.81095396    -0.29296553
     15      H    -2.67932431    -0.80910536    -0.74366191
     16      H    -4.89072227    -1.72634115    -1.27824409
     17      H    -5.25980394    -4.18446370    -1.32829904
     18      H     2.08557874    -1.64978664     0.46918213
     19     Ti     2.40167586     5.53511021     1.44756878
     20     Cl     2.21529203     3.41495174     1.04215482
     21     Cl     1.42733241     6.00168372     3.35662677
     22     Cl     1.43701966     6.67558268    -0.15913059
     23     Cl     4.52283847     6.07769824     1.55616596
 
Total System Charge             0.00000
 
 *** GOStep14 ***

 Energy gradients wrt nuclear displacements
 ==========================================

     Atom      Cartesian (a.u./angstrom)
                 X         Y         Z
 ----------------------------------------
     1 H     0.000667  0.000155  0.000127
     2 C    -0.003618 -0.001655 -0.000779
     3 C     0.001534  0.000687  0.000451
     4 C    -0.001153  0.000351 -0.000099
     5 O     0.001121  0.006383  0.001355
     6 H    -0.000404  0.000189 -0.000272
     7 C    -0.000044 -0.000842 -0.000015
     8 C     0.000274 -0.000484  0.000055
     9 C    -0.000765 -0.000708 -0.000166
    10 C     0.004487  0.001558  0.001212
    11 C    -0.001973 -0.000302 -0.000596
    12 C     0.001171  0.001479  0.000312
    13 H    -0.000122  0.000128 -0.000057
    14 H     0.000069  0.000127 -0.000026
    15 H    -0.000455 -0.000239 -0.000145
    16 H     0.000017 -0.000136  0.000028
    17 H     0.000042  0.000017  0.000054
    18 H    -0.000118  0.000124 -0.000031
    19 Ti   -0.000182 -0.003760 -0.000767
    20 Cl   -0.000485 -0.004777 -0.000938
    21 Cl   -0.000713  0.000393  0.001277
    22 Cl   -0.000675  0.000905 -0.001050
    23 Cl    0.001323  0.000407  0.000070
 ----------------------------------------
 Mulliken charges used for AMS results%charges...

 dE(predicted):    -0.10799E-02, dE(actual):    -0.75799E-03, Trust radius:    1.000000, all in a.u.
 Residual max backtransformation error   0.8829E-05
 
----------------------------------------------------------------------
Geometry Convergence after Step  14       (Hartree/Angstrom,Angstrom)
----------------------------------------------------------------------
current energy                               -4.88751588 Hartree
energy change                      -0.00075799     0.00023000    F
constrained gradient max            0.00638099     0.00100000    F
constrained gradient rms            0.00145145     0.00066667    F
gradient max                        0.00638099
gradient rms                        0.00145145
cart. step max                      0.21209715     0.01000000    F
cart. step rms                      0.06577860     0.00666667    F
 
 
--------
Geometry
--------
Formula: C9H8Cl4OTi
Atoms
  Index Symbol   x (angstrom)   y (angstrom)   z (angstrom)
      1      H    -0.55621261    -0.15696898    -0.21481993
      2      C    -0.41742486    -2.30158575    -0.09134767
      3      C     0.05216400    -1.03422717    -0.00851240
      4      C     1.44056527    -0.77264360     0.36775711
      5      O     1.93885566     0.33910800     0.46603438
      6      H     0.29405850    -3.09615605     0.14198143
      7      C    -4.27769307    -3.80490534    -1.15134580
      8      C    -3.20452481    -4.67048663    -0.94007377
      9      C    -1.95734261    -4.15863107    -0.59303743
     10      C    -1.74812214    -2.77159309    -0.44950546
     11      C    -2.84858549    -1.91408001    -0.66133663
     12      C    -4.09184111    -2.42524230    -1.01012999
     13      H    -3.33899884    -5.74408158    -1.04594602
     14      H    -1.12478358    -4.83882562    -0.42816340
     15      H    -2.73363642    -0.84018643    -0.55242219
     16      H    -4.92741077    -1.74765928    -1.16789299
     17      H    -5.25446073    -4.19860355    -1.42151796
     18      H     2.05108314    -1.68581064     0.56898099
     19     Ti     2.45435952     5.63690712     1.41514776
     20     Cl     2.24231310     3.51045457     1.05439565
     21     Cl     1.51732327     6.14900648     3.32625430
     22     Cl     1.47719713     6.75251445    -0.19533936
     23     Cl     4.57802129     6.15950879     1.47937500
 
Total System Charge             0.00000
 
 *** GOStep15 ***

 Energy gradients wrt nuclear displacements
 ==========================================

     Atom      Cartesian (a.u./angstrom)
                 X         Y         Z
 ----------------------------------------
     1 H     0.000819  0.000382  0.000678
     2 C    -0.002647 -0.001095 -0.001974
     3 C     0.001355  0.000299 -0.000085
     4 C    -0.001178 -0.000474 -0.000541
     5 O     0.001136  0.004765  0.001021
     6 H    -0.000808  0.000207  0.001373
     7 C    -0.000122 -0.001182  0.000053
     8 C    -0.000127 -0.000480  0.000418
     9 C    -0.000364 -0.000466 -0.001292
    10 C     0.003978  0.000816  0.000829
    11 C    -0.001861 -0.000474  0.001205
    12 C     0.001396  0.001829 -0.000480
    13 H    -0.000079  0.000182 -0.000076
    14 H    -0.000028  0.000148  0.000194
    15 H    -0.000722 -0.000237 -0.000429
    16 H    -0.000003 -0.000239  0.000072
    17 H     0.000059  0.000096  0.000047
    18 H    -0.000239  0.000558 -0.000186
    19 Ti   -0.000144 -0.001910 -0.000433
    20 Cl   -0.000227 -0.001978 -0.000320
    21 Cl    0.000276 -0.000170 -0.000679
    22 Cl    0.000349 -0.000353  0.000637
    23 Cl   -0.000820 -0.000225 -0.000033
 ----------------------------------------
 Mulliken charges used for AMS results%charges...

 dE(predicted):    -0.75966E-03, dE(actual):    -0.66786E-03, Trust radius:    1.000000, all in a.u.
 
----------------------------------------------------------------------
Geometry Convergence after Step  15       (Hartree/Angstrom,Angstrom)
----------------------------------------------------------------------
current energy                               -4.88818374 Hartree
energy change                      -0.00066786     0.00023000    F
constrained gradient max            0.00476144     0.00100000    F
constrained gradient rms            0.00112766     0.00066667    F
gradient max                        0.00476144
gradient rms                        0.00112766
cart. step max                      0.21196758     0.01000000    F
cart. step rms                      0.06304257     0.00666667    F
 
 
--------
Geometry
--------
Formula: C9H8Cl4OTi
Atoms
  Index Symbol   x (angstrom)   y (angstrom)   z (angstrom)
      1      H    -0.55328726    -0.20288045    -0.21267852
      2      C    -0.43087021    -2.34414077    -0.04483228
      3      C     0.04350335    -1.07878644     0.03072546
      4      C     1.42274649    -0.81635504     0.44060499
      5      O     1.92180020     0.29536695     0.53050787
      6      H     0.27764684    -3.14256538     0.18506544
      7      C    -4.28091466    -3.80318029    -1.20013068
      8      C    -3.19722227    -4.67116549    -1.06559553
      9      C    -1.95537048    -4.17732117    -0.67571331
     10      C    -1.75946876    -2.80355324    -0.42848173
     11      C    -2.86827877    -1.94278770    -0.56751360
     12      C    -4.11051944    -2.43863229    -0.94281776
     13      H    -3.32070736    -5.73403247    -1.25791360
     14      H    -1.11503282    -4.85963136    -0.56962009
     15      H    -2.76439382    -0.88143915    -0.36424557
     16      H    -4.95498044    -1.76022121    -1.03692251
     17      H    -5.25486008    -4.18432995    -1.49708509
     18      H     2.02281667    -1.72740667     0.67902633
     19     Ti     2.48879539     5.72769762     1.37669949
     20     Cl     2.26280748     3.59326309     1.06494438
     21     Cl     1.55719199     6.29000540     3.27292749
     22     Cl     1.52050779     6.81033491    -0.25735096
     23     Cl     4.61299401     6.23757342     1.42893538
 
Total System Charge             0.00000
 
 *** GOStep16 ***

 Energy gradients wrt nuclear displacements
 ==========================================

     Atom      Cartesian (a.u./angstrom)
                 X         Y         Z
 ----------------------------------------
     1 H     0.001107  0.000440 -0.000602
     2 C    -0.002363 -0.000269  0.001534
     3 C     0.000622 -0.000130 -0.000632
     4 C    -0.000556 -0.000515  0.000289
     5 O     0.000365  0.002743  0.000371
     6 H     0.000041  0.000077 -0.000750
     7 C     0.000065 -0.001005 -0.000383
     8 C    -0.000019 -0.000168 -0.000669
     9 C    -0.000307 -0.000306 -0.000164
    10 C     0.002394  0.000174  0.000935
    11 C    -0.000530 -0.000168 -0.000690
    12 C     0.000541  0.001396  0.001388
    13 H    -0.000022  0.000169  0.000132
    14 H     0.000055  0.000190 -0.000164
    15 H    -0.000789 -0.000153 -0.000033
    16 H     0.000027 -0.000198 -0.000068
    17 H     0.000081  0.000169  0.000013
    18 H    -0.000297  0.000665 -0.000025
    19 Ti   -0.000051 -0.000188 -0.000121
    20 Cl   -0.000096 -0.000682 -0.000101
    21 Cl    0.000917 -0.000566 -0.001954
    22 Cl    0.001039 -0.001116  0.001753
    23 Cl   -0.002223 -0.000559 -0.000059
 ----------------------------------------
 Mulliken charges used for AMS results%charges...

 dE(predicted):    -0.40420E-03, dE(actual):    -0.33891E-03, Trust radius:    1.000000, all in a.u.
 
----------------------------------------------------------------------
Geometry Convergence after Step  16       (Hartree/Angstrom,Angstrom)
----------------------------------------------------------------------
current energy                               -4.88852265 Hartree
energy change                      -0.00033891     0.00023000    F
constrained gradient max            0.00274292     0.00100000    F
constrained gradient rms            0.00085629     0.00066667    F
gradient max                        0.00274292
gradient rms                        0.00085629
cart. step max                      0.11955072     0.01000000    F
cart. step rms                      0.04097284     0.00666667    F
 
 
--------
Geometry
--------
Formula: C9H8Cl4OTi
Atoms
  Index Symbol   x (angstrom)   y (angstrom)   z (angstrom)
      1      H    -0.56692690    -0.24687051    -0.20034157
      2      C    -0.44206107    -2.38420190    -0.01757353
      3      C     0.03190536    -1.11894543     0.05243146
      4      C     1.40819416    -0.85068571     0.47134607
      5      O     1.90353190     0.26268654     0.55806708
      6      H     0.25310256    -3.18271942     0.25021971
      7      C    -4.28541602    -3.80811660    -1.23874759
      8      C    -3.20535971    -4.68265695    -1.11514491
      9      C    -1.96499152    -4.20273193    -0.70360339
     10      C    -1.76821531    -2.83575541    -0.42469577
     11      C    -2.87365850    -1.96909938    -0.54540046
     12      C    -4.11394218    -2.45119457    -0.94682286
     13      H    -3.32985345    -5.73995973    -1.33569104
     14      H    -1.12816201    -4.89044428    -0.60509875
     15      H    -2.76732454    -0.91526273    -0.30664664
     16      H    -4.95630073    -1.76847476    -1.02799277
     17      H    -5.25773726    -4.17948255    -1.55295162
     18      H     2.01059236    -1.75947492     0.71316172
     19     Ti     2.52374611     5.81817489     1.37243804
     20     Cl     2.28334883     3.68010657     1.07947271
     21     Cl     1.67674272     6.38973983     3.30340108
     22     Cl     1.48695810     6.89336775    -0.22180496
     23     Cl     4.64673094     6.32781354     1.33051359
 
Total System Charge             0.00000
 
 *** GOStep17 ***

 Energy gradients wrt nuclear displacements
 ==========================================

     Atom      Cartesian (a.u./angstrom)
                 X         Y         Z
 ----------------------------------------
     1 H     0.000036  0.000432  0.000685
     2 C    -0.000268 -0.000131 -0.000056
     3 C    -0.000136 -0.000475 -0.001706
     4 C     0.000181 -0.000289  0.000449
     5 O     0.000251  0.002053  0.000110
     6 H    -0.000493  0.000121  0.001908
     7 C    -0.000129 -0.000467 -0.000000
     8 C    -0.000059 -0.000075 -0.000163
     9 C     0.000053 -0.000127 -0.000034
    10 C     0.000844 -0.000044 -0.001771
    11 C     0.000269  0.000024  0.000875
    12 C     0.000001  0.000586  0.000051
    13 H     0.000124  0.000161 -0.000146
    14 H    -0.000066  0.000071  0.000075
    15 H    -0.000284 -0.000002  0.000422
    16 H     0.000035 -0.000156 -0.000021
    17 H     0.000052  0.000137  0.000088
    18 H    -0.000105  0.000535 -0.000421
    19 Ti    0.000035  0.001285  0.000061
    20 Cl   -0.000094 -0.000724 -0.000126
    21 Cl    0.001163 -0.000744 -0.002560
    22 Cl    0.001448 -0.001467  0.002245
    23 Cl   -0.002856 -0.000703  0.000033
 ----------------------------------------
 Mulliken charges used for AMS results%charges...
 Rebuilding optimization coordinates

 dE(predicted):    -0.18986E-03, dE(actual):    -0.23695E-03, Trust radius:    1.000000, all in a.u.
 
----------------------------------------------------------------------
Geometry Convergence after Step  17       (Hartree/Angstrom,Angstrom)
----------------------------------------------------------------------
current energy                               -4.88875960 Hartree
energy change                      -0.00023695     0.00023000    F
constrained gradient max            0.00285629     0.00100000    F
constrained gradient rms            0.00082711     0.00066667    F
gradient max                        0.00285629
gradient rms                        0.00082711
cart. step max                      0.14122833     0.01000000    F
cart. step rms                      0.04169766     0.00666667    F
 
 
--------
Geometry
--------
Formula: C9H8Cl4OTi
Atoms
  Index Symbol   x (angstrom)   y (angstrom)   z (angstrom)
      1      H    -0.57770435    -0.29795624    -0.20750371
      2      C    -0.44662929    -2.43164393    -0.02393212
      3      C     0.02466487    -1.16597848     0.05098971
      4      C     1.39694635    -0.89209083     0.48224899
      5      O     1.88599104     0.22323480     0.57707262
      6      H     0.24783336    -3.23281706     0.23755643
      7      C    -4.30358005    -3.82278899    -1.24478624
      8      C    -3.22562909    -4.70317049    -1.14345408
      9      C    -1.97916191    -4.23433411    -0.73743049
     10      C    -1.77861696    -2.87468589    -0.42953807
     11      C    -2.88152916    -2.00262317    -0.52463663
     12      C    -4.12548355    -2.47207072    -0.93203918
     13      H    -3.35587362    -5.75622108    -1.38071722
     14      H    -1.14397200    -4.92650826    -0.65853720
     15      H    -2.76534710    -0.95322350    -0.27140229
     16      H    -4.96539996    -1.78448699    -0.99602426
     17      H    -5.27888732    -4.18601151    -1.55930702
     18      H     1.99973894    -1.79931488     0.73032050
     19     Ti     2.56788932     5.93631357     1.38368563
     20     Cl     2.31351903     3.79430846     1.10461563
     21     Cl     1.70312125     6.53096817     3.29926034
     22     Cl     1.55855803     7.00573104    -0.23138029
     23     Cl     4.69445602     6.43118242     1.36347454
 
Total System Charge             0.00000
 
 *** GOStep18 ***

 Energy gradients wrt nuclear displacements
 ==========================================

     Atom      Cartesian (a.u./angstrom)
                 X         Y         Z
 ----------------------------------------
     1 H    -0.000468  0.000036 -0.000025
     2 C     0.002095 -0.000135  0.000186
     3 C    -0.000984 -0.000548 -0.001453
     4 C     0.001006  0.000092  0.000554
     5 O     0.000008  0.000938  0.000031
     6 H    -0.000216  0.000081  0.001525
     7 C    -0.000229  0.000433  0.000239
     8 C    -0.000214 -0.000039  0.000747
     9 C     0.001116  0.000602 -0.001732
    10 C    -0.002271 -0.000344 -0.001188
    11 C     0.000387 -0.000047  0.002703
    12 C    -0.000624 -0.000470 -0.001484
    13 H     0.000114  0.000083 -0.000030
    14 H    -0.000160 -0.000007  0.000205
    15 H     0.000619  0.000144 -0.000153
    16 H     0.000037 -0.000095  0.000131
    17 H     0.000096  0.000080 -0.000006
    18 H    -0.000159  0.000227 -0.000103
    19 Ti    0.000214  0.002619  0.000274
    20 Cl   -0.000164 -0.000918 -0.000168
    21 Cl    0.001175 -0.000718 -0.002450
    22 Cl    0.001348 -0.001420  0.002156
    23 Cl   -0.002725 -0.000593  0.000040
 ----------------------------------------
 Mulliken charges used for AMS results%charges...

 dE(predicted):    -0.18694E-03, dE(actual):    -0.21493E-03, Trust radius:    1.000000, all in a.u.
 
----------------------------------------------------------------------
Geometry Convergence after Step  18       (Hartree/Angstrom,Angstrom)
----------------------------------------------------------------------
current energy                               -4.88897453 Hartree
energy change                      -0.00021493     0.00023000    T
constrained gradient max            0.00272681     0.00100000    F
constrained gradient rms            0.00099117     0.00066667    F
gradient max                        0.00272681
gradient rms                        0.00099117
cart. step max                      0.08351324     0.01000000    F
cart. step rms                      0.02499889     0.00666667    F
 
 
--------
Geometry
--------
Formula: C9H8Cl4OTi
Atoms
  Index Symbol   x (angstrom)   y (angstrom)   z (angstrom)
      1      H    -0.59039176    -0.28110076    -0.19668476
      2      C    -0.45088331    -2.41710233    -0.03811793
      3      C     0.01771677    -1.15044981     0.04266888
      4      C     1.39625247    -0.87861620     0.45364858
      5      O     1.88598615     0.23613482     0.55197496
      6      H     0.25012856    -3.21702491     0.20880137
      7      C    -4.30445251    -3.84005319    -1.23306834
      8      C    -3.22791423    -4.71760790    -1.09918226
      9      C    -1.98483333    -4.23770158    -0.69595671
     10      C    -1.78133527    -2.86762401    -0.43877661
     11      C    -2.88148995    -1.99703837    -0.57504883
     12      C    -4.12616392    -2.48003906    -0.96279274
     13      H    -3.35863830    -5.77781851    -1.30173130
     14      H    -1.15110263    -4.92799304    -0.58976845
     15      H    -2.76687904    -0.94015601    -0.35491553
     16      H    -4.96465764    -1.79382165    -1.05418688
     17      H    -5.27913375    -4.21260073    -1.53852079
     18      H     2.00516359    -1.78781438     0.67870549
     19     Ti     2.57595369     5.93124378     1.40594381
     20     Cl     2.31857322     3.79217606     1.10859068
     21     Cl     1.72391438     6.50810334     3.33443787
     22     Cl     1.55494589     7.01715621    -0.19293209
     23     Cl     4.70414475     6.42556057     1.37544718
 
Total System Charge             0.00000
 
 *** GOStep19 ***

 Energy gradients wrt nuclear displacements
 ==========================================

     Atom      Cartesian (a.u./angstrom)
                 X         Y         Z
 ----------------------------------------
     1 H    -0.000458 -0.000076  0.000109
     2 C     0.001446 -0.000057  0.001421
     3 C    -0.000379 -0.000260 -0.001354
     4 C     0.000708  0.000261  0.000524
     5 O     0.000136  0.000792  0.000009
     6 H    -0.000259  0.000079  0.001060
     7 C    -0.000072  0.000422 -0.000071
     8 C     0.000239  0.000100 -0.000745
     9 C     0.000167 -0.000023  0.000798
    10 C    -0.001608 -0.000135 -0.001976
    11 C     0.000712  0.000502 -0.000409
    12 C    -0.000838 -0.000711  0.000613
    13 H     0.000030  0.000065  0.000032
    14 H    -0.000075  0.000055 -0.000195
    15 H     0.000306 -0.000150  0.000637
    16 H     0.000094 -0.000041 -0.000051
    17 H     0.000080  0.000008  0.000104
    18 H    -0.000076  0.000188 -0.000350
    19 Ti    0.000165  0.001814  0.000185
    20 Cl   -0.000190 -0.001041 -0.000177
    21 Cl    0.000776 -0.000461 -0.001625
    22 Cl    0.000895 -0.000950  0.001428
    23 Cl   -0.001799 -0.000382  0.000030
 ----------------------------------------
 Mulliken charges used for AMS results%charges...

 dE(predicted):    -0.78265E-04, dE(actual):    -0.11134E-03, Trust radius:    1.000000, all in a.u.
 
----------------------------------------------------------------------
Geometry Convergence after Step  19       (Hartree/Angstrom,Angstrom)
----------------------------------------------------------------------
current energy                               -4.88908586 Hartree
energy change                      -0.00011134     0.00023000    T
constrained gradient max            0.00197512     0.00100000    F
constrained gradient rms            0.00071644     0.00066667    F
gradient max                        0.00197512
gradient rms                        0.00071644
cart. step max                      0.21161945     0.01000000    F
cart. step rms                      0.06329176     0.00666667    F
 
 
--------
Geometry
--------
Formula: C9H8Cl4OTi
Atoms
  Index Symbol   x (angstrom)   y (angstrom)   z (angstrom)
      1      H    -0.61357069    -0.25754077    -0.19185031
      2      C    -0.45115962    -2.39799066    -0.10956228
      3      C     0.00900908    -1.12932423    -0.00561819
      4      C     1.39809530    -0.86111770     0.36782249
      5      O     1.88551534     0.25278645     0.48616977
      6      H     0.26748337    -3.19525386     0.08969944
      7      C    -4.31983759    -3.88182077    -1.17450440
      8      C    -3.24856438    -4.75261119    -0.97318558
      9      C    -2.00045810    -4.24852610    -0.61820833
     10      C    -1.78644160    -2.86322610    -0.47117375
     11      C    -2.88266243    -2.00003851    -0.67569750
     12      C    -4.13075540    -2.50497274    -1.01952432
     13      H    -3.38645654    -5.82475569    -1.09011185
     14      H    -1.17032233    -4.93334788    -0.46047905
     15      H    -2.76165276    -0.92856339    -0.55140966
     16      H    -4.96384476    -1.82239537    -1.16926234
     17      H    -5.29771200    -4.27157336    -1.44663181
     18      H     2.01821658    -1.77353173     0.54537851
     19     Ti     2.60056034     5.95188630     1.47086269
     20     Cl     2.33755482     3.81955141     1.12921418
     21     Cl     1.68195628     6.50462302     3.37979614
     22     Cl     1.64425009     7.07382595    -0.14808830
     23     Cl     4.73570083     6.42972925     1.52490009
 
Total System Charge             0.00000
 
 *** GOStep20 ***

 Energy gradients wrt nuclear displacements
 ==========================================

     Atom      Cartesian (a.u./angstrom)
                 X         Y         Z
 ----------------------------------------
     1 H    -0.000191 -0.000299 -0.000038
     2 C     0.000529 -0.000087  0.001354
     3 C     0.000839  0.000496 -0.000550
     4 C    -0.000062  0.000323  0.000303
     5 O     0.000316  0.000757  0.000122
     6 H    -0.000415  0.000038 -0.000056
     7 C    -0.000015  0.000233  0.000030
     8 C     0.000323 -0.000240 -0.000437
     9 C    -0.000274 -0.000143  0.001365
    10 C    -0.000333  0.000268 -0.001662
    11 C    -0.000398  0.000199 -0.000893
    12 C    -0.000090 -0.000182  0.000585
    13 H    -0.000026  0.000058 -0.000243
    14 H    -0.000071 -0.000004 -0.000117
    15 H    -0.000065 -0.000345  0.000629
    16 H     0.000119  0.000029 -0.000095
    17 H     0.000071 -0.000096  0.000077
    18 H    -0.000075  0.000010 -0.000199
    19 Ti    0.000065  0.000250  0.000075
    20 Cl   -0.000290 -0.001672 -0.000277
    21 Cl   -0.000148  0.000094  0.000268
    22 Cl   -0.000143  0.000188 -0.000253
    23 Cl    0.000332  0.000125  0.000012
 ----------------------------------------
 Mulliken charges used for AMS results%charges...

 dE(predicted):    -0.15855E-03, dE(actual):    -0.20677E-03, Trust radius:    1.000000, all in a.u.
 
----------------------------------------------------------------------
Geometry Convergence after Step  20       (Hartree/Angstrom,Angstrom)
----------------------------------------------------------------------
current energy                               -4.88929263 Hartree
energy change                      -0.00020677     0.00023000    T
constrained gradient max            0.00167388     0.00100000    F
constrained gradient rms            0.00047128     0.00066667    T
gradient max                        0.00167388
gradient rms                        0.00047128
cart. step max                      0.12227017     0.01000000    F
cart. step rms                      0.04903854     0.00666667    F
 
 
--------
Geometry
--------
Formula: C9H8Cl4OTi
Atoms
  Index Symbol   x (angstrom)   y (angstrom)   z (angstrom)
      1      H    -0.64411356    -0.27894290    -0.16874052
      2      C    -0.46091074    -2.41946568    -0.14970724
      3      C    -0.01001443    -1.14975196    -0.02114643
      4      C     1.38523142    -0.87930270     0.32586788
      5      O     1.86622242     0.23574351     0.45897547
      6      H     0.26811466    -3.21463703     0.01780536
      7      C    -4.33924107    -3.92092851    -1.15317848
      8      C    -3.27380411    -4.78947115    -0.91481111
      9      C    -2.02087543    -4.27881834    -0.58717437
     10      C    -1.79916132    -2.89011931    -0.49155002
     11      C    -2.88845111    -2.02918384    -0.73837252
     12      C    -4.13979310    -2.53990519    -1.06078618
     13      H    -3.42025880    -5.86485850    -0.98069495
     14      H    -1.19494237    -4.96189841    -0.40194803
     15      H    -2.75771219    -0.95358897    -0.67367983
     16      H    -4.96690970    -1.85836362    -1.24476563
     17      H    -5.31995542    -4.31545714    -1.40783146
     18      H     2.01599472    -1.79090722     0.46815879
[...]
-------  ------    ---------   --------
    7       1          1       0.60779443D-01
    7       1          2       0.67886185D-02
    7       1          3       0.28614434D-02
    7       1          4       0.55828435D-03
    7       1          5       0.19456640D-03
    7       1          6       0.12567424D-03
    7       1          7       0.57679442D-04
    7       1          8       0.16225214D-04
    7       1          9       0.65073951D-05
*** CPKS converged.
----------------------------------------------
    7       2          1       0.70499195D-01
    7       2          2       0.96690273D-02
    7       2          3       0.27256794D-02
    7       2          4       0.10168978D-02
    7       2          5       0.15221114D-03
    7       2          6       0.12540882D-03
    7       2          7       0.48318506D-04
    7       2          8       0.12289287D-04
    7       2          9       0.41001854D-05
*** CPKS converged.
----------------------------------------------
    7       3          1       0.15810982D-01
    7       3          2       0.26407128D-02
    7       3          3       0.76823632D-03
    7       3          4       0.26839387D-03
    7       3          5       0.71145424D-04
    7       3          6       0.36978736D-04
    7       3          7       0.16784589D-04
    7       3          8       0.53561667D-05
*** CPKS converged.
----------------------------------------------

====================  end of solving CPKS equations  ====================

==========================
###### NUCLEUS:     8  C  
==========================

====================  solving CPKS equations  ====================

NUCLEUS  COORD.    ITERATION   ACCURACY
-------  ------    ---------   --------
    8       1          1       0.74784904D-01
    8       1          2       0.76253851D-02
    8       1          3       0.35231606D-02
    8       1          4       0.13590797D-02
    8       1          5       0.18642998D-03
    8       1          6       0.85310372D-04
    8       1          7       0.44863398D-04
    8       1          8       0.18895687D-04
    8       1          9       0.66571390D-05
*** CPKS converged.
----------------------------------------------
    8       2          1       0.65281612D-01
    8       2          2       0.70194956D-02
    8       2          3       0.22796558D-02
    8       2          4       0.47400629D-03
    8       2          5       0.27198882D-03
    8       2          6       0.17203891D-03
    8       2          7       0.93140178D-04
    8       2          8       0.15441503D-04
    8       2          9       0.40353834D-05
*** CPKS converged.
----------------------------------------------
    8       3          1       0.17897113D-01
    8       3          2       0.21527353D-02
    8       3          3       0.10628045D-02
    8       3          4       0.49893272D-03
    8       3          5       0.73213199D-04
    8       3          6       0.27850309D-04
    8       3          7       0.13589700D-04
    8       3          8       0.61822940D-05
*** CPKS converged.
----------------------------------------------

====================  end of solving CPKS equations  ====================

==========================
###### NUCLEUS:     9  C  
==========================

====================  solving CPKS equations  ====================

NUCLEUS  COORD.    ITERATION   ACCURACY
-------  ------    ---------   --------
    9       1          1       0.57295464D-01
    9       1          2       0.84137963D-02
    9       1          3       0.14521604D-02
    9       1          4       0.42160035D-03
    9       1          5       0.17216295D-03
    9       1          6       0.86663988D-04
    9       1          7       0.94039374D-04
    9       1          8       0.22126318D-04
    9       1          9       0.92969157D-05
*** CPKS converged.
----------------------------------------------
    9       2          1       0.59064694D-01
    9       2          2       0.81081340D-02
    9       2          3       0.31604270D-02
    9       2          4       0.94431559D-03
    9       2          5       0.21139442D-03
    9       2          6       0.19470908D-03
    9       2          7       0.45155359D-04
    9       2          8       0.19565228D-04
    9       2          9       0.61174666D-05
*** CPKS converged.
----------------------------------------------
    9       3          1       0.13299863D-01
    9       3          2       0.28526575D-02
    9       3          3       0.69567095D-03
    9       3          4       0.19946045D-03
    9       3          5       0.60191034D-04
    9       3          6       0.26943203D-04
    9       3          7       0.34741778D-04
    9       3          8       0.11004759D-04
    9       3          9       0.28641539D-05
*** CPKS converged.
----------------------------------------------

====================  end of solving CPKS equations  ====================

==========================
###### NUCLEUS:    10  C  
==========================

====================  solving CPKS equations  ====================

NUCLEUS  COORD.    ITERATION   ACCURACY
-------  ------    ---------   --------
   10       1          1       0.69359158D-01
   10       1          2       0.12332180D-01
   10       1          3       0.26736937D-02
   10       1          4       0.52198673D-03
   10       1          5       0.28486638D-03
   10       1          6       0.14884541D-03
   10       1          7       0.65715493D-04
   10       1          8       0.93102160D-05
*** CPKS converged.
----------------------------------------------
   10       2          1       0.72693213D-01
   10       2          2       0.62868601D-02
   10       2          3       0.16988233D-02
   10       2          4       0.60973162D-03
   10       2          5       0.20338453D-03
   10       2          6       0.19876202D-03
   10       2          7       0.83868883D-04
   10       2          8       0.16884359D-04
   10       2          9       0.76603412D-05
*** CPKS converged.
----------------------------------------------
   10       3          1       0.15675225D-01
   10       3          2       0.46751295D-02
   10       3          3       0.87256471D-03
   10       3          4       0.18997900D-03
   10       3          5       0.73077232D-04
   10       3          6       0.43007365D-04
   10       3          7       0.21149088D-04
   10       3          8       0.35783840D-05
*** CPKS converged.
----------------------------------------------

====================  end of solving CPKS equations  ====================

==========================
###### NUCLEUS:    11  C  
==========================

====================  solving CPKS equations  ====================

NUCLEUS  COORD.    ITERATION   ACCURACY
-------  ------    ---------   --------
   11       1          1       0.69733769D-01
   11       1          2       0.86289235D-02
   11       1          3       0.44360152D-02
   11       1          4       0.86818841D-03
   11       1          5       0.15900629D-03
   11       1          6       0.10092037D-03
   11       1          7       0.46961820D-04
   11       1          8       0.19196668D-04
   11       1          9       0.73902463D-05
*** CPKS converged.
----------------------------------------------
   11       2          1       0.39624649D-01
   11       2          2       0.67346149D-02
   11       2          3       0.20340867D-02
   11       2          4       0.80125089D-03
   11       2          5       0.22944485D-03
   11       2          6       0.95046834D-04
   11       2          7       0.90986232D-04
   11       2          8       0.25412367D-04
   11       2          9       0.50181412D-05
*** CPKS converged.
----------------------------------------------
   11       3          1       0.17981265D-01
   11       3          2       0.39745591D-02
   11       3          3       0.17247206D-02
   11       3          4       0.31425595D-03
   11       3          5       0.68797842D-04
   11       3          6       0.37253640D-04
   11       3          7       0.15932687D-04
   11       3          8       0.86978619D-05
*** CPKS converged.
----------------------------------------------

====================  end of solving CPKS equations  ====================

==========================
###### NUCLEUS:    12  C  
==========================

====================  solving CPKS equations  ====================

NUCLEUS  COORD.    ITERATION   ACCURACY
-------  ------    ---------   --------
   12       1          1       0.75709568D-01
   12       1          2       0.50252153D-02
   12       1          3       0.23797293D-02
   12       1          4       0.75981595D-03
   12       1          5       0.23611156D-03
   12       1          6       0.93870306D-04
   12       1          7       0.75081855D-04
   12       1          8       0.22546469D-04
   12       1          9       0.68549714D-05
*** CPKS converged.
----------------------------------------------
   12       2          1       0.71813113D-01
   12       2          2       0.74766909D-02
   12       2          3       0.28274674D-02
   12       2          4       0.75043147D-03
   12       2          5       0.32421886D-03
   12       2          6       0.16676034D-03
   12       2          7       0.50719291D-04
   12       2          8       0.13533824D-04
   12       2          9       0.52650160D-05
*** CPKS converged.
----------------------------------------------
   12       3          1       0.18246649D-01
   12       3          2       0.23387821D-02
   12       3          3       0.82930280D-03
   12       3          4       0.23864004D-03
   12       3          5       0.10594132D-03
   12       3          6       0.35111094D-04
   12       3          7       0.28457377D-04
   12       3          8       0.93766211D-05
*** CPKS converged.
----------------------------------------------

====================  end of solving CPKS equations  ====================

==========================
###### NUCLEUS:     5  O  
==========================

====================  solving CPKS equations  ====================

NUCLEUS  COORD.    ITERATION   ACCURACY
-------  ------    ---------   --------
    5       1          1       0.27111715D-01
    5       1          2       0.75665947D-02
    5       1          3       0.95852135D-03
    5       1          4       0.56257991D-03
    5       1          5       0.71721321D-03
    5       1          6       0.78368241D-04
    5       1          7       0.34379039D-04
    5       1          8       0.73050883D-05
*** CPKS converged.
----------------------------------------------
    5       2          1       0.56804119D-01
    5       2          2       0.75297523D-02
    5       2          3       0.23545219D-02
    5       2          4       0.15883344D-02
    5       2          5       0.11621210D-02
    5       2          6       0.11536888D-03
    5       2          7       0.47030540D-04
    5       2          8       0.10017377D-04
    5       2          9       0.35408489D-05
*** CPKS converged.
----------------------------------------------
    5       3          1       0.92498828D-02
    5       3          2       0.36618383D-02
    5       3          3       0.70810539D-03
    5       3          4       0.40056003D-03
    5       3          5       0.31113898D-03
    5       3          6       0.38866211D-04
    5       3          7       0.16391417D-04
    5       3          8       0.65293845D-05
*** CPKS converged.
----------------------------------------------

====================  end of solving CPKS equations  ====================

==========================
###### NUCLEUS:    19  Ti 
==========================

====================  solving CPKS equations  ====================

NUCLEUS  COORD.    ITERATION   ACCURACY
-------  ------    ---------   --------
   19       1          1       0.96507494D-02
   19       1          2       0.24526203D-02
   19       1          3       0.10797089D-02
   19       1          4       0.71283054D-03
   19       1          5       0.16683313D-03
   19       1          6       0.73139984D-04
   19       1          7       0.31516506D-04
   19       1          8       0.87400897D-05
*** CPKS converged.
----------------------------------------------
   19       2          1       0.92832392D-02
   19       2          2       0.25602611D-02
   19       2          3       0.13072988D-02
   19       2          4       0.89851877D-03
   19       2          5       0.34132680D-03
   19       2          6       0.71934739D-04
   19       2          7       0.26773510D-04
   19       2          8       0.13984685D-04
   19       2          9       0.17452067D-05
*** CPKS converged.
----------------------------------------------
   19       3          1       0.10578371D-01
   19       3          2       0.27581156D-02
   19       3          3       0.56711316D-03
   19       3          4       0.56564819D-03
   19       3          5       0.19119960D-03
   19       3          6       0.58930282D-04
   19       3          7       0.37085568D-04
   19       3          8       0.62350498D-05
*** CPKS converged.
----------------------------------------------

====================  end of solving CPKS equations  ====================

==========================
###### NUCLEUS:    20  Cl 
==========================

====================  solving CPKS equations  ====================

NUCLEUS  COORD.    ITERATION   ACCURACY
-------  ------    ---------   --------
   20       1          1       0.41634962D-02
   20       1          2       0.12476288D-02
   20       1          3       0.47641989D-03
   20       1          4       0.20220823D-03
   20       1          5       0.83656631D-04
   20       1          6       0.28615681D-04
   20       1          7       0.69587426D-05
*** CPKS converged.
----------------------------------------------
   20       2          1       0.15220025D-01
   20       2          2       0.82520364D-02
   20       2          3       0.11561121D-02
   20       2          4       0.38038019D-03
   20       2          5       0.27392823D-03
   20       2          6       0.49940080D-04
   20       2          7       0.15908948D-04
   20       2          8       0.62965665D-05
*** CPKS converged.
----------------------------------------------
   20       3          1       0.36468922D-02
   20       3          2       0.13177239D-02
   20       3          3       0.48722138D-03
   20       3          4       0.21253268D-03
   20       3          5       0.66506839D-04
   20       3          6       0.28726467D-04
   20       3          7       0.68877321D-05
*** CPKS converged.
----------------------------------------------

====================  end of solving CPKS equations  ====================

==========================
###### NUCLEUS:    21  Cl 
==========================

====================  solving CPKS equations  ====================

NUCLEUS  COORD.    ITERATION   ACCURACY
-------  ------    ---------   --------
   21       1          1       0.55052072D-02
   21       1          2       0.29264902D-02
   21       1          3       0.72250108D-03
   21       1          4       0.20076633D-03
   21       1          5       0.15050529D-03
   21       1          6       0.25692798D-04
   21       1          7       0.99978015D-05
*** CPKS converged.
----------------------------------------------
   21       2          1       0.41728004D-02
   21       2          2       0.16776179D-02
   21       2          3       0.72243342D-03
   21       2          4       0.31131715D-03
   21       2          5       0.95628349D-04
   21       2          6       0.21314170D-04
   21       2          7       0.12988335D-04
   21       2          8       0.37331546D-05
*** CPKS converged.
----------------------------------------------
   21       3          1       0.10125396D-01
   21       3          2       0.55905734D-02
   21       3          3       0.10122833D-02
   21       3          4       0.31619493D-03
   21       3          5       0.17214947D-03
   21       3          6       0.32255050D-04
   21       3          7       0.10424394D-04
   21       3          8       0.54241041D-05
*** CPKS converged.
----------------------------------------------

====================  end of solving CPKS equations  ====================

==========================
###### NUCLEUS:    22  Cl 
==========================

====================  solving CPKS equations  ====================

NUCLEUS  COORD.    ITERATION   ACCURACY
-------  ------    ---------   --------
   22       1          1       0.56689614D-02
   22       1          2       0.26710015D-02
   22       1          3       0.70510807D-03
   22       1          4       0.22646540D-03
   22       1          5       0.15630385D-03
   22       1          6       0.21277682D-04
   22       1          7       0.10199530D-04
   22       1          8       0.38421627D-05
*** CPKS converged.
----------------------------------------------
   22       2          1       0.77495411D-02
   22       2          2       0.34472367D-02
   22       2          3       0.87064034D-03
   22       2          4       0.38146103D-03
   22       2          5       0.15751460D-03
   22       2          6       0.30686598D-04
   22       2          7       0.12392106D-04
   22       2          8       0.47331280D-05
*** CPKS converged.
----------------------------------------------
   22       3          1       0.97602915D-02
   22       3          2       0.55195684D-02
   22       3          3       0.80152589D-03
   22       3          4       0.31339752D-03
   22       3          5       0.22706548D-03
   22       3          6       0.39139748D-04
   22       3          7       0.12660346D-04
   22       3          8       0.52037930D-05
*** CPKS converged.
----------------------------------------------

====================  end of solving CPKS equations  ====================

==========================
###### NUCLEUS:    23  Cl 
==========================

====================  solving CPKS equations  ====================

NUCLEUS  COORD.    ITERATION   ACCURACY
-------  ------    ---------   --------
   23       1          1       0.16744867D-01
   23       1          2       0.78652551D-02
   23       1          3       0.11524467D-02
   23       1          4       0.45395806D-03
   23       1          5       0.19842548D-03
   23       1          6       0.45734417D-04
   23       1          7       0.13487751D-04
   23       1          8       0.63233328D-05
*** CPKS converged.
----------------------------------------------
   23       2          1       0.55016660D-02
   23       2          2       0.15001826D-02
   23       2          3       0.60908082D-03
   23       2          4       0.29537416D-03
   23       2          5       0.13023261D-03
   23       2          6       0.29506949D-04
   23       2          7       0.12997084D-04
   23       2          8       0.42125198D-05
*** CPKS converged.
----------------------------------------------
   23       3          1       0.47387985D-02
   23       3          2       0.56132175D-03
   23       3          3       0.28188748D-03
   23       3          4       0.22037656D-03
   23       3          5       0.81914207D-04
   23       3          6       0.26747245D-04
   23       3          7       0.52814365D-05
*** CPKS converged.
----------------------------------------------

====================  end of solving CPKS equations  ====================


====================================================================
*** DONE CALCULATING ANALYTICAL SECOND DERIVATIVES OF THE ENERGY ***
====================================================================

 Mulliken charges used for AMS results%charges...
Scanning modes in range provided by user.
Scanning Mode: 7
 *** SCANMODE_forward_adf_ScanMode_7 ***
