

 Parallel Execution: Process Information
 ==============================================================================
 Rank   Node Name                              NodeID   MyNodeRank  NodeMaster
    0   node115                                   0          0          0
    1   node115                                   0          1         -1
    2   node115                                   0          2         -1
    3   node115                                   0          3         -1
 ==============================================================================


May use up to 122928MB of RAM as shared memory on node 0

 *******************************************************************************
 *                                                                             *
 *  --------------------------------                                           *
 *   Amsterdam Modeling Suite (AMS)              2021.102                      *
 *  --------------------------------                                           *
 *                                               r95042 2021-06-07             *
 *                                                                             *
 *                                                                             *
 *                              =================                              *
 *                              |               |                              *
 *                              |     A M S     |                              *
 *                              |               |                              *
 *                              =================                              *
 *                                                                             *
 *                                                                             *
 *   Online information and documentation:  https://www.scm.com/support/       *
 *   E-mail:  support@scm.com   info@scm.com                                   *
 *                                                                             *
 *   Scientific publications using AMS results must be properly referenced     *
 *   See the User Manuals (or the web site) for recommended citations          *
 *   The terms and conditions of the End User License Agreement apply to       *
 *   the use of AMS, https://www.scm.com/license-terms/                        *
 *                                                                             *
 **********************  x86_64_linux_intel / intelmpi  ************************
 
 Licensed to: VU/FEW (+ SARA) / ALGEMEEN / Amsterdam / THE NETHERLANDS
 SCM User ID: u7668
  
 AMS 2021.102  RunTime: Jan24-2022 15:02:56  ShM Nodes: 1  Procs: 4

 AMS jobname: 34.achiral_catalyst.H_H_SnCl4.P2
 AMS jobid  : 143498454

 Start   directory: /scistor/tc/yhk800/MasterProject/calculations/achiral_catalyst_H_H_SnCl4/34.achiral_catalyst.H_H_SnCl4.P2/
 Results directory: /scistor/tc/yhk800/MasterProject/calculations/achiral_catalyst_H_H_SnCl4/34.achiral_catalyst.H_H_SnCl4.P2/
 Scratch directory: /scratch/3980/amstmp_34.achiral_catalyst.H_H_SnCl4.P2_kid0.143498454/


 Communication costs MPI_COMM_WORLD:      0.836 usec per message,   0.0067 usec per 8-byte item
 Communication costs for intra-node:      1.493 usec per message,   0.0162 usec per 8-byte item

 RNG seed: -109135441 1947175352 643734547 -1523147663 1218060128 1973088482 1970645821 -1329764542



                      ************************************************************************
                      *  ADF 2021.102  RunTime: Jan24-2022 15:02:57  ShM Nodes: 1  Procs: 4  *
                      ************************************************************************
  
       ***************************
       *  GEOMETRY OPTIMIZATION  *
       ***************************

Optimization Method                    Quasi Newton
Optimization Coordinates               Delocalized Coordinates
Optimize lattice                       F
 
 ------------------------------------------------------
 Convergence criteria (Hartree,Angstrom)
 ------------------------------------------------------
 Maximum gradient               0.001000000000
 Maximum rms gradient           0.000666666667
 Maximum step allowed           0.010000000000
 Maximum rms step allowed       0.006666666667
 Maximum energy change allowe   0.000180000000
 Maximum stress energy allowe   0.000500000000
 
Initial model Hessian                  Automatic Hessian
 
------------------------------------
Quasi-Newton Optimizer Parameters
------------------------------------
Hessian Update Method                  BFGS
Maximum number of steps                  250
First GDIIS cycle                          0
Maximum GDIIS vectors                      0
Trust radius (bohr)                        0.200000
Trust radius varies                        T
Constraints converged at all steps         T
Use projector                              T
 
 Rigid motions settings for: old optimizer
 Atomic rotations (x,y,z):     T T T
 Atomic translations (x,y,z):  T T T
 Tolerance:                   1.000000000000000E-006
 
--------
Geometry
--------
Formula: C4H8Cl4OSn
Atoms
  Index Symbol   x (angstrom)   y (angstrom)   z (angstrom)
      1      H     0.83345051    -1.35209109     1.20167740
      2      C    -0.83092072     0.03538951     0.93442801
      3      C     0.35139657    -0.78131674     0.40158875
      4      C     1.39689343     0.07225735    -0.26739819
      5      O     1.30011208     1.25282167    -0.44784372
      6      H    -1.19392452     0.69150371     0.13740680
      7      H     0.00939092    -1.50634328    -0.34451216
      8      H    -0.05768346     0.24518214     2.94899716
      9      C    -0.44138171     0.87842746     2.14736270
     10      H     0.32560687     1.60312788     1.87585802
     11      H    -1.31355949     1.41759590     2.51749654
     12      H    -1.62209815    -0.63358328     1.20166141
     13      H     2.25449427    -0.48063876    -0.58946446
     14     Sn     1.12240586     4.51122066    -0.93902243
     15     Cl    -1.13092975     4.49812656    -0.21063996
     16     Cl     0.40515459     4.13660594    -3.16465679
     17     Cl     3.37574147     4.52431476    -1.66740490
     18     Cl     1.83965713     4.88583538     1.28661193
 
Total System Charge             0.00000
 
 
----------------
ADF Engine Input
----------------
 
 NumericalQuality VeryGood
 SCF
 Converge 1.0e-6
 Iterations 99
 End
 SYMMETRY NOSYM
 XC
 GGA OLYP
 End
 basis
 core None
 type TZ2P
 End
 

 Title: *** (NO TITLE) ***

 Using automatic Hessian for delocalized coordinates.
 *** GOStep1 ***

 Energy gradients wrt nuclear displacements
 ==========================================

     Atom      Cartesian (a.u./angstrom)
                 X         Y         Z
 ----------------------------------------
     1 H    -0.004582  0.006701 -0.000537
     2 C    -0.027911 -0.012025  0.002091
     3 C     0.018387 -0.021856 -0.001031
     4 C     0.036511  0.033461 -0.023459
     5 O    -0.003655 -0.055467  0.015712
     6 H     0.003482  0.002082  0.000380
     7 H    -0.003756  0.008237  0.004619
     8 H    -0.000896  0.001236 -0.006378
     9 C     0.005095 -0.000237  0.005109
    10 H     0.000523 -0.002574 -0.006061
    11 H     0.001344 -0.004431 -0.005372
    12 H     0.025362  0.019640 -0.005701
    13 H    -0.049018  0.021738  0.020031
    14 Sn   -0.002413  0.014747 -0.000650
    15 Cl    0.000404 -0.003427  0.000766
    16 Cl    0.000272 -0.002398  0.000119
    17 Cl    0.000678 -0.002845  0.000113
    18 Cl    0.000175 -0.002582  0.000249
 ----------------------------------------
 Mulliken charges used for AMS results%charges...
 
----------------------------------------------------------------------
Geometry Convergence after Step   1       (Hartree/Angstrom,Angstrom)
----------------------------------------------------------------------
current energy                               -3.05494905 Hartree
energy change                      -3.05494905     0.00018000    F
constrained gradient max            0.05546641     0.00100000    F
constrained gradient rms            0.01554872     0.00066667    F
gradient max                        0.05546641
gradient rms                        0.01554872
cart. step max                      0.21155440     0.01000000    F
cart. step rms                      0.09159522     0.00666667    F
 
 
--------
Geometry
--------
Formula: C4H8Cl4OSn
Atoms
  Index Symbol   x (angstrom)   y (angstrom)   z (angstrom)
      1      H     0.88898874    -1.31375781     1.15438859
      2      C    -0.85410738    -0.01813607     0.99497290
      3      C     0.36773718    -0.72589881     0.38794733
      4      C     1.40763934     0.13093227    -0.30241426
      5      O     1.32873145     1.32935421    -0.50308500
      6      H    -1.27769431     0.65158215     0.24015636
      7      H     0.04767649    -1.44610125    -0.37772134
      8      H    -0.13063505     0.11874671     3.04355848
      9      C    -0.55426446     0.77173568     2.27468573
     10      H     0.14989604     1.58172952     2.08741242
     11      H    -1.47206538     1.21006670     2.67391453
     12      H    -1.60252674    -0.77148480     1.22121449
     13      H     2.28173285    -0.43682063    -0.64591354
     14     Sn     1.20953502     4.57020526    -1.04327602
     15     Cl    -1.03574665     4.63052987    -0.29486597
     16     Cl     0.45894995     4.18963025    -3.25628453
     17     Cl     3.45315262     4.54409411    -1.79790850
     18     Cl     1.95680620     4.98202844     1.16536444
 
Total System Charge             0.00000
 
 *** GOStep2 ***

 Energy gradients wrt nuclear displacements
 ==========================================

     Atom      Cartesian (a.u./angstrom)
                 X         Y         Z
 ----------------------------------------
     1 H    -0.004338  0.005490  0.001761
     2 C    -0.015450 -0.009861  0.002510
     3 C     0.007329 -0.013808 -0.003779
     4 C     0.022313 -0.012401 -0.011021
     5 O    -0.001460  0.003629  0.001012
     6 H     0.003462  0.000153 -0.000007
     7 H    -0.001688  0.005810  0.001344
     8 H    -0.000521  0.000542 -0.003094
     9 C     0.000453  0.003666  0.005450
    10 H    -0.002144 -0.002950 -0.001426
    11 H     0.001306 -0.001149 -0.001577
    12 H     0.009102  0.008984  0.000977
    13 H    -0.017768  0.007039  0.008040
    14 Sn   -0.001785  0.013675 -0.000969
    15 Cl    0.000697 -0.002638  0.000253
    16 Cl    0.000175 -0.001849  0.000404
    17 Cl    0.000253 -0.002372  0.000235
    18 Cl    0.000066 -0.001962 -0.000114
 ----------------------------------------
 Mulliken charges used for AMS results%charges...

 dE(predicted):    -0.49722E-02, dE(actual):    -0.44683E-02, Trust radius:    0.400000, all in a.u.
 
----------------------------------------------------------------------
Geometry Convergence after Step   2       (Hartree/Angstrom,Angstrom)
----------------------------------------------------------------------
current energy                               -3.05941740 Hartree
energy change                      -0.00446835     0.00018000    F
constrained gradient max            0.02231424     0.00100000    F
constrained gradient rms            0.00662966     0.00066667    F
gradient max                        0.02231424
gradient rms                        0.00662966
cart. step max                      0.09072236     0.01000000    F
cart. step rms                      0.02983951     0.00666667    F
 
 
--------
Geometry
--------
Formula: C4H8Cl4OSn
Atoms
  Index Symbol   x (angstrom)   y (angstrom)   z (angstrom)
      1      H     0.89558538    -1.32133335     1.12564154
      2      C    -0.85640997    -0.01342951     1.00856906
      3      C     0.36134682    -0.70819095     0.38455434
      4      C     1.40111553     0.15289405    -0.29497230
      5      O     1.32285947     1.34902076    -0.50325903
      6      H    -1.28290785     0.68172574     0.27755161
      7      H     0.04755768    -1.42087032    -0.39496788
      8      H    -0.15270738     0.04433261     3.07353608
      9      C    -0.56217420     0.72661565     2.31982044
     10      H     0.15019515     1.54167001     2.17813478
     11      H    -1.48122240     1.15710853     2.72880002
     12      H    -1.61405226    -0.78056954     1.19693100
     13      H     2.28856776    -0.41474395    -0.65102619
     14     Sn     1.22318040     4.57582691    -1.08170334
     15     Cl    -1.02849328     4.67060905    -0.35799188
     16     Cl     0.49029940     4.18612252    -3.29836609
     17     Cl     3.47240856     4.54745438    -1.81580993
     18     Cl     1.94865711     5.02419320     1.12670388
 
Total System Charge             0.00000
 
 *** GOStep3 ***

 Energy gradients wrt nuclear displacements
 ==========================================

     Atom      Cartesian (a.u./angstrom)
                 X         Y         Z
 ----------------------------------------
     1 H    -0.000874  0.002300  0.000964
     2 C    -0.006606 -0.001562 -0.000195
     3 C     0.001519 -0.007451 -0.002255
     4 C     0.007948 -0.005064 -0.000212
     5 O     0.000436  0.000408 -0.001264
     6 H     0.001006  0.000223 -0.000196
     7 H    -0.000566  0.002218  0.000175
     8 H     0.000028  0.000043 -0.000636
     9 C     0.000932  0.002705  0.002468
    10 H    -0.000943 -0.000916  0.000124
    11 H     0.000303 -0.000442 -0.000315
    12 H     0.002230  0.001060  0.000764
    13 H    -0.004798  0.001157  0.001094
    14 Sn   -0.001410  0.012060 -0.001262
    15 Cl    0.001038 -0.002030  0.000042
    16 Cl    0.000101 -0.001265  0.000671
    17 Cl   -0.000168 -0.001890  0.000401
    18 Cl   -0.000176 -0.001554 -0.000368
 ----------------------------------------
 Mulliken charges used for AMS results%charges...

 dE(predicted):    -0.56591E-03, dE(actual):    -0.76410E-03, Trust radius:    0.400000, all in a.u.
 
----------------------------------------------------------------------
Geometry Convergence after Step   3       (Hartree/Angstrom,Angstrom)
----------------------------------------------------------------------
current energy                               -3.06018150 Hartree
energy change                      -0.00076410     0.00018000    F
constrained gradient max            0.01205863     0.00100000    F
constrained gradient rms            0.00280504     0.00066667    F
gradient max                        0.01205863
gradient rms                        0.00280504
cart. step max                      0.07312807     0.01000000    F
cart. step rms                      0.02710011     0.00666667    F
 
 
--------
Geometry
--------
Formula: C4H8Cl4OSn
Atoms
  Index Symbol   x (angstrom)   y (angstrom)   z (angstrom)
      1      H     0.89679271    -1.33003619     1.09800386
      2      C    -0.85561206    -0.00837724     1.02268619
      3      C     0.35153788    -0.69624340     0.38008638
      4      C     1.38334874     0.16858359    -0.29905909
      5      O     1.30349230     1.36428519    -0.50398177
      6      H    -1.27976401     0.71152449     0.31410319
      7      H     0.03577775    -1.40377543    -0.40636532
      8      H    -0.16389600    -0.02383541     3.09458139
      9      C    -0.55533445     0.68614188     2.35553590
     10      H     0.17407389     1.49313475     2.24402006
     11      H    -1.46823498     1.12336057     2.77363863
     12      H    -1.62716446    -0.77492210     1.18223223
     13      H     2.29383802    -0.38987867    -0.63896798
     14     Sn     1.22928950     4.57432086    -1.11228769
     15     Cl    -1.03358297     4.70802691    -0.43111996
     16     Cl     0.53232892     4.18615718    -3.34021274
     17     Cl     3.48866693     4.55142210    -1.81091327
     18     Cl     1.91824821     5.05854668     1.10016607
 
Total System Charge             0.00000
 
 *** GOStep4 ***

 Energy gradients wrt nuclear displacements
 ==========================================

     Atom      Cartesian (a.u./angstrom)
                 X         Y         Z
 ----------------------------------------
     1 H     0.000617 -0.000646  0.000277
     2 C     0.001042  0.002992 -0.000803
     3 C    -0.000960 -0.000582  0.001597
     4 C    -0.006004 -0.001863 -0.001397
     5 O     0.002904 -0.002326  0.000199
     6 H    -0.000500 -0.000060 -0.000144
     7 H     0.000725 -0.000078 -0.000504
     8 H     0.000233 -0.000305  0.000703
     9 C     0.000544  0.000761 -0.000173
    10 H     0.000023  0.000363  0.000489
    11 H    -0.000399 -0.000008  0.000429
    12 H    -0.001693 -0.002529  0.000081
    13 H     0.004066 -0.001566 -0.000068
    14 Sn   -0.000967  0.009736 -0.001320
    15 Cl    0.001187 -0.001332 -0.000005
    16 Cl    0.000192 -0.000496  0.000827
    17 Cl   -0.000761 -0.001250  0.000503
    18 Cl   -0.000247 -0.000808 -0.000692
 ----------------------------------------
 Mulliken charges used for AMS results%charges...

 dE(predicted):    -0.24618E-03, dE(actual):    -0.28652E-03, Trust radius:    0.400000, all in a.u.
 
----------------------------------------------------------------------
Geometry Convergence after Step   4       (Hartree/Angstrom,Angstrom)
----------------------------------------------------------------------
current energy                               -3.06046802 Hartree
energy change                      -0.00028652     0.00018000    F
constrained gradient max            0.00973355     0.00100000    F
constrained gradient rms            0.00196027     0.00066667    F
gradient max                        0.00973355
gradient rms                        0.00196027
cart. step max                      0.07919310     0.01000000    F
cart. step rms                      0.02822196     0.00666667    F
 
 
--------
Geometry
--------
Formula: C4H8Cl4OSn
Atoms
  Index Symbol   x (angstrom)   y (angstrom)   z (angstrom)
      1      H     0.88854095    -1.34179959     1.07793396
      2      C    -0.85312108    -0.00115528     1.03219036
      3      C     0.34685483    -0.68397181     0.37847633
      4      C     1.38154983     0.18920986    -0.27884121
      5      O     1.29046656     1.38287021    -0.48763089
      6      H    -1.25934714     0.75027731     0.34613582
      7      H     0.02903305    -1.37590917    -0.42250431
      8      H    -0.19074631    -0.10302851     3.11068175
      9      C    -0.55238255     0.64010460     2.38910581
     10      H     0.20166366     1.42951191     2.31208900
     11      H    -1.45752053     1.09097889     2.81018858
     12      H    -1.64320826    -0.75658173     1.15577455
     13      H     2.29083888    -0.36526429    -0.63638116
     14     Sn     1.23300280     4.57095043    -1.14249652
     15     Cl    -1.03696168     4.74328682    -0.49284796
     16     Cl     0.55909320     4.16993647    -3.37519484
     17     Cl     3.49793399     4.55450457    -1.82081576
     18     Cl     1.89811572     5.10451507     1.06628262
 
Total System Charge             0.00000
 
 *** GOStep5 ***

 Energy gradients wrt nuclear displacements
 ==========================================

     Atom      Cartesian (a.u./angstrom)
                 X         Y         Z
 ----------------------------------------
     1 H     0.001466 -0.001530 -0.000745
     2 C     0.005042  0.003672 -0.000589
     3 C    -0.002889  0.003596  0.000079
     4 C    -0.006476  0.001595  0.008439
     5 O     0.001950 -0.005469 -0.002110
     6 H    -0.001111 -0.000240 -0.000031
     7 H     0.000348 -0.002025 -0.000158
     8 H     0.000169 -0.000367  0.000936
     9 C     0.000190 -0.000808 -0.001807
    10 H     0.000442  0.000619  0.000394
    11 H    -0.000612  0.000113  0.000528
    12 H    -0.002855 -0.002617 -0.000480
    13 H     0.004976 -0.002947 -0.003503
    14 Sn   -0.000584  0.007377 -0.001360
    15 Cl    0.001117 -0.000636 -0.000102
    16 Cl    0.000265  0.000296  0.000841
    17 Cl   -0.001184 -0.000642  0.000457
    18 Cl   -0.000254  0.000014 -0.000788
 ----------------------------------------
 Mulliken charges used for AMS results%charges...

 dE(predicted):    -0.14036E-03, dE(actual):    -0.14681E-03, Trust radius:    0.400000, all in a.u.
 
----------------------------------------------------------------------
Geometry Convergence after Step   5       (Hartree/Angstrom,Angstrom)
----------------------------------------------------------------------
current energy                               -3.06061483 Hartree
energy change                      -0.00014681     0.00018000    T
constrained gradient max            0.00844248     0.00100000    F
constrained gradient rms            0.00256101     0.00066667    F
gradient max                        0.00844248
gradient rms                        0.00256101
cart. step max                      0.04592327     0.01000000    F
cart. step rms                      0.01451833     0.00666667    F
 
 
--------
Geometry
--------
Formula: C4H8Cl4OSn
Atoms
  Index Symbol   x (angstrom)   y (angstrom)   z (angstrom)
      1      H     0.88481037    -1.34649355     1.06655911
      2      C    -0.85277840    -0.00294306     1.04069248
      3      C     0.34138835    -0.68241608     0.37500836
      4      C     1.37031984     0.19665850    -0.28165010
      5      O     1.27039990     1.39144232    -0.48216204
      6      H    -1.25449522     0.75985131     0.36474737
      7      H     0.01725528    -1.36717741    -0.42952145
      8      H    -0.18931517    -0.13179162     3.11615255
      9      C    -0.54194242     0.62209544     2.40194939
     10      H     0.22358263     1.40086626     2.32869026
     11      H    -1.43905198     1.08345632     2.82808623
     12      H    -1.64827677    -0.75144333     1.15880450
     13      H     2.28553486    -0.34810270    -0.63255883
     14     Sn     1.23427653     4.56518127    -1.15321554
     15     Cl    -1.04395292     4.76629534    -0.53877124
     16     Cl     0.58843684     4.16740336    -3.39531326
     17     Cl     3.50717120     4.55476159    -1.80488040
     18     Cl     1.87044298     5.12079183     1.05952871
 
Total System Charge             0.00000
 
 *** GOStep6 ***

 Energy gradients wrt nuclear displacements
 ==========================================

     Atom      Cartesian (a.u./angstrom)
                 X         Y         Z
 ----------------------------------------
     1 H     0.000828 -0.001410 -0.000651
     2 C     0.004998  0.001611  0.000119
     3 C    -0.001960  0.004875  0.000696
     4 C    -0.006264 -0.000648  0.005026
     5 O     0.001706 -0.005012 -0.000896
     6 H    -0.000729 -0.000252  0.000039
     7 H     0.000368 -0.001748 -0.000100
     8 H     0.000059 -0.000139  0.000488
     9 C    -0.000423 -0.001343 -0.001896
    10 H     0.000518  0.000541  0.000089
    11 H    -0.000325  0.000161  0.000349
    12 H    -0.002115 -0.001178 -0.000465
    13 H     0.004007 -0.002179 -0.001784
    14 Sn   -0.000227  0.005641 -0.001221
    15 Cl    0.000869 -0.000153 -0.000112
    16 Cl    0.000218  0.000839  0.000630
    17 Cl   -0.001253 -0.000235  0.000319
    18 Cl   -0.000275  0.000630 -0.000631
 ----------------------------------------
 Mulliken charges used for AMS results%charges...

 dE(predicted):    -0.88582E-04, dE(actual):    -0.14066E-03, Trust radius:    0.400000, all in a.u.
 
----------------------------------------------------------------------
Geometry Convergence after Step   6       (Hartree/Angstrom,Angstrom)
----------------------------------------------------------------------
current energy                               -3.06075549 Hartree
energy change                      -0.00014066     0.00018000    T
constrained gradient max            0.00626516     0.00100000    F
constrained gradient rms            0.00206800     0.00066667    F
gradient max                        0.00626516
gradient rms                        0.00206800
cart. step max                      0.08476504     0.01000000    F
cart. step rms                      0.02800354     0.00666667    F
 
 
--------
Geometry
--------
Formula: C4H8Cl4OSn
Atoms
  Index Symbol   x (angstrom)   y (angstrom)   z (angstrom)
      1      H     0.88585076    -1.34985913     1.04648661
      2      C    -0.85598767    -0.01741610     1.05972946
      3      C     0.33486382    -0.67914929     0.36934645
      4      C     1.34837777     0.22059748    -0.28402243
      5      O     1.22343974     1.41718802    -0.46501752
      6      H    -1.25948493     0.76026035     0.40222590
      7      H     0.00195268    -1.34766859    -0.44423111
      8      H    -0.18276909    -0.18309405     3.12804649
      9      C    -0.53051972     0.58472115     2.42770665
     10      H     0.24489753     1.35350602     2.35808646
     11      H    -1.41769672     1.05347790     2.86458627
     12      H    -1.64910023    -0.76401349     1.17279971
     13      H     2.26808451    -0.30098764    -0.63772237
     14     Sn     1.24436191     4.55615590    -1.17564080
     15     Cl    -1.04474680     4.83026114    -0.62353627
     16     Cl     0.64523593     4.15908898    -3.43289876
     17     Cl     3.53054334     4.54767068    -1.78364794
     18     Cl     1.83650309     5.15769645     1.03984934
 
Total System Charge             0.00000
 
 *** GOStep7 ***

 Energy gradients wrt nuclear displacements
 ==========================================

     Atom      Cartesian (a.u./angstrom)
                 X         Y         Z
 ----------------------------------------
     1 H    -0.000421 -0.000292 -0.000225
     2 C     0.001721 -0.002837  0.001004
     3 C     0.000057  0.004124  0.000515
     4 C    -0.000629 -0.005202  0.000101
     5 O     0.000781 -0.003967  0.000367
     6 H     0.000220  0.000024  0.000128
     7 H    -0.000014 -0.000490  0.000122
     8 H    -0.000121  0.000319 -0.000408
     9 C    -0.001181 -0.001317 -0.000939
    10 H     0.000276  0.000090 -0.000275
    11 H     0.000390  0.000178 -0.000115
    12 H     0.000366  0.001748 -0.000210
    13 H    -0.000728  0.000145  0.001146
    14 Sn    0.000348  0.002217 -0.000906
    15 Cl   -0.000003  0.000856  0.000040
    16 Cl    0.000185  0.001907 -0.000239
    17 Cl   -0.001089  0.000515  0.000018
    18 Cl   -0.000160  0.001982 -0.000125
 ----------------------------------------
 Mulliken charges used for AMS results%charges...

 dE(predicted):    -0.15828E-03, dE(actual):    -0.20351E-03, Trust radius:    0.400000, all in a.u.
 
----------------------------------------------------------------------
Geometry Convergence after Step   7       (Hartree/Angstrom,Angstrom)
----------------------------------------------------------------------
current energy                               -3.06095901 Hartree
energy change                      -0.00020351     0.00018000    F
constrained gradient max            0.00520085     0.00100000    F
constrained gradient rms            0.00135654     0.00066667    F
gradient max                        0.00520085
gradient rms                        0.00135654
cart. step max                      0.06411546     0.01000000    F
cart. step rms                      0.02273066     0.00666667    F
 
 
--------
Geometry
--------
Formula: C4H8Cl4OSn
Atoms
  Index Symbol   x (angstrom)   y (angstrom)   z (angstrom)
      1      H     0.89772176    -1.34572127     1.03234163
      2      C    -0.86157734    -0.03804126     1.07553670
      3      C     0.33328531    -0.67599709     0.36641360
      4      C     1.32845464     0.24693683    -0.28552551
      5      O     1.18004673     1.44407303    -0.44928747
      6      H    -1.28156356     0.74005436     0.42896953
      7      H    -0.00039984    -1.33545194    -0.45353217
      8      H    -0.16925285    -0.21081488     3.13736482
      9      C    -0.53026222     0.55835314     2.44563291
     10      H     0.23702529     1.33465842     2.37426585
     11      H    -1.41797991     1.01600709     2.89242086
     12      H    -1.64018531    -0.79747585     1.19121284
     13      H     2.25127127    -0.25366483    -0.65102926
     14     Sn     1.25947158     4.55379795    -1.19226886
     15     Cl    -1.03196844     4.89437660    -0.67910367
     16     Cl     0.68437072     4.15130306    -3.45699795
     17     Cl     3.55327756     4.53201026    -1.77680756
     18     Cl     1.83207052     5.18403215     1.02253984
 
Total System Charge             0.00000
 
 *** GOStep8 ***

 Energy gradients wrt nuclear displacements
 ==========================================

     Atom      Cartesian (a.u./angstrom)
                 X         Y         Z
 ----------------------------------------
     1 H    -0.000882  0.000417  0.000078
     2 C    -0.000895 -0.004159  0.000960
     3 C     0.000985  0.001901  0.000283
     4 C     0.003031 -0.007270 -0.002096
     5 O     0.000538 -0.003160  0.000652
     6 H     0.000590  0.000317  0.000131
     7 H    -0.000283  0.000392  0.000168
     8 H    -0.000170  0.000430 -0.000633
     9 C    -0.001115 -0.000765  0.000046
    10 H     0.000050 -0.000208 -0.000271
    11 H     0.000638  0.000204 -0.000311
    12 H     0.001511  0.002540 -0.000049
    13 H    -0.003248  0.001235  0.002390
    14 Sn    0.000602  0.000236 -0.000528
    15 Cl   -0.000791  0.001435  0.000182
    16 Cl    0.000151  0.002583 -0.001084
    17 Cl   -0.000722  0.000873 -0.000222
    18 Cl    0.000009  0.003001  0.000305
 ----------------------------------------
 Mulliken charges used for AMS results%charges...

 dE(predicted):    -0.87525E-04, dE(actual):    -0.14908E-03, Trust radius:    0.400000, all in a.u.
 
----------------------------------------------------------------------
Geometry Convergence after Step   8       (Hartree/Angstrom,Angstrom)
----------------------------------------------------------------------
current energy                               -3.06110809 Hartree
energy change                      -0.00014908     0.00018000    T
constrained gradient max            0.00726896     0.00100000    F
constrained gradient rms            0.00168792     0.00066667    F
gradient max                        0.00726896
gradient rms                        0.00168792
cart. step max                      0.12786358     0.01000000    F
cart. step rms                      0.04353238     0.00666667    F
 
 
--------
Geometry
--------
Formula: C4H8Cl4OSn
Atoms
  Index Symbol   x (angstrom)   y (angstrom)   z (angstrom)
      1      H     0.93432110    -1.32494910     1.01375915
      2      C    -0.87344495    -0.08655774     1.10098797
      3      C     0.33717239    -0.66959970     0.36360826
      4      C     1.28960150     0.30201974    -0.28794974
      5      O     1.09283869     1.49764629    -0.42158888
      6      H    -1.34130986     0.67287683     0.46535929
      7      H     0.01208653    -1.32186032    -0.46424028
      8      H    -0.13338259    -0.23164633     3.14999066
      9      C    -0.54209336     0.52234940     2.46825084
     10      H     0.18658442     1.33296822     2.38477696
     11      H    -1.44181468     0.93700141     2.93224141
     12      H    -1.60785670    -0.88529231     1.23163097
     13      H     2.21867403    -0.15650775    -0.68071549
     14     Sn     1.29336296     4.55364465    -1.21566461
     15     Cl    -0.98930156     5.02224018    -0.74885216
     16     Cl     0.73506769     4.13460944    -3.48618030
     17     Cl     3.59508019     4.48517375    -1.77889156
     18     Cl     1.85822008     5.21431913     0.99562360
 
Total System Charge             0.00000
 
 *** GOStep9 ***

 Energy gradients wrt nuclear displacements
 ==========================================

     Atom      Cartesian (a.u./angstrom)
                 X         Y         Z
 ----------------------------------------
     1 H    -0.001336  0.001526  0.000599
     2 C    -0.005391 -0.004459  0.000409
     3 C     0.002240 -0.003590 -0.000448
     4 C     0.008363 -0.010217 -0.004294
     5 O     0.000198 -0.000470  0.000425
     6 H     0.000996  0.000667  0.000113
     7 H    -0.000767  0.001854  0.000226
     8 H    -0.000193  0.000379 -0.000677
     9 C    -0.000368  0.000689  0.002063
    10 H    -0.000313 -0.000642 -0.000115
    11 H     0.000734  0.000220 -0.000516
    12 H     0.002722  0.002632  0.000199
    13 H    -0.006161  0.002085  0.003630
    14 Sn    0.000851 -0.001769  0.000235
    15 Cl   -0.002128  0.002135  0.000613
    16 Cl    0.000073  0.003402 -0.002835
    17 Cl    0.000228  0.001064 -0.000534
    18 Cl    0.000251  0.004494  0.000907
 ----------------------------------------
 Mulliken charges used for AMS results%charges...

 dE(predicted):    -0.28336E-03, dE(actual):    -0.39157E-03, Trust radius:    0.800000, all in a.u.
 
----------------------------------------------------------------------
Geometry Convergence after Step   9       (Hartree/Angstrom,Angstrom)
----------------------------------------------------------------------
current energy                               -3.06149966 Hartree
energy change                      -0.00039157     0.00018000    F
constrained gradient max            0.01021479     0.00100000    F
constrained gradient rms            0.00273080     0.00066667    F
gradient max                        0.01021479
gradient rms                        0.00273080
cart. step max                      0.20925593     0.01000000    F
cart. step rms                      0.07473294     0.00666667    F
 
 
--------
Geometry
--------
Formula: C4H8Cl4OSn
Atoms
  Index Symbol   x (angstrom)   y (angstrom)   z (angstrom)
      1      H     1.01086716    -1.26648484     1.00208740
      2      C    -0.88790157    -0.17256211     1.13043444
      3      C     0.35831911    -0.65473724     0.36463618
      4      C     1.23124041     0.39680188    -0.28683412
      5      O     0.94456061     1.58416373    -0.38606814
      6      H    -1.44225003     0.52925809     0.49841286
      7      H     0.06343019    -1.30843127    -0.47109850
      8      H    -0.08238887    -0.21937351     3.16282727
      9      C    -0.58375300     0.48321222     2.48765653
     10      H     0.05238304     1.36417772     2.38074015
     11      H    -1.51164833     0.80324929     2.97056512
     12      H    -1.52703318    -1.04413140     1.29090389
     13      H     2.17025906     0.01037142    -0.71942162
     14     Sn     1.34954979     4.55250206    -1.24178788
     15     Cl    -0.89054349     5.23149611    -0.79462023
     16     Cl     0.76367844     4.10799112    -3.50866756
     17     Cl     3.64848724     4.37791015    -1.81497632
     18     Cl     1.95654932     5.22302234     0.95735664
 
Total System Charge             0.00000
 
 *** GOStep10 ***

 Energy gradients wrt nuclear displacements
 ==========================================

     Atom      Cartesian (a.u./angstrom)
                 X         Y         Z
 ----------------------------------------
     1 H    -0.001821  0.003267  0.001421
     2 C    -0.012773 -0.004114 -0.000671
     3 C     0.004545 -0.014372 -0.002443
     4 C     0.019821 -0.021067 -0.005004
     5 O    -0.004383  0.013080 -0.001114
     6 H     0.001287  0.001332 -0.000051
     7 H    -0.001787  0.004124  0.000475
     8 H    -0.000103  0.000054 -0.000460
     9 C     0.001082  0.003946  0.005490
    10 H    -0.000844 -0.001451  0.000308
    11 H     0.000607  0.000153 -0.000722
    12 H     0.004264  0.001823  0.000531
    13 H    -0.009741  0.001584  0.004449
    14 Sn    0.001933 -0.002162  0.001839
    15 Cl   -0.004241  0.003078  0.001924
    16 Cl    0.000076  0.003887 -0.006005
    17 Cl    0.001603  0.000860 -0.000631
    18 Cl    0.000477  0.005978  0.000665
 ----------------------------------------
 Mulliken charges used for AMS results%charges...

 dE(predicted):    -0.87681E-03, dE(actual):    -0.77693E-03, Trust radius:    0.800000, all in a.u.
 
----------------------------------------------------------------------
Geometry Convergence after Step  10       (Hartree/Angstrom,Angstrom)
----------------------------------------------------------------------
current energy                               -3.06227659 Hartree
energy change                      -0.00077693     0.00018000    F
constrained gradient max            0.02106389     0.00100000    F
constrained gradient rms            0.00582304     0.00066667    F
gradient max                        0.02106389
gradient rms                        0.00582304
cart. step max                      0.20176204     0.01000000    F
cart. step rms                      0.07527034     0.00666667    F
 
 
--------
Geometry
--------
Formula: C4H8Cl4OSn
Atoms
  Index Symbol   x (angstrom)   y (angstrom)   z (angstrom)
      1      H     1.08695384    -1.18849682     1.02590378
      2      C    -0.89579282    -0.24033847     1.13388175
      3      C     0.39598900    -0.63809652     0.37379795
      4      C     1.20956341     0.46824110    -0.28234222
      5      O     0.87658287     1.64236896    -0.36405685
      6      H    -1.52579176     0.37047734     0.47894947
      7      H     0.14737135    -1.30862318    -0.46088989
      8      H    -0.06236099    -0.12207935     3.15813538
      9      C    -0.65896099     0.49272994     2.47300787
     10      H    -0.14937900     1.44669947     2.33780139
     11      H    -1.61821461     0.69279426     2.96051619
     12      H    -1.42242560    -1.17959998     1.33521322
     13      H     2.15002888     0.12520988    -0.74656140
     14     Sn     1.40012915     4.55900453    -1.24481840
     15     Cl    -0.78722481     5.35552504    -0.71291831
     16     Cl     0.67619318     4.08884332    -3.47554993
     17     Cl     3.67039706     4.27670728    -1.90773842
     18     Cl     2.13074774     5.15706898     0.93981452
 
Total System Charge             0.00000
 
 *** GOStep11 ***

 Energy gradients wrt nuclear displacements
 ==========================================

     Atom      Cartesian (a.u./angstrom)
                 X         Y         Z
 ----------------------------------------
     1 H    -0.001489  0.004912  0.002185
     2 C    -0.021897 -0.000443 -0.003505
     3 C     0.008561 -0.027638 -0.004289
     4 C     0.021563 -0.010687 -0.005052
     5 O    -0.002040  0.007153 -0.002283
     6 H     0.000937  0.001792 -0.000288
     7 H    -0.002830  0.006442  0.000447
     8 H     0.000407 -0.000800  0.000638
     9 C     0.003174  0.010101  0.009134
    10 H    -0.001540 -0.002680  0.001439
    11 H    -0.000099 -0.000379 -0.000581
    12 H     0.005642 -0.002198  0.001095
    13 H    -0.010720  0.002047  0.003502
    14 Sn    0.003346  0.002090  0.002374
    15 Cl   -0.006792  0.002267  0.002381
    16 Cl   -0.002543  0.002982 -0.009055
    17 Cl    0.004476 -0.000714  0.000241
    18 Cl    0.001845  0.005751  0.001618
 ----------------------------------------
 Mulliken charges used for AMS results%charges...

 dE(predicted):    -0.14136E-02, dE(actual):    -0.65277E-03, Trust radius:    0.800000, all in a.u.
 Residual max backtransformation error   0.1985E+05

 Delocalized step failed. Taking Cartesian step

 
----------------------------------------------------------------------
Geometry Convergence after Step  11       (Hartree/Angstrom,Angstrom)
----------------------------------------------------------------------
current energy                               -3.06292935 Hartree
energy change                      -0.00065277     0.00018000    F
constrained gradient max            0.02763796     0.00100000    F
constrained gradient rms            0.00708547     0.00066667    F
gradient max                        0.02763796
gradient rms                        0.00708547
cart. step max                      0.16297383     0.01000000    F
cart. step rms                      0.06323634     0.00666667    F
 
 
--------
Geometry
--------
Formula: C4H8Cl4OSn
Atoms
  Index Symbol   x (angstrom)   y (angstrom)   z (angstrom)
      1      H     1.15138396    -1.11595340     1.03910540
      2      C    -0.89046072    -0.29935047     1.14388665
      3      C     0.42827649    -0.60839799     0.38608450
      4      C     1.17166788     0.54975327    -0.26564836
      5      O     0.74264890     1.70293424    -0.36479618
      6      H    -1.56615653     0.25426899     0.48293445
      7      H     0.22432748    -1.29292892    -0.45071198
      8      H    -0.06954492    -0.09802683     3.16744558
      9      C    -0.71205678     0.46263167     2.47655747
     10      H    -0.27823055     1.45329092     2.33346580
     11      H    -1.68501888     0.59048049     2.96278085
     12      H    -1.34416834    -1.27573270     1.35508753
     13      H     2.13305393     0.26638439    -0.73467425
     14     Sn     1.43340054     4.54094884    -1.26238464
     15     Cl    -0.67229973     5.51849887    -0.69006980
     16     Cl     0.64351304     4.08685662    -3.48098973
     17     Cl     3.67563656     4.16321580    -1.97675771
     18     Cl     2.23783357     5.09956199     0.90083052
 
Total System Charge             0.00000
 
 *** GOStep12 ***

 Energy gradients wrt nuclear displacements
 ==========================================

     Atom      Cartesian (a.u./angstrom)
                 X         Y         Z
 ----------------------------------------
     1 H    -0.001371  0.004387  0.002506
     2 C    -0.021165 -0.000962 -0.003561
     3 C     0.009456 -0.028340 -0.005466
     4 C     0.033048 -0.027465  0.002978
     5 O    -0.016618  0.029790 -0.005462
     6 H     0.000179  0.002043 -0.000557
     7 H    -0.003910  0.005016  0.000083
     8 H     0.000789 -0.001136  0.001032
     9 C     0.002034  0.010130  0.008755
    10 H    -0.000776 -0.001679  0.001441
    11 H    -0.000832 -0.000355 -0.000084
    12 H     0.004958 -0.003413  0.001541
    13 H    -0.007554 -0.002339 -0.000207
    14 Sn    0.005835  0.002591  0.005089
    15 Cl   -0.006961  0.003450  0.004839
    16 Cl   -0.002122  0.002859 -0.011899
    17 Cl    0.004250 -0.000864  0.000404
    18 Cl    0.000760  0.006287 -0.001433
 ----------------------------------------
 Mulliken charges used for AMS results%charges...
 Rebuilding optimization coordinates

 dE(predicted):    -0.10618E-02, dE(actual):    -0.74212E-03, Trust radius:    0.800000, all in a.u.
 
----------------------------------------------------------------------
Geometry Convergence after Step  12       (Hartree/Angstrom,Angstrom)
----------------------------------------------------------------------
current energy                               -3.06367148 Hartree
energy change                      -0.00074212     0.00018000    F
constrained gradient max            0.03304735     0.00100000    F
constrained gradient rms            0.00977996     0.00066667    F
gradient max                        0.03304735
gradient rms                        0.00977996
cart. step max                      0.20496689     0.01000000    F
cart. step rms                      0.09524127     0.00666667    F
 
 
--------
Geometry
--------
Formula: C4H8Cl4OSn
Atoms
  Index Symbol   x (angstrom)   y (angstrom)   z (angstrom)
      1      H     1.24028140    -0.99574946     1.11469334
      2      C    -0.86902118    -0.35650511     1.13822223
      3      C     0.49301154    -0.57044602     0.42807140
      4      C     1.15462469     0.62380215    -0.24300342
      5      O     0.60110560     1.71885448    -0.44726808
      6      H    -1.57837902     0.09694244     0.43650566
      7      H     0.37811219    -1.30411584    -0.38706291
      8      H    -0.12770467     0.01047917     3.16919385
      9      C    -0.80532501     0.47319954     2.43895191
     10      H    -0.47041917     1.49880194     2.26348345
     11      H    -1.79984433     0.51881937     2.89854830
     12      H    -1.23817413    -1.36534386     1.38046211
     13      H     2.15609631     0.40283232    -0.68318243
     14     Sn     1.45209908     4.49922867    -1.26057673
     15     Cl    -0.47630420     5.65743163    -0.51498857
     16     Cl     0.49401281     4.15453190    -3.44546639
     17     Cl     3.62293371     4.04107735    -2.13240759
     18     Cl     2.39670028     4.89459510     0.86797000
 
Total System Charge             0.00000
 
 *** GOStep13 ***

 Energy gradients wrt nuclear displacements
 ==========================================

     Atom      Cartesian (a.u./angstrom)
                 X         Y         Z
 ----------------------------------------
     1 H     0.000025  0.003012  0.002155
     2 C    -0.016878  0.001693 -0.003778
     3 C     0.007996 -0.024986 -0.006707
     4 C     0.042417 -0.032012  0.024742
     5 O    -0.035284  0.041591 -0.016573
     6 H    -0.001122  0.001480 -0.000853
     7 H    -0.004235  0.001263 -0.000734
     8 H     0.001383 -0.001488  0.001909
     9 C     0.000466  0.008619  0.006495
    10 H     0.000162  0.000624  0.001154
    11 H    -0.002190 -0.000633  0.000840
    12 H     0.002796 -0.006624  0.002357
    13 H     0.000688 -0.008136 -0.008453
    14 Sn    0.004958  0.006503  0.013978
    15 Cl    0.002456 -0.000273  0.007181
    16 Cl   -0.003431  0.002830 -0.016470
    17 Cl    0.004189 -0.001569  0.000323
    18 Cl   -0.004394  0.008106 -0.007568
 ----------------------------------------
 Mulliken charges used for AMS results%charges...

 dE(predicted):    -0.67042E-03, dE(actual):    -0.29994E-03, Trust radius:    0.800000, all in a.u.
 Oscillation detected, halving the step
 Persistent oscillations may indicate discontinuity in the atomic forces.
 
----------------------------------------------------------------------
Geometry Convergence after Step  13       (Hartree/Angstrom,Angstrom)
----------------------------------------------------------------------
current energy                               -3.06397142 Hartree
energy change                      -0.00029994     0.00018000    F
constrained gradient max            0.04241803     0.00100000    F
constrained gradient rms            0.01280887     0.00066667    F
gradient max                        0.04241803
gradient rms                        0.01280887
cart. step max                      0.08618740     0.01000000    F
cart. step rms                      0.03299598     0.00666667    F
 
 
--------
Geometry
--------
Formula: C4H8Cl4OSn
Atoms
  Index Symbol   x (angstrom)   y (angstrom)   z (angstrom)
      1      H     1.20844886    -1.03405298     1.08651768
      2      C    -0.88299795    -0.33822213     1.13358365
      3      C     0.47073422    -0.58011812     0.41006782
      4      C     1.16511440     0.60780391    -0.24361944
      5      O     0.68729299     1.73255641    -0.37625204
      6      H    -1.58326361     0.14569490     0.44443032
      7      H     0.32821781    -1.28861538    -0.41953942
      8      H    -0.11096765    -0.02403935     3.16334566
      9      C    -0.78595374     0.46711783     2.45011408
     10      H    -0.43259867     1.48669415     2.29002331
     11      H    -1.77407250     0.52317846     2.92009006
     12      H    -1.26998736    -1.34145033     1.36285550
     13      H     2.15313513     0.36775619    -0.68914984
     14     Sn     1.45590675     4.52136056    -1.25738131
     15     Cl    -0.55622758     5.60785324    -0.58289352
     16     Cl     0.51809166     4.09395893    -3.43087878
     17     Cl     3.63901190     4.08356230    -2.11693975
     18     Cl     2.39392123     4.96739718     0.87777215
 
Total System Charge             0.00000
 
 *** GOStep14 ***

 Energy gradients wrt nuclear displacements
 ==========================================

     Atom      Cartesian (a.u./angstrom)
                 X         Y         Z
 ----------------------------------------
     1 H    -0.000937  0.004008  0.002247
     2 C    -0.022275  0.001145 -0.004899
     3 C     0.011794 -0.029220 -0.004772
     4 C     0.023601 -0.013169  0.006604
     5 O    -0.011817  0.016146 -0.006847
     6 H    -0.000195  0.001457 -0.000524
     7 H    -0.003927  0.004544 -0.000216
     8 H     0.001081 -0.001319  0.001619
     9 C     0.001785  0.011455  0.008734
    10 H    -0.000670 -0.001592  0.001564
    11 H    -0.001275 -0.000851  0.000117
    12 H     0.004780 -0.005472  0.001972
    13 H    -0.004647 -0.001986 -0.002576
    14 Sn    0.005569  0.005975  0.008411
    15 Cl   -0.005759  0.001672  0.004264
    16 Cl   -0.003405  0.002999 -0.013703
    17 Cl    0.005008 -0.002495 -0.000793
    18 Cl    0.001290  0.006702 -0.001202
 ----------------------------------------
 Mulliken charges used for AMS results%charges...

 dE(predicted):    -0.17782E-02, dE(actual):    -0.11692E-02, Trust radius:    0.800000, all in a.u.
 
----------------------------------------------------------------------
Geometry Convergence after Step  14       (Hartree/Angstrom,Angstrom)
----------------------------------------------------------------------
current energy                               -3.06514060 Hartree
energy change                      -0.00116918     0.00018000    F
constrained gradient max            0.02921992     0.00100000    F
constrained gradient rms            0.00817833     0.00066667    F
gradient max                        0.02921992
gradient rms                        0.00817833
cart. step max                      0.19656828     0.01000000    F
cart. step rms                      0.07978867     0.00666667    F
 
 
--------
Geometry
--------
Formula: C4H8Cl4OSn
Atoms
  Index Symbol   x (angstrom)   y (angstrom)   z (angstrom)
      1      H     1.26696229    -0.93162160     1.15259186
      2      C    -0.86806809    -0.37605184     1.11959053
      3      C     0.52206081    -0.54670428     0.44257488
      4      C     1.15978317     0.66612372    -0.22351257
      5      O     0.62541939     1.75257124    -0.40279628
      6      H    -1.58130084     0.02814336     0.39392789
      7      H     0.45203030    -1.28245629    -0.37131096
      8      H    -0.17400655     0.06786184     3.15398937
      9      C    -0.86814841     0.47886776     2.40918650
     10      H    -0.59504918     1.51732768     2.22164683
     11      H    -1.86903117     0.46746400     2.85426599
     12      H    -1.18425741    -1.39778418     1.37553765
     13      H     2.17807786     0.48119068    -0.62281393
     14     Sn     1.47377579     4.48978394    -1.24451916
     15     Cl    -0.42468828     5.68299535    -0.45072285
     16     Cl     0.36430404     4.12135842    -3.35438914
     17     Cl     3.57535048     4.00853708    -2.27532150
     18     Cl     2.57059170     4.77082890     0.84422103
 
Total System Charge             0.00000
 
 *** GOStep15 ***

 Energy gradients wrt nuclear displacements
 ==========================================

     Atom      Cartesian (a.u./angstrom)
                 X         Y         Z
 ----------------------------------------
     1 H    -0.001298  0.004090  0.001952
     2 C    -0.024225  0.000637 -0.006047
     3 C     0.015590 -0.030358 -0.002918
     4 C     0.015377 -0.000036  0.004196
     5 O    -0.005788  0.001705 -0.006207
     6 H    -0.000119  0.001042 -0.000460
     7 H    -0.004008  0.005355 -0.000188
     8 H     0.001095 -0.001195  0.001771
     9 C     0.000992  0.013457  0.009023
    10 H    -0.000818 -0.002467  0.001777
    11 H    -0.001026 -0.001284 -0.000063
    12 H     0.005661 -0.005473  0.002241
    13 H    -0.005194 -0.000646 -0.002226
    14 Sn    0.006328  0.009298  0.011930
    15 Cl   -0.006407 -0.000071  0.002548
    16 Cl   -0.005269  0.003635 -0.014868
    17 Cl    0.005460 -0.004207 -0.001765
    18 Cl    0.003650  0.006517 -0.000697
 ----------------------------------------
 Mulliken charges used for AMS results%charges...

 dE(predicted):    -0.26418E-02, dE(actual):    -0.17339E-02, Trust radius:    0.800000, all in a.u.
 
----------------------------------------------------------------------
Geometry Convergence after Step  15       (Hartree/Angstrom,Angstrom)
----------------------------------------------------------------------
current energy                               -3.06687453 Hartree
energy change                      -0.00173393     0.00018000    F
constrained gradient max            0.03035767     0.00100000    F
constrained gradient rms            0.00777087     0.00066667    F
gradient max                        0.03035767
gradient rms                        0.00777087
cart. step max                      0.20735803     0.01000000    F
cart. step rms                      0.07495410     0.00666667    F
 
 
--------
Geometry
--------
Formula: C4H8Cl4OSn
Atoms
  Index Symbol   x (angstrom)   y (angstrom)   z (angstrom)
      1      H     1.29564666    -0.85847002     1.19427882
      2      C    -0.85066650    -0.37299029     1.08161476
      3      C     0.55830822    -0.49416023     0.46443681
      4      C     1.16183997     0.73498860    -0.17394456
      5      O     0.62880064     1.79436920    -0.34268476
      6      H    -1.54294567     0.01893038     0.32997553
      7      H     0.56143283    -1.24006632    -0.34630100
      8      H    -0.25017162     0.07442387     3.13692750
      9      C    -0.91888091     0.47276976     2.36428489
     10      H    -0.65066909     1.51579326     2.18452065
     11      H    -1.93597590     0.45218865     2.76934945
     12      H    -1.17353518    -1.39762040     1.31273827
     13      H     2.21998453     0.61083653    -0.49965318
     14     Sn     1.46216135     4.41327177    -1.22738871
     15     Cl    -0.32087061     5.74015373    -0.36918382
     16     Cl     0.19121044     3.98448693    -3.22853442
     17     Cl     3.48101634     3.98605949    -2.44319272
     18     Cl     2.70712040     4.56347087     0.81490261
 
Total System Charge             0.00000
 
 *** GOStep16 ***

 Energy gradients wrt nuclear displacements
 ==========================================

     Atom      Cartesian (a.u./angstrom)
                 X         Y         Z
 ----------------------------------------
     1 H    -0.001131  0.000737  0.000824
     2 C    -0.013344  0.002911 -0.003849
     3 C     0.014330 -0.012805  0.002753
     4 C    -0.042014  0.050621 -0.011700
     5 O     0.037381 -0.065401  0.009123
     6 H     0.000507 -0.000628  0.000304
     7 H    -0.001760  0.003212 -0.000859
     8 H     0.000285 -0.000556  0.000663
     9 C     0.001019  0.006038  0.004356
    10 H    -0.000066 -0.000888  0.000243
    11 H    -0.000529 -0.001071 -0.000235
    12 H     0.002513 -0.003429  0.001466
    13 H    -0.000940  0.006042  0.000665
    14 Sn    0.003411  0.010232  0.006896
    15 Cl   -0.011255  0.000459  0.002506
    16 Cl   -0.004740  0.004794 -0.014300
    17 Cl    0.006537 -0.006908 -0.004993
    18 Cl    0.009796  0.006641  0.006138
 ----------------------------------------
 Mulliken charges used for AMS results%charges...

 dE(predicted):    -0.11007E-01, dE(actual):    -0.41032E-02, Trust radius:    0.800000, all in a.u.
 
----------------------------------------------------------------------
Geometry Convergence after Step  16       (Hartree/Angstrom,Angstrom)
----------------------------------------------------------------------
current energy                               -3.07097775 Hartree
energy change                      -0.00410321     0.00018000    F
constrained gradient max            0.06540323     0.00100000    F
constrained gradient rms            0.01476726     0.00066667    F
gradient max                        0.06540323
gradient rms                        0.01476726
cart. step max                      0.20185941     0.01000000    F
cart. step rms                      0.06450160     0.00666667    F
 
 
--------
Geometry
--------
Formula: C4H8Cl4OSn
Atoms
  Index Symbol   x (angstrom)   y (angstrom)   z (angstrom)
      1      H     1.32951927    -0.77593571     1.24721931
      2      C    -0.83009085    -0.38619291     1.06223102
      3      C     0.59625328    -0.45546625     0.49235264
      4      C     1.16059300     0.78441516    -0.14735843
      5      O     0.59426997     1.81584360    -0.34206227
      6      H    -1.51517116    -0.04088193     0.28174017
      7      H     0.66446256    -1.21676044    -0.30203241
      8      H    -0.30933972     0.12945450     3.12010935
      9      C    -0.97284270     0.47953268     2.32063765
     10      H    -0.74611446     1.52976460     2.12416145
     11      H    -1.99866628     0.42261069     2.69871873
     12      H    -1.12247578    -1.41768467     1.30232960
     13      H     2.23699268     0.70656725    -0.43255678
     14     Sn     1.46248766     4.36476724    -1.21418087
     15     Cl    -0.19709220     5.78618615    -0.27554137
     16     Cl     0.05449011     3.95623383    -3.12708220
     17     Cl     3.40267635     3.95437051    -2.55974935
     18     Cl     2.81385416     4.36161146     0.77320987
 
Total System Charge             0.00000
 
 *** GOStep17 ***

 Energy gradients wrt nuclear displacements
 ==========================================

     Atom      Cartesian (a.u./angstrom)
                 X         Y         Z
 ----------------------------------------
     1 H    -0.000731 -0.000338  0.000284
     2 C    -0.008942  0.004398 -0.003031
     3 C     0.012385 -0.006257  0.004803
     4 C    -0.059746  0.059829 -0.016645
     5 O     0.049144 -0.079743  0.014936
     6 H     0.000611 -0.001320  0.000513
     7 H    -0.000807  0.002596 -0.000944
     8 H    -0.000003 -0.000326  0.000304
     9 C     0.001215  0.003523  0.002079
    10 H     0.000133 -0.000540 -0.000182
    11 H    -0.000229 -0.001094 -0.000277
    12 H     0.001595 -0.002699  0.001152
    13 H     0.001056  0.007356  0.000775
    14 Sn    0.003256  0.012825  0.006959
    15 Cl   -0.012153 -0.000163  0.002247
    16 Cl   -0.006138  0.005082 -0.014277
    17 Cl    0.007145 -0.008318 -0.006099
    18 Cl    0.012209  0.005189  0.007404
 ----------------------------------------
 Mulliken charges used for AMS results%charges...

 dE(predicted):    -0.55204E-02, dE(actual):    -0.24329E-02, Trust radius:    0.800000, all in a.u.
 
----------------------------------------------------------------------
Geometry Convergence after Step  17       (Hartree/Angstrom,Angstrom)
----------------------------------------------------------------------
current energy                               -3.07341068 Hartree
energy change                      -0.00243293     0.00018000    F
constrained gradient max            0.07974176     0.00100000    F
constrained gradient rms            0.01819528     0.00066667    F
gradient max                        0.07974176
gradient rms                        0.01819528
cart. step max                      0.20967897     0.01000000    F
cart. step rms                      0.06009132     0.00666667    F
 
 
--------
Geometry
--------
Formula: C4H8Cl4OSn
Atoms
  Index Symbol   x (angstrom)   y (angstrom)   z (angstrom)
      1      H     1.34813117    -0.71893909     1.28232769
      2      C    -0.80759143    -0.37307598     1.03166372
      3      C     0.62401807    -0.41221779     0.51093239
      4      C     1.17007173     0.83032881    -0.10870975
      5      O     0.58615309     1.84852964    -0.30527709
      6      H    -1.47294140    -0.03818688     0.22934785
      7      H     0.74949250    -1.17966054    -0.27339850
      8      H    -0.36012534     0.14970562     3.09750010
      9      C    -1.00198577     0.48676697     2.27623260
     10      H    -0.78073964     1.53994215     2.08225563
     11      H    -2.03764373     0.42265130     2.62388880
     12      H    -1.10776388    -1.40477817     1.25587469
     13      H     2.26126863     0.78428809    -0.35896726
     14     Sn     1.44241926     4.29830051    -1.19867274
     15     Cl    -0.09287742     5.82269681    -0.22473308
     16     Cl    -0.08338690     3.83172588    -2.99580581
     17     Cl     3.31809588     3.95842594    -2.64766115
     18     Cl     2.86921108     4.15193248     0.74534802
 
Total System Charge             0.00000
 
 *** GOStep18 ***

 Energy gradients wrt nuclear displacements
 ==========================================

     Atom      Cartesian (a.u./angstrom)
                 X         Y         Z
 ----------------------------------------
     1 H     0.000418 -0.002253 -0.000670
     2 C     0.003117  0.007915  0.000414
     3 C     0.003526  0.007638  0.006267
     4 C    -0.077271  0.059582 -0.017742
     5 O     0.056804 -0.087708  0.019926
     6 H     0.000625 -0.002410  0.000646
     7 H     0.001388  0.000796 -0.000858
     8 H    -0.000596  0.000119 -0.000641
     9 C     0.002261 -0.003476 -0.003420
    10 H     0.000580  0.000644 -0.001206
    11 H     0.000309 -0.000749 -0.000265
    12 H    -0.000643 -0.000611  0.000175
    13 H     0.005849  0.007699  0.001320
    14 Sn    0.000673  0.016150  0.002479
    15 Cl   -0.012964 -0.000704  0.002615
    16 Cl   -0.006547  0.004729 -0.012330
    17 Cl    0.007865 -0.009723 -0.006679
    18 Cl    0.014606  0.002360  0.009968
 ----------------------------------------
 Mulliken charges used for AMS results%charges...

 dE(predicted):    -0.10336E-01, dE(actual):    -0.40400E-02, Trust radius:    0.800000, all in a.u.
 
----------------------------------------------------------------------
Geometry Convergence after Step  18       (Hartree/Angstrom,Angstrom)
----------------------------------------------------------------------
current energy                               -3.07745072 Hartree
energy change                      -0.00404004     0.00018000    F
constrained gradient max            0.08770940     0.00100000    F
constrained gradient rms            0.02048410     0.00066667    F
gradient max                        0.08770940
gradient rms                        0.02048410
cart. step max                      0.21051982     0.01000000    F
cart. step rms                      0.05368753     0.00666667    F
 
 
--------
Geometry
--------
Formula: C4H8Cl4OSn
Atoms
  Index Symbol   x (angstrom)   y (angstrom)   z (angstrom)
      1      H     1.36580614    -0.66087294     1.30996929
      2      C    -0.78637006    -0.36017810     1.00835438
      3      C     0.64780913    -0.36877821     0.52530932
      4      C     1.17638947     0.87574484    -0.08094583
      5      O     0.57040711     1.87901641    -0.28995620
      6      H    -1.43837719    -0.03823659     0.18937200
      7      H     0.82154448    -1.13968947    -0.24861126
      8      H    -0.39911270     0.17029564     3.07910792
      9      C    -1.02645605     0.49274193     2.24164250
     10      H    -0.81879969     1.55000539     2.05070169
     11      H    -2.06825234     0.41374723     2.56612353
     12      H    -1.08427738    -1.39424842     1.22071987
     13      H     2.27620796     0.85778530    -0.30720346
     14     Sn     1.42525910     4.23521392    -1.18671423
     15     Cl     0.01770705     5.85392705    -0.19273225
     16     Cl    -0.19290363     3.71828934    -2.87701629
     17     Cl     3.24840763     3.97225978    -2.70966457
     18     Cl     2.88881687     3.94141266     0.72368973
 
Total System Charge             0.00000
 
 *** GOStep19 ***

 Energy gradients wrt nuclear displacements
 ==========================================

     Atom      Cartesian (a.u./angstrom)
                 X         Y         Z
 ----------------------------------------
     1 H     0.001643 -0.003462 -0.001301
     2 C     0.012681  0.011131  0.003480
     3 C    -0.005327  0.017908  0.006016
     4 C    -0.085398  0.053695 -0.015947
     5 O     0.059288 -0.085813  0.021899
     6 H     0.000543 -0.003214  0.000600
     7 H     0.003173 -0.000414 -0.000542
     8 H    -0.001008  0.000426 -0.001239
     9 C     0.003493 -0.008510 -0.007797
    10 H     0.000802  0.001318 -0.001782
    11 H     0.000747 -0.000456 -0.000155
    12 H    -0.002178  0.000921 -0.000582
    13 H     0.009451  0.007643  0.000891
    14 Sn   -0.001358  0.019507 -0.001093
    15 Cl   -0.012412 -0.001448  0.002879
    16 Cl   -0.006779  0.003033 -0.009543
    17 Cl    0.008389 -0.010302 -0.007064
    18 Cl    0.014253 -0.001961  0.011281
 ----------------------------------------
 Mulliken charges used for AMS results%charges...

 dE(predicted):    -0.95257E-02, dE(actual):    -0.36980E-02, Trust radius:    0.800000, all in a.u.
 
----------------------------------------------------------------------
Geometry Convergence after Step  19       (Hartree/Angstrom,Angstrom)
----------------------------------------------------------------------
current energy                               -3.08114873 Hartree
energy change                      -0.00369801     0.00018000    F
constrained gradient max            0.08580973     0.00100000    F
constrained gradient rms            0.02111370     0.00066667    F
gradient max                        0.08580973
gradient rms                        0.02111370
cart. step max                      0.20913359     0.01000000    F
cart. step rms                      0.05058455     0.00666667    F
 
 
--------
Geometry
--------
Formula: C4H8Cl4OSn
Atoms
  Index Symbol   x (angstrom)   y (angstrom)   z (angstrom)
      1      H     1.38350313    -0.59558269     1.34030353
      2      C    -0.76650956    -0.34910037     0.99133303
      3      C     0.67047503    -0.32373713     0.54219896
      4      C     1.17968901     0.92145851    -0.06101251
      5      O     0.54219640     1.90259351    -0.30401484
      6      H    -1.40687087    -0.03539039     0.15944952
      7      H     0.89126080    -1.09988294    -0.21647268
      8      H    -0.44023638     0.17444822     3.07139609
      9      C    -1.05171298     0.48908722     2.21968717
     10      H    -0.85736700     1.55147060     2.04001412
     11      H    -2.09934327     0.39334241     2.51928171
     12      H    -1.05784754    -1.38821246     1.18592525
     13      H     2.28656133     0.93803597    -0.25526672
     14     Sn     1.41057327     4.17068701    -1.18064936
     15     Cl     0.14280121     5.87933435    -0.17662034
     16     Cl    -0.28171196     3.63960945    -2.78203565
     17     Cl     3.18486869     3.99799543    -2.76178298
     18     Cl     2.89347657     3.73227907     0.69041179
 
Total System Charge             0.00000
 
 *** GOStep20 ***

 Energy gradients wrt nuclear displacements
 ==========================================

     Atom      Cartesian (a.u./angstrom)
                 X         Y         Z
 ----------------------------------------
     1 H     0.002957 -0.004526 -0.001849
     2 C     0.020266  0.013794  0.006407
     3 C    -0.013717  0.025246  0.005099
     4 C    -0.083643  0.040832 -0.013770
     5 O     0.055088 -0.072414  0.021270
     6 H     0.000253 -0.003838  0.000442
     7 H     0.004761 -0.001441  0.000041
     8 H    -0.001257  0.000659 -0.001507
     9 C     0.004458 -0.011934 -0.011077
    10 H     0.000828  0.001684 -0.001912
    11 H     0.000996 -0.000145  0.000035
    12 H    -0.003591  0.001708 -0.001462
    13 H     0.012762  0.007515  0.000383
    14 Sn   -0.002323  0.021647 -0.001422
    15 Cl   -0.010399 -0.002652  0.001959
    16 Cl   -0.006076  0.000923 -0.005900
    17 Cl    0.007753 -0.009682 -0.006976
    18 Cl    0.010884 -0.007376  0.010239
 ----------------------------------------
 Mulliken charges used for AMS results%charges...

 dE(predicted):    -0.55656E-02, dE(actual):    -0.29633E-02, Trust radius:    0.800000, all in a.u.
 
----------------------------------------------------------------------
Geometry Convergence after Step  20       (Hartree/Angstrom,Angstrom)
----------------------------------------------------------------------
current energy                               -3.08411199 Hartree
energy change                      -0.00296326     0.00018000    F
constrained gradient max            0.08364361     0.00100000    F
constrained gradient rms            0.01964154     0.00066667    F
gradient max                        0.08364361
gradient rms                        0.01964154
cart. step max                      0.21437376     0.01000000    F
cart. step rms                      0.07213232     0.00666667    F
 
 
--------
Geometry
--------
Formula: C4H8Cl4OSn
Atoms
  Index Symbol   x (angstrom)   y (angstrom)   z (angstrom)
      1      H     1.35078224    -0.67548256     1.28540939
      2      C    -0.77954646    -0.28794149     0.97213112
      3      C     0.64171704    -0.32425344     0.51277270
      4      C     1.21093118     0.90487644    -0.04383089
      5      O     0.59914852     1.92314920    -0.25435108
      6      H    -1.39951644     0.13773935     0.17405674
      7      H     0.82556083    -1.08738963    -0.27222656
      8      H    -0.41853601     0.04359424     3.08110812
      9      C    -0.99636742     0.47153356     2.25629940
     10      H    -0.70690449     1.52427305     2.15709384
     11      H    -2.04869185     0.45265240     2.55319650
     12      H    -1.16145470    -1.30850115     1.08304008
     13      H     2.31616939     0.87898786    -0.24759102
     14     Sn     1.37290190     4.13644719    -1.19066700
     15     Cl     0.05777469     5.87704081    -0.33186827
     16     Cl    -0.23286814     3.42523568    -2.78312168
     17     Cl     3.20726528     4.09024477    -2.68801764
     18     Cl     2.78544033     3.81622947     0.75871237
 
Total System Charge             0.00000
 
 *** GOStep21 ***

 Energy gradients wrt nuclear displacements
 ==========================================

     Atom      Cartesian (a.u./angstrom)
                 X         Y         Z
 ----------------------------------------
     1 H     0.004036 -0.005830 -0.003145
     2 C     0.034472  0.011912  0.011343
     3 C    -0.025409  0.038496  0.004579
     4 C    -0.064964  0.011585 -0.002017
     5 O     0.035293 -0.043819  0.013536
     6 H    -0.000630 -0.004058 -0.000152
     7 H     0.006601 -0.004040  0.000683
     8 H    -0.001491  0.001327 -0.001955
     9 C     0.003613 -0.017317 -0.017554
    10 H     0.001131  0.002782 -0.002064
    11 H     0.001349  0.000548  0.000358
    12 H    -0.005638  0.004521 -0.002285
    13 H     0.014708  0.004186  0.000746
    14 Sn   -0.009013  0.017957 -0.011640
    15 Cl   -0.007120 -0.004400  0.001400
    16 Cl   -0.001522  0.001109  0.000009
    17 Cl    0.005818 -0.007813 -0.002745
    18 Cl    0.008766 -0.007145  0.010903
 ----------------------------------------
 Mulliken charges used for AMS results%charges...
 Rebuilding optimization coordinates

 dE(predicted):    -0.40275E-02, dE(actual):    -0.21700E-02, Trust radius:    0.800000, all in a.u.
 
----------------------------------------------------------------------
Geometry Convergence after Step  21       (Hartree/Angstrom,Angstrom)
----------------------------------------------------------------------
current energy                               -3.08628194 Hartree
energy change                      -0.00216995     0.00018000    F
constrained gradient max            0.06496362     0.00100000    F
constrained gradient rms            0.01572476     0.00066667    F
gradient max                        0.06496362
gradient rms                        0.01572476
cart. step max                      0.20602107     0.01000000    F
cart. step rms                      0.05974931     0.00666667    F
 
 
--------
Geometry
--------
Formula: C4H8Cl4OSn
Atoms
  Index Symbol   x (angstrom)   y (angstrom)   z (angstrom)
      1      H     1.37910345    -0.58254346     1.33755322
      2      C    -0.76326584    -0.30309327     0.97139497
      3      C     0.67358219    -0.28274569     0.54026399
      4      C     1.20942577     0.95572729    -0.04017671
      5      O     0.53851334     1.93020983    -0.33021502
      6      H    -1.38521071     0.08463508     0.15557616
      7      H     0.90662522    -1.05671433    -0.22042338
      8      H    -0.46237618     0.07187099     3.08729874
      9      C    -1.04412636     0.46155636     2.24569470
     10      H    -0.80740473     1.52626074     2.14232024
     11      H    -2.10021281     0.39127873     2.52118482
     12      H    -1.09494630    -1.34115237     1.08787142
     13      H     2.31348204     0.97642174    -0.21880543
     14     Sn     1.37374671     4.07723091    -1.19504443
     15     Cl     0.25791513     5.90381580    -0.28774466
     16     Cl    -0.32021621     3.44983754    -2.72680644
     17     Cl     3.14835319     4.12563149    -2.74249590
     18     Cl     2.80081800     3.61020839     0.69469982
 
Total System Charge             0.00000
 
 *** GOStep22 ***

 Energy gradients wrt nuclear displacements
 ==========================================

     Atom      Cartesian (a.u./angstrom)
                 X         Y         Z
 ----------------------------------------
     1 H     0.004590 -0.005260 -0.002643
     2 C     0.028389  0.010929  0.010560
     3 C    -0.025710  0.030807  0.001287
     4 C    -0.037413 -0.000164  0.005086
     5 O     0.017607 -0.016815  0.003969
     6 H    -0.000823 -0.003601 -0.000400
     7 H     0.006382 -0.003649  0.001156
     8 H    -0.001180  0.001086 -0.001277
     9 C     0.003444 -0.013518 -0.014226
    10 H     0.000488  0.001889 -0.001173
    11 H     0.001136  0.000674  0.000577
    12 H    -0.005388  0.002943 -0.002509
    13 H     0.013201  0.003419 -0.001507
    14 Sn   -0.005248  0.018615 -0.004761
    15 Cl   -0.001177 -0.009496 -0.001527
    16 Cl   -0.000680 -0.001645  0.003680
    17 Cl    0.002284 -0.005644 -0.000291
    18 Cl    0.000098 -0.010569  0.003998
 ----------------------------------------
 Mulliken charges used for AMS results%charges...

 dE(predicted):    -0.41326E-02, dE(actual):    -0.20061E-02, Trust radius:    0.800000, all in a.u.
 Oscillation detected, halving the step
 Persistent oscillations may indicate discontinuity in the atomic forces.
 
----------------------------------------------------------------------
Geometry Convergence after Step  22       (Hartree/Angstrom,Angstrom)
----------------------------------------------------------------------
current energy                               -3.08828801 Hartree
energy change                      -0.00200607     0.00018000    F
constrained gradient max            0.03741391     0.00100000    F
constrained gradient rms            0.01064623     0.00066667    F
gradient max                        0.03741391
gradient rms                        0.01064623
cart. step max                      0.21283787     0.01000000    F
cart. step rms                      0.06098067     0.00666667    F
 
 
--------
Geometry
--------
Formula: C4H8Cl4OSn
Atoms
  Index Symbol   x (angstrom)   y (angstrom)   z (angstrom)
      1      H     1.34554361    -0.67209014     1.28828861
      2      C    -0.78637403    -0.27767380     0.97159355
      3      C     0.64211182    -0.31515823     0.51318051
      4      C     1.22529012     0.91517762    -0.04085671
      5      O     0.60041045     1.93278846    -0.27610925
      6      H    -1.40026994     0.17718716     0.18483073
      7      H     0.82147669    -1.07595075    -0.27479468
      8      H    -0.43284227    -0.00890310     3.09570618
      9      C    -1.00291204     0.44885454     2.28072911
     10      H    -0.70459743     1.50128083     2.21599808
     11      H    -2.05732599     0.42967867     2.57094342
     12      H    -1.17127835    -1.30049311     1.05307200
     13      H     2.32479850     0.88581143    -0.24660750
     14     Sn     1.37144511     4.11062750    -1.20643601
     15     Cl     0.11702263     5.89725018    -0.38385628
     16     Cl    -0.22644584     3.37970222    -2.78982769
     17     Cl     3.20385397     4.14730002    -2.68602053
     18     Cl     2.75389888     3.82304626     0.75231257
 
Total System Charge             0.00000
 
 *** GOStep23 ***

 Energy gradients wrt nuclear displacements
 ==========================================

     Atom      Cartesian (a.u./angstrom)
                 X         Y         Z
 ----------------------------------------
     1 H     0.004076 -0.005134 -0.002770
     2 C     0.028726  0.008415  0.010114
     3 C    -0.023704  0.031611  0.002462
     4 C    -0.038041 -0.003076  0.004070
     5 O     0.018065 -0.018516  0.005724
     6 H    -0.000998 -0.003169 -0.000464
     7 H     0.005982 -0.004210  0.000856
     8 H    -0.001046  0.001159 -0.001196
     9 C     0.002309 -0.013093 -0.014522
    10 H     0.000674  0.002103 -0.001119
    11 H     0.001057  0.000636  0.000563
    12 H    -0.005127  0.003294 -0.002228
    13 H     0.011286  0.002500 -0.000728
    14 Sn   -0.008114  0.014745 -0.011098
    15 Cl   -0.001891 -0.007604  0.000648
    16 Cl    0.000018  0.000994  0.002106
    17 Cl    0.002372 -0.005869  0.000629
    18 Cl    0.004356 -0.004786  0.006953
 ----------------------------------------
 Mulliken charges used for AMS results%charges...

 dE(predicted):    -0.13643E-02, dE(actual):    -0.67973E-03, Trust radius:    0.800000, all in a.u.
 
----------------------------------------------------------------------
Geometry Convergence after Step  23       (Hartree/Angstrom,Angstrom)
----------------------------------------------------------------------
current energy                               -3.08896775 Hartree
energy change                      -0.00067973     0.00018000    F
constrained gradient max            0.03804075     0.00100000    F
constrained gradient rms            0.01057324     0.00066667    F
gradient max                        0.03804075
gradient rms                        0.01057324
cart. step max                      0.08651728     0.01000000    F
cart. step rms                      0.02883412     0.00666667    F
 
 
--------
Geometry
--------
Formula: C4H8Cl4OSn
Atoms
  Index Symbol   x (angstrom)   y (angstrom)   z (angstrom)
      1      H     1.33925585    -0.65878296     1.31009047
      2      C    -0.79792460    -0.27714744     0.97567820
      3      C     0.64711486    -0.31070934     0.52276140
      4      C     1.23959864     0.92626973    -0.03782216
      5      O     0.59290476     1.93261297    -0.31997406
      6      H    -1.40354533     0.20829804     0.20131195
      7      H     0.82017944    -1.06991803    -0.26588839
      8      H    -0.46078237    -0.07892266     3.11887210
      9      C    -1.02140633     0.41178737     2.31530820
     10      H    -0.71777110     1.46326770     2.29074499
     11      H    -2.07965212     0.38602578     2.59219091
     12      H    -1.17207033    -1.30671471     1.02616016
     13      H     2.33225309     0.90174595    -0.23066810
     14     Sn     1.37928897     4.08897421    -1.22974109
     15     Cl     0.20353992     5.92632129    -0.43178800
     16     Cl    -0.21898350     3.39175858    -2.82590681
     17     Cl     3.19258856     4.20773930    -2.70695749
     18     Cl     2.74921748     3.85582999     0.71777381
 
Total System Charge             0.00000
 
 *** GOStep24 ***

 Energy gradients wrt nuclear displacements
 ==========================================

     Atom      Cartesian (a.u./angstrom)
                 X         Y         Z
 ----------------------------------------
     1 H     0.003113 -0.003298 -0.001577
     2 C     0.015593  0.003634  0.005943
     3 C    -0.015627  0.016842  0.000189
     4 C    -0.003913 -0.012949  0.008499
     5 O    -0.001378  0.004927 -0.003675
     6 H    -0.001022 -0.001354 -0.000550
     7 H     0.003718 -0.003289  0.000897
     8 H    -0.000308  0.000604 -0.000092
     9 C     0.000729 -0.005578 -0.007341
    10 H     0.000045  0.000732  0.000033
    11 H     0.000461  0.000471  0.000530
    12 H    -0.003098  0.000926 -0.001850
    13 H     0.003533  0.000579 -0.001390
    14 Sn   -0.003673  0.009504 -0.005758
    15 Cl    0.004018 -0.011200 -0.000486
    16 Cl    0.001049  0.002177  0.001768
    17 Cl   -0.002840 -0.003617  0.004607
    18 Cl   -0.000401  0.000889  0.000251
 ----------------------------------------
[...]
     9     C      -0.024592   0.065980   0.108244
    10     H       0.195697  -0.102271  -0.476957
    11     H      -0.152291  -0.242035  -0.429540
    12     H      -0.061101   0.037853   0.059967
    13     H      -0.015064  -0.088590   0.029073
    14    Sn      -0.000000  -0.000000   0.000000
    15    Cl       0.000000   0.000001   0.000000
    16    Cl       0.000001  -0.000001  -0.000002
    17    Cl      -0.000001  -0.000000   0.000001
    18    Cl       0.000000  -0.000000   0.000000
 
 Mode:    41      Frequency (cm-1):     1381.7786     Intensity (km/mol):        8.9216
 Index  Atom      ---- Displacements (x/y/z) ----
     1     H      -0.033685   0.279142   0.128333
     2     C       0.023307  -0.026938  -0.021096
     3     C      -0.005439   0.002257   0.002138
     4     C      -0.062998  -0.023287   0.019025
     5     O       0.052421  -0.051884   0.008598
     6     H      -0.001394   0.049855   0.041299
     7     H      -0.142949   0.195384  -0.195791
     8     H       0.051384  -0.075487  -0.060711
     9     C      -0.014484   0.015339   0.026018
    10     H       0.067932  -0.039018  -0.105971
    11     H      -0.037183  -0.051474  -0.067646
    12     H      -0.110594   0.065358   0.119146
    13     H       0.084362   0.787969  -0.305560
    14    Sn       0.000006  -0.000009   0.000005
    15    Cl      -0.000008   0.000008   0.000003
    16    Cl      -0.000005   0.000011  -0.000005
    17    Cl       0.000001   0.000005  -0.000007
    18    Cl      -0.000010   0.000013  -0.000011
 
 Mode:    42      Frequency (cm-1):     1401.9961     Intensity (km/mol):       15.1765
 Index  Atom      ---- Displacements (x/y/z) ----
     1     H      -0.204952   0.452516   0.370785
     2     C      -0.014417  -0.002383   0.012685
     3     C       0.075602  -0.052776  -0.009737
     4     C       0.013454   0.013839  -0.011401
     5     O      -0.018804   0.011435   0.000560
     6     H       0.022135  -0.036320  -0.031344
     7     H      -0.360742   0.280078  -0.376157
     8     H      -0.026404  -0.138250  -0.058282
     9     C       0.004083   0.022945   0.027326
    10     H       0.040704  -0.015377  -0.165424
    11     H      -0.034354  -0.108614  -0.080592
    12     H      -0.021586  -0.009039  -0.047170
    13     H      -0.053699  -0.387510   0.154509
    14    Sn      -0.000012  -0.000021   0.000001
    15    Cl      -0.000002   0.000015   0.000003
    16    Cl       0.000021   0.000031   0.000007
    17    Cl       0.000012   0.000014  -0.000013
    18    Cl       0.000010   0.000007   0.000001
 
 Mode:    43      Frequency (cm-1):     1448.4949     Intensity (km/mol):        3.8352
 Index  Atom      ---- Displacements (x/y/z) ----
     1     H      -0.009531  -0.014173   0.004508
     2     C       0.049127   0.025183   0.047049
     3     C       0.008831   0.005682   0.002355
     4     C      -0.007708   0.003013  -0.001155
     5     O       0.003763  -0.007162   0.001990
     6     H      -0.412513  -0.525409  -0.083679
     7     H       0.003760   0.005555   0.007645
     8     H       0.148941   0.104978  -0.003630
     9     C      -0.007672  -0.001257   0.001310
    10     H       0.092502  -0.038325   0.126212
    11     H      -0.022502  -0.025443  -0.115437
    12     H      -0.367326   0.181261  -0.545770
    13     H      -0.000018   0.036751  -0.011481
    14    Sn       0.000008   0.000010   0.000000
    15    Cl      -0.000001  -0.000007  -0.000001
    16    Cl      -0.000012  -0.000016  -0.000005
    17    Cl      -0.000007  -0.000007   0.000006
    18    Cl      -0.000007  -0.000003  -0.000004
 
 Mode:    44      Frequency (cm-1):     1465.2389     Intensity (km/mol):        7.6920
 Index  Atom      ---- Displacements (x/y/z) ----
     1     H       0.030132  -0.036327  -0.040215
     2     C       0.030399   0.016166  -0.006182
     3     C      -0.011339   0.003733   0.003453
     4     C       0.000529  -0.001449   0.001243
     5     O       0.000434   0.000189  -0.000605
     6     H      -0.100984  -0.102907  -0.017261
     7     H       0.038352  -0.021545   0.033127
     8     H      -0.593425  -0.113964   0.192392
     9     C       0.026375   0.033917  -0.017643
    10     H       0.128188  -0.066028  -0.373353
    11     H       0.030945  -0.391364   0.484913
    12     H      -0.091122   0.082530  -0.034136
    13     H       0.003735   0.023106  -0.008129
    14    Sn       0.000003  -0.000002  -0.000001
    15    Cl      -0.000005   0.000003   0.000003
    16    Cl      -0.000002   0.000001  -0.000000
    17    Cl      -0.000003  -0.000001   0.000003
    18    Cl      -0.000002   0.000002  -0.000001
 
 Mode:    45      Frequency (cm-1):     1473.8698     Intensity (km/mol):        5.3693
 Index  Atom      ---- Displacements (x/y/z) ----
     1     H       0.011220   0.009850   0.000469
     2     C      -0.034883   0.009135  -0.009787
     3     C       0.005316  -0.002686  -0.001155
     4     C       0.001671  -0.001462   0.002051
     5     O      -0.001778   0.003054  -0.001014
     6     H       0.105197   0.061909  -0.050046
     7     H      -0.014218  -0.003713  -0.003027
     8     H       0.159336   0.416672   0.154744
     9     C      -0.039410   0.020606  -0.020598
    10     H       0.587844  -0.281733   0.242251
    11     H      -0.113160  -0.484119  -0.068696
    12     H       0.095305  -0.052313   0.087141
    13     H      -0.001927  -0.019751   0.004370
    14    Sn       0.000011  -0.000001   0.000000
    15    Cl      -0.000011   0.000005   0.000005
    16    Cl      -0.000008  -0.000003   0.000000
    17    Cl      -0.000005  -0.000001   0.000002
    18    Cl      -0.000012   0.000004  -0.000009
 
 Mode:    46      Frequency (cm-1):     1759.8309     Intensity (km/mol):      188.4994
 Index  Atom      ---- Displacements (x/y/z) ----
     1     H       0.108611   0.225153   0.017051
     2     C       0.010798  -0.015809   0.001142
     3     C      -0.017234   0.035275  -0.009224
     4     C       0.185058  -0.637689   0.195512
     5     O      -0.149808   0.421540  -0.124134
     6     H      -0.031987  -0.040771   0.022909
     7     H       0.025076   0.145461  -0.145520
     8     H       0.018783   0.007947  -0.004468
     9     C      -0.003197  -0.001521  -0.002901
    10     H      -0.017329   0.002577   0.037824
    11     H       0.007694   0.035256   0.011294
    12     H      -0.111071   0.053838  -0.010908
    13     H       0.289150   0.259854  -0.155804
    14    Sn       0.000080   0.000202  -0.000032
    15    Cl       0.000037  -0.000140  -0.000027
    16    Cl      -0.000146  -0.000315  -0.000008
    17    Cl      -0.000108  -0.000128   0.000130
    18    Cl      -0.000059  -0.000117   0.000030
 
 Mode:    47      Frequency (cm-1):     2786.5482     Intensity (km/mol):      156.0504
 Index  Atom      ---- Displacements (x/y/z) ----
     1     H       0.029614  -0.011847   0.040189
     2     C      -0.000543   0.000376   0.000662
     3     C      -0.002111   0.002707  -0.000438
     4     C       0.079843  -0.014376  -0.011482
     5     O       0.000601  -0.002808   0.000913
     6     H      -0.004565   0.001654  -0.005241
     7     H       0.005494  -0.028662  -0.036125
     8     H       0.001171  -0.000835   0.001980
     9     C       0.000136   0.000039  -0.000220
    10     H      -0.000635  -0.000549   0.000639
    11     H      -0.002066   0.000485  -0.000010
    12     H       0.002622  -0.001690  -0.000926
    13     H      -0.961881   0.219981   0.121637
    14    Sn       0.000013   0.000006   0.000001
    15    Cl      -0.000007  -0.000001   0.000001
    16    Cl      -0.000013  -0.000016  -0.000001
    17    Cl      -0.000008  -0.000004   0.000005
    18    Cl      -0.000015  -0.000000  -0.000007
 
 Mode:    48      Frequency (cm-1):     2957.1612     Intensity (km/mol):       26.5226
 Index  Atom      ---- Displacements (x/y/z) ----
     1     H      -0.238232   0.164250  -0.412558
     2     C       0.004400   0.008099  -0.000047
     3     C       0.023355  -0.064769  -0.014315
     4     C       0.005777  -0.002889  -0.000970
     5     O      -0.000633   0.001025  -0.000228
     6     H      -0.003369   0.009522  -0.010106
     7     H      -0.031004   0.613681   0.585794
     8     H       0.010217  -0.014753   0.020857
     9     C      -0.000837  -0.000727  -0.001504
    10     H       0.012667   0.025424  -0.002513
    11     H      -0.013224   0.001204   0.000375
    12     H      -0.056179  -0.105961   0.012155
    13     H      -0.060119   0.008195   0.010064
    14    Sn       0.000002  -0.000001  -0.000000
    15    Cl      -0.000002   0.000001   0.000001
    16    Cl      -0.000001   0.000000   0.000001
    17    Cl      -0.000001   0.000000   0.000000
    18    Cl      -0.000002   0.000001  -0.000001
 
 Mode:    49      Frequency (cm-1):     2986.8357     Intensity (km/mol):        3.2198
 Index  Atom      ---- Displacements (x/y/z) ----
     1     H       0.386576  -0.304270   0.645234
     2     C       0.016217   0.004536   0.012598
     3     C      -0.029638  -0.002298  -0.077199
     4     C      -0.002607  -0.000314  -0.000926
     5     O       0.000042  -0.000213  -0.000215
     6     H      -0.092633   0.122522  -0.185910
     7     H      -0.026134   0.340170   0.292420
     8     H      -0.047417   0.061152  -0.092857
     9     C      -0.002542   0.001642   0.009080
    10     H      -0.033518  -0.062596   0.006860
    11     H       0.110515  -0.017508  -0.014274
    12     H      -0.097727  -0.176636   0.024395
    13     H       0.020778  -0.001909  -0.000352
    14    Sn      -0.000001  -0.000001  -0.000001
    15    Cl       0.000000   0.000001   0.000000
    16    Cl       0.000002   0.000002   0.000001
    17    Cl       0.000001   0.000001  -0.000000
    18    Cl       0.000001   0.000001   0.000001
 
 Mode:    50      Frequency (cm-1):     2991.8737     Intensity (km/mol):       25.5283
 Index  Atom      ---- Displacements (x/y/z) ----
     1     H       0.072819  -0.055753   0.118146
     2     C       0.003455  -0.002928   0.006887
     3     C      -0.006037   0.001970  -0.011759
     4     C      -0.000801  -0.000187   0.000025
     5     O      -0.000050   0.000079  -0.000001
     6     H      -0.041375   0.049993  -0.080165
     7     H      -0.000802   0.032359   0.025836
     8     H       0.264383  -0.350636   0.553568
     9     C       0.003892  -0.010695  -0.049598
    10     H       0.200069   0.390091  -0.042101
    11     H      -0.507024   0.081990   0.072487
    12     H      -0.001880  -0.007611   0.001503
    13     H       0.008551  -0.000714  -0.001002
    14    Sn      -0.000001  -0.000003  -0.000001
    15    Cl      -0.000001   0.000003   0.000001
    16    Cl       0.000002   0.000004   0.000001
    17    Cl       0.000001   0.000002  -0.000001
    18    Cl       0.000001   0.000001   0.000001
 
 Mode:    51      Frequency (cm-1):     3001.8140     Intensity (km/mol):       29.3951
 Index  Atom      ---- Displacements (x/y/z) ----
     1     H      -0.098090   0.078361  -0.162038
     2     C       0.048916   0.037388   0.024922
     3     C       0.006843   0.008551   0.026340
     4     C      -0.000378  -0.000499   0.000703
     5     O      -0.000133   0.000186   0.000005
     6     H      -0.186743   0.253764  -0.372885
     7     H       0.015309  -0.179655  -0.159654
     8     H       0.000652  -0.007609   0.008949
     9     C      -0.009795  -0.002624   0.000343
    10     H       0.024201   0.052746  -0.005024
    11     H       0.090240  -0.014080  -0.011871
    12     H      -0.389779  -0.697056   0.080606
    13     H       0.003550   0.000778  -0.000988
    14    Sn       0.000000  -0.000001   0.000002
    15    Cl      -0.000000   0.000001  -0.000001
    16    Cl      -0.000001   0.000000  -0.000002
    17    Cl       0.000001   0.000001  -0.000002
    18    Cl      -0.000001   0.000001  -0.000003
 
 Mode:    52      Frequency (cm-1):     3037.9103     Intensity (km/mol):        5.3606
 Index  Atom      ---- Displacements (x/y/z) ----
     1     H      -0.055368   0.039624  -0.090178
     2     C       0.004738  -0.064561   0.050737
     3     C       0.004859  -0.003726   0.007862
     4     C       0.000400  -0.000554   0.000121
     5     O      -0.000283   0.000358  -0.000160
     6     H      -0.306190   0.364039  -0.574632
     7     H       0.001751  -0.002910  -0.000287
     8     H       0.090967  -0.119936   0.195351
     9     C      -0.016855   0.031131  -0.013761
    10     H      -0.126409  -0.226290   0.015766
    11     H       0.235102  -0.028667  -0.043488
    12     H       0.246332   0.417427  -0.035586
    13     H      -0.000038   0.000029   0.000291
    14    Sn       0.000001   0.000002   0.000001
    15    Cl       0.000001  -0.000002  -0.000001
    16    Cl      -0.000002  -0.000003  -0.000001
    17    Cl      -0.000001  -0.000001   0.000001
    18    Cl      -0.000001  -0.000001  -0.000001
 
 Mode:    53      Frequency (cm-1):     3061.4164     Intensity (km/mol):       37.6787
 Index  Atom      ---- Displacements (x/y/z) ----
     1     H       0.026230  -0.018399   0.037859
     2     C      -0.006884   0.024192  -0.023794
     3     C      -0.001658   0.001044  -0.003567
     4     C      -0.000105   0.000580  -0.000196
     5     O       0.000194  -0.000315   0.000072
     6     H       0.141984  -0.170798   0.270710
     7     H      -0.001410   0.005002   0.005032
     8     H       0.207777  -0.289831   0.472205
     9     C      -0.070014   0.038117  -0.028933
    10     H      -0.053381  -0.059993  -0.002805
    11     H       0.682370  -0.103151  -0.120593
    12     H      -0.069698  -0.118764   0.009120
    13     H      -0.000331  -0.000304  -0.000046
    14    Sn      -0.000003  -0.000000  -0.000001
    15    Cl       0.000002  -0.000001  -0.000000
    16    Cl       0.000002   0.000002   0.000001
    17    Cl       0.000001   0.000000  -0.000001
    18    Cl       0.000003  -0.000001   0.000002
 
 Mode:    54      Frequency (cm-1):     3080.8129     Intensity (km/mol):       26.3190
 Index  Atom      ---- Displacements (x/y/z) ----
     1     H       0.006288  -0.003841   0.009108
     2     C       0.003890   0.018460  -0.009556
     3     C      -0.000761   0.000551  -0.000470
     4     C      -0.000410   0.000497  -0.000057
     5     O       0.000216  -0.000300  -0.000134
     6     H       0.050425  -0.059431   0.096590
     7     H       0.000033  -0.002359  -0.001974
     8     H       0.105246  -0.107588   0.190125
     9     C       0.055459   0.065879  -0.025238
    10     H      -0.384142  -0.758113   0.057511
    11     H      -0.385355   0.078804   0.057689
    12     H      -0.090363  -0.158605   0.013362
    13     H       0.001724  -0.000778   0.000281
    14    Sn      -0.000001  -0.000002   0.000001
    15    Cl      -0.000000   0.000002  -0.000001
    16    Cl       0.000001   0.000003  -0.000001
    17    Cl       0.000002   0.000002  -0.000003
    18    Cl      -0.000000   0.000002  -0.000002

PES point character: Geometry corresponds to a transition state.
                     (Hint: Very small negative frequencies do not count towards being a
                     transition state, as they usually indicate noise on a very flat PES. See
                     the PESPointCharacter%NegativeFrequenciesTolerance keyword documentation.)




 ============================
 Statistical Thermal Analysis  ***  ideal gas assumed  ***
 ============================
  
 Pressure:                  1.000000 atm.
 Temperature:             298.150000 K



 Moments of Inertia [amu*bohr^2] and principal axis
 ==================================================

        2165.0593      12646.7264      12901.4328
 ------------------------------------------------
          -0.2923         -0.7297         -0.6182
          -0.8464          0.4983         -0.1879
           0.4452          0.4683         -0.7632


 The rotational contribution to the molecular entropy includes
 a term, dependent on the symmetry number sigma. The results 
 reported below were computed using sigma = 1, determined from
 the point group symmetry of the input geometry (NOSYM). 
 If this is not the correct symmetry, try symmetrizing the molecule before
 running the calculation (note: linear molecules should be aligned along one
 of the Cartesian axes).
 Contributions from frequencies below 20 1/cm are not included in vibrational sums.
 Their contributions, if any, are reported separately.


     Temp                                                        Transl      Rotat     Vibrat     Total
     ----                                                        ------      -----     ------     -----

     298.15   Entropy (cal/mol-K):                               43.293     34.223     40.319    117.836
              Nuclear Internal Energy (kcal/mol):                 0.889      0.889     78.036     79.813
              Constant Volume Heat Capacity (cal/mol-K):          2.981      2.981     33.028     38.990
          (c) Constant Volume Heat Capacity (cal/mol-K):          2.981      2.981     29.265     35.226

       Summary of energy terms
                                                   hartree              eV         kcal/mol           kJ/mol
                                      --------------------     -----------       ----------      -----------
      Energy from Engine:               -3.108100046823806        -84.5757         -1950.36         -8160.32
      Nuclear Internal Energy:           0.127190239575766          3.4610            79.81           333.94
  (c) Nuclear Internal Energy:           0.125252561297604          3.4083            78.60           328.85
      Internal Energy U:                -2.980909807248040        -81.1147         -1870.55         -7826.38
      pV/n = RT:                         0.000944186013486          0.0257             0.59             2.48
      Enthalpy H:                       -2.979965621234554        -81.0890         -1869.96         -7823.90
      -T*S:                             -0.055987481588521         -1.5235           -35.13          -147.00
  (c) -T*S:                             -0.054242737057184         -1.4760           -34.04          -142.41
      Gibbs free energy:                -3.035953102823076        -82.6125         -1905.09         -7970.89
 
 
 
  (c) The properties marked with this symbol have been corrected using 'low vibrational frequency free rotor
      interpolation corrections'. For those terms all positive frequencies are used (also ones below 20 1/cm),
      but the contribution to the partition function of small vibrational frequencies is modified as described
      in the following paper:
      S. Grimme, 'Supramolecular Binding Thermodynamics by Dispersion-Corrected Density Functional Theory'
      (Chem. Eur. J. 2012, 18, 9955-9964)
      Configuration: Dampener Frequency          :   100.000 1/cm
                     Dampener Alpha              :     4.000
                     Averaging Moment of Inertia : 1.000E-44 kg m2

--------------
Atomic charges
--------------
  Index   Atom    Charge
      1      H   -0.1713
      2      C    0.4501
      3      C    0.3807
      4      C    0.6651
      5      O   -0.4916
      6      H   -0.1884
      7      H   -0.1695
      8      H   -0.2206
      9      C    0.6360
     10      H   -0.1887
     11      H   -0.2299
     12      H   -0.2084
     13      H   -0.2635
     14     Sn    0.9947
     15     Cl   -0.2536
     16     Cl   -0.2359
     17     Cl   -0.2550
     18     Cl   -0.2500


Dipole moment vector    (Debye):    -0.01490522   -2.77416405    0.93233400
              magnitude (Debye):     2.92667987


ERROR: Geometry optimization failed! (Converged, but did not find a minimum on the PES.)


AMS application finished. Exiting.
NORMAL TERMINATION
     Total cpu time:   31306.44
  Total system time:     358.11
 Total elapsed time:   62381.74
