

 Parallel Execution: Process Information
 ==============================================================================
 Rank   Node Name                              NodeID   MyNodeRank  NodeMaster
    0   node120                                   0          0          0
    1   node120                                   0          1         -1
    2   node120                                   0          2         -1
    3   node120                                   0          3         -1
 ==============================================================================


May use up to 122928MB of RAM as shared memory on node 0

 *******************************************************************************
 *                                                                             *
 *  --------------------------------                                           *
 *   Amsterdam Modeling Suite (AMS)              2021.102                      *
 *  --------------------------------                                           *
 *                                               r95042 2021-06-07             *
 *                                                                             *
 *                                                                             *
 *                              =================                              *
 *                              |               |                              *
 *                              |     A M S     |                              *
 *                              |               |                              *
 *                              =================                              *
 *                                                                             *
 *                                                                             *
 *   Online information and documentation:  https://www.scm.com/support/       *
 *   E-mail:  support@scm.com   info@scm.com                                   *
 *                                                                             *
 *   Scientific publications using AMS results must be properly referenced     *
 *   See the User Manuals (or the web site) for recommended citations          *
 *   The terms and conditions of the End User License Agreement apply to       *
 *   the use of AMS, https://www.scm.com/license-terms/                        *
 *                                                                             *
 **********************  x86_64_linux_intel / intelmpi  ************************
 
 Licensed to: VU/FEW (+ SARA) / ALGEMEEN / Amsterdam / THE NETHERLANDS
 SCM User ID: u7668
  
 AMS 2021.102  RunTime: Jan29-2022 11:43:59  ShM Nodes: 1  Procs: 4

 AMS jobname: 43.achiral_catalyst.H_tBu_BF3.P1
 AMS jobid  : 472359430

 Start   directory: /scistor/tc/yhk800/MasterProject/calculations/achiral_catalyst_H_tBu_BF3/43.achiral_catalyst.H_tBu_BF3.P1/
 Results directory: /scistor/tc/yhk800/MasterProject/calculations/achiral_catalyst_H_tBu_BF3/43.achiral_catalyst.H_tBu_BF3.P1/
 Scratch directory: /scratch/5503/amstmp_43.achiral_catalyst.H_tBu_BF3.P1_kid0.472359430/


 Communication costs MPI_COMM_WORLD:      0.999 usec per message,   0.0108 usec per 8-byte item
 Communication costs for intra-node:      1.013 usec per message,   0.0107 usec per 8-byte item

 RNG seed: -52183443 -355614730 -999234621 1700183222 -1764239563 -214520893 47685004 71991033



                      ************************************************************************
                      *  ADF 2021.102  RunTime: Jan29-2022 11:44:00  ShM Nodes: 1  Procs: 4  *
                      ************************************************************************
  
       ***************************
       *  GEOMETRY OPTIMIZATION  *
       ***************************

Optimization Method                    Quasi Newton
Optimization Coordinates               Delocalized Coordinates
Optimize lattice                       F
 
 ------------------------------------------------------
 Convergence criteria (Hartree,Angstrom)
 ------------------------------------------------------
 Maximum gradient               0.001000000000
 Maximum rms gradient           0.000666666667
 Maximum step allowed           0.010000000000
 Maximum rms step allowed       0.006666666667
 Maximum energy change allowe   0.000280000000
 Maximum stress energy allowe   0.000500000000
 
Initial model Hessian                  Automatic Hessian
 
------------------------------------
Quasi-Newton Optimizer Parameters
------------------------------------
Hessian Update Method                  BFGS
Maximum number of steps                  250
First GDIIS cycle                          0
Maximum GDIIS vectors                      0
Trust radius (bohr)                        0.200000
Trust radius varies                        T
Constraints converged at all steps         T
Use projector                              T
 
 Rigid motions settings for: old optimizer
 Atomic rotations (x,y,z):     T T T
 Atomic translations (x,y,z):  T T T
 Tolerance:                   1.000000000000000E-006
 
--------
Geometry
--------
Formula: C8H15BF3O
Atoms
  Index Symbol   x (angstrom)   y (angstrom)   z (angstrom)
      1      H     0.30883566    -1.71322737     0.34845077
      2      C    -0.85933175     0.07325638     0.95361639
      3      C     0.30566658    -0.62207952     0.35697327
      4      C     1.44363467     0.02246096    -0.23005168
      5      O     2.41991567    -0.55928782    -0.73004528
      6      H    -0.69195270     1.15283717     0.94428296
      7      H    -2.09949902     0.10683830     2.73788510
      8      H    -0.38777363    -0.20492454     3.06899219
      9      C    -1.20706757    -0.41125312     2.37345100
     10      H    -1.40849480    -1.48746718     2.39475159
     11      C    -1.70937506     0.20354156    -1.38496935
     12      C    -2.07744753    -0.18985427     0.04886961
     13      C    -3.24807681     0.65887181     0.55426345
     14      C    -2.42346101    -1.68006514     0.12422237
     15      H    -2.66121687    -1.96192776     1.15056780
     16      H    -2.55085832     0.03060734    -2.05797047
     17      H    -0.86007945    -0.38556238    -1.73283836
     18      H    -1.44001103     1.25935324    -1.43040126
     19      H    -4.13281786     0.49873837    -0.06421966
     20      H    -2.98931684     1.71782142     0.52219591
     21      H    -3.49151556     0.39312814     1.58357255
     22      H    -3.28501950    -1.90595353    -0.50635057
     23      H    -1.57908657    -2.28215009    -0.21324594
     24      H     2.13175883    -0.63340533    -0.72119785
     25      B     1.54062743     0.82456511    -0.28082009
     26      F     1.77326393     0.56217725     0.98282398
     27      F     0.47342919     0.33649303    -0.86617215
     28      F     2.37518917     1.57502504    -0.95911210
 
Total System Charge             0.00000
 
 
----------------
ADF Engine Input
----------------
 
 NumericalQuality VeryGood
 SCF
 Converge 1.0e-6
 Iterations 99
 End
 SYMMETRY NOSYM
 SpinPolarization 1.0
 Unrestricted Yes
 XC
 GGA OLYP
 End
 basis
 core None
 type TZ2P
 End
 

 Title: *** (NO TITLE) ***

 Using automatic Hessian for delocalized coordinates.
 *** GOStep1 ***

 Energy gradients wrt nuclear displacements
 ==========================================

     Atom      Cartesian (a.u./angstrom)
                 X         Y         Z
 ----------------------------------------
     1 H     0.007456  0.004161 -0.008656
     2 C     0.012747  0.035274 -0.018441
     3 C     0.094094  0.412998 -0.310215
     4 C     0.441167  5.904956 -0.463051
     5 O   -29.143282 -7.543328  0.859409
     6 H    -0.001030 -0.011937 -0.011195
     7 H    -0.008347  0.002880 -0.007076
     8 H     0.000397  0.000585 -0.000659
     9 C    -0.022668 -0.012989 -0.017572
    10 H    -0.009357 -0.009537 -0.004153
    11 C     0.046901  0.013876  0.018754
    12 C     0.016623 -0.003270  0.006191
    13 C     0.006768  0.004367  0.009042
    14 C     0.012574  0.000701  0.009677
    15 H     0.008163  0.006607  0.008681
    16 H     0.004903 -0.002370  0.003321
    17 H     0.045837  0.010305  0.023192
    18 H     0.005647 -0.006399  0.007929
    19 H     0.005987 -0.002398  0.001106
    20 H     0.002648 -0.007141 -0.000583
    21 H     0.010028 -0.003924  0.005299
    22 H     0.003217  0.002872  0.002328
    23 H     0.005037  0.005644  0.001711
    24 H    28.851658  8.228488 -0.537682
    25 B    -0.641167 -6.078033  0.178499
    26 F    -0.242782 -0.363565 -0.655386
    27 F     0.537836 -0.452723  0.833979
    28 F    -0.051054 -0.136100  0.065551
 ----------------------------------------
 Mulliken charges used for AMS results%charges...
 
----------------------------------------------------------------------
Geometry Convergence after Step   1       (Hartree/Angstrom,Angstrom)
----------------------------------------------------------------------
current energy                                0.36111748 Hartree
energy change                       0.36111748     0.00028000    F
constrained gradient max           29.14325209     0.00100000    F
constrained gradient rms            4.73358243     0.00066667    F
gradient max                       29.14325209
gradient rms                        4.73358243
cart. step max                      0.03469870     0.01000000    F
cart. step rms                      0.00556772     0.00666667    T
 
 
--------
Geometry
--------
Formula: C8H15BF3O
Atoms
  Index Symbol   x (angstrom)   y (angstrom)   z (angstrom)
      1      H     0.31132708    -1.71328049     0.34919332
      2      C    -0.85866962     0.07318084     0.95280249
      3      C     0.30754134    -0.62211012     0.35731673
      4      C     1.44514606     0.01992208    -0.22815186
      5      O     2.45260367    -0.55313301    -0.72972370
      6      H    -0.69150230     1.15285518     0.94322239
      7      H    -2.09891018     0.10615735     2.73718077
      8      H    -0.38713247    -0.20503810     3.06821088
      9      C    -1.20634885    -0.41156884     2.37263792
     10      H    -1.40739720    -1.48779616     2.39387942
     11      C    -1.71206648     0.20297092    -1.38641968
     12      C    -2.07815675    -0.19000305     0.04815944
     13      C    -3.24811051     0.65926224     0.55452323
     14      C    -2.42433447    -1.68027183     0.12382724
     15      H    -2.66122777    -1.96223268     1.15031918
     16      H    -2.55463780     0.02991944    -2.05807444
     17      H    -0.86356440    -0.38627192    -1.73561298
     18      H    -1.44268101     1.25876968    -1.43266439
     19      H    -4.13352056     0.49929392    -0.06309157
     20      H    -2.98907457     1.71816403     0.52198112
     21      H    -3.49076561     0.39390379     1.58409633
     22      H    -3.28653165    -1.90600622    -0.50596803
     23      H    -1.58042156    -2.28254970    -0.21444535
     24      H     2.09706013    -0.64337969    -0.71757016
     25      B     1.54449225     0.82951829    -0.28040039
     26      F     1.77531989     0.56417975     0.98647579
     27      F     0.47401115     0.33582537    -0.86668440
     28      F     2.37747146     1.57827599    -0.95749513
 
Total System Charge             0.00000
 
 *** GOStep2 ***

 Energy gradients wrt nuclear displacements
 ==========================================

     Atom      Cartesian (a.u./angstrom)
                 X         Y         Z
 ----------------------------------------
     1 H     0.008006  0.004285 -0.009122
     2 C     0.013286  0.034793 -0.018253
     3 C     0.092892  0.413034 -0.308210
     4 C     0.444342  5.662525 -0.473180
     5 O   -16.383478 -4.104141  0.561914
     6 H    -0.001094 -0.011629 -0.011229
     7 H    -0.008505  0.002891 -0.006970
     8 H     0.000306  0.000583 -0.000648
     9 C    -0.022927 -0.013000 -0.017532
    10 H    -0.009433 -0.009450 -0.004132
    11 C     0.046389  0.013708  0.018385
    12 C     0.015843 -0.003118  0.006125
    13 C     0.006524  0.004374  0.008933
    14 C     0.012420  0.000577  0.009574
    15 H     0.008066  0.006619  0.008636
    16 H     0.004818 -0.002368  0.003256
    17 H     0.044968  0.010085  0.022865
    18 H     0.005437 -0.006297  0.007896
    19 H     0.005795 -0.002361  0.001103
    20 H     0.002555 -0.007079 -0.000578
    21 H     0.009950 -0.003917  0.005273
    22 H     0.003061  0.002858  0.002311
    23 H     0.004888  0.005671  0.001721
    24 H    16.080839  4.799030 -0.231859
    25 B    -0.639578 -5.843091  0.176490
    26 F    -0.237910 -0.362898 -0.651129
    27 F     0.542340 -0.448826  0.831977
    28 F    -0.049800 -0.142858  0.066384
 ----------------------------------------
 Mulliken charges used for AMS results%charges...

 dE(predicted):    -0.21273E+01, dE(actual):    -0.16256E+01, Trust radius:    0.400000, all in a.u.
 
----------------------------------------------------------------------
Geometry Convergence after Step   2       (Hartree/Angstrom,Angstrom)
----------------------------------------------------------------------
current energy                               -1.26444859 Hartree
energy change                      -1.62556607     0.00028000    F
constrained gradient max           16.38347138     0.00100000    F
constrained gradient rms            2.75256389     0.00066667    F
gradient max                       16.38347138
gradient rms                        2.75256389
cart. step max                      0.08072306     0.01000000    F
cart. step rms                      0.01430772     0.00666667    F
 
 
--------
Geometry
--------
Formula: C8H15BF3O
Atoms
  Index Symbol   x (angstrom)   y (angstrom)   z (angstrom)
      1      H     0.32545971    -1.71331781     0.35447010
      2      C    -0.85636340     0.07279601     0.94765776
      3      C     0.31811956    -0.62199099     0.36006771
      4      C     1.45768081     0.00745955    -0.21755689
      5      O     2.53332672    -0.55522223    -0.72133314
      6      H    -0.69074194     1.15312043     0.93653655
      7      H    -2.09654117     0.10120392     2.73320011
      8      H    -0.38428414    -0.20592017     3.06309135
      9      C    -1.20316594    -0.41384089     2.36753272
     10      H    -1.40145771    -1.49017743     2.38829361
     11      C    -1.73363741     0.19948445    -1.39576311
     12      C    -2.08545726    -0.19075730     0.04395153
     13      C    -3.25057932     0.66216746     0.55735636
     14      C    -2.43272414    -1.68145336     0.12158184
     15      H    -2.66343444    -1.96436035     1.14903724
     16      H    -2.58392378     0.02568604    -2.05775084
     17      H    -0.89081979    -0.39066708    -1.75452506
     18      H    -1.46419715     1.25520117    -1.44764896
     19      H    -4.14070740     0.50341876    -0.05408159
     20      H    -2.98965646     1.72073997     0.52158934
     21      H    -3.48762818     0.39937437     1.58874470
     22      H    -3.29944645    -1.90600266    -0.50267523
     23      H    -1.59209898    -2.28500098    -0.22256126
     24      H     2.05846553    -0.67286133    -0.70233161
     25      B     1.56651248     0.85897105    -0.27676587
     26      F     1.78696453     0.57701295     1.00914713
     27      F     0.47846052     0.33550501    -0.87343333
     28      F     2.39179444     1.59798853    -0.94830698
 
Total System Charge             0.00000
 
 *** GOStep3 ***

 Energy gradients wrt nuclear displacements
 ==========================================

     Atom      Cartesian (a.u./angstrom)
                 X         Y         Z
 ----------------------------------------
     1 H     0.009950  0.004552 -0.009629
     2 C     0.015028  0.033872 -0.016966
     3 C     0.089168  0.399961 -0.298183
     4 C     0.369733  4.551558 -0.437913
     5 O    -6.452927 -1.471339  0.283596
     6 H    -0.000641 -0.009955 -0.011587
     7 H    -0.008560  0.002929 -0.006776
     8 H     0.000273  0.000558 -0.000568
     9 C    -0.023129 -0.013676 -0.017244
    10 H    -0.009326 -0.008888 -0.003931
    11 C     0.042991  0.012405  0.015522
    12 C     0.011298 -0.002606  0.005370
    13 C     0.005721  0.004644  0.008467
    14 C     0.012014 -0.000299  0.008977
    15 H     0.008044  0.006618  0.008275
    16 H     0.004833 -0.002352  0.002927
    17 H     0.039275  0.008691  0.020511
    18 H     0.004856 -0.005724  0.007637
    19 H     0.005317 -0.002228  0.001110
    20 H     0.002512 -0.006727 -0.000501
    21 H     0.010009 -0.003903  0.005084
    22 H     0.002784  0.002748  0.002259
    23 H     0.004392  0.005578  0.001786
    24 H     6.163480  2.132327  0.029902
    25 B    -0.575061 -4.707127  0.140855
    26 F    -0.220078 -0.355383 -0.622114
    27 F     0.537269 -0.422168  0.814370
    28 F    -0.049223 -0.154062  0.068765
 ----------------------------------------
 Mulliken charges used for AMS results%charges...

 dE(predicted):    -0.17446E+01, dE(actual):    -0.16017E+01, Trust radius:    0.800000, all in a.u.
 
----------------------------------------------------------------------
Geometry Convergence after Step   3       (Hartree/Angstrom,Angstrom)
----------------------------------------------------------------------
current energy                               -2.86619397 Hartree
energy change                      -1.60174538     0.00028000    F
constrained gradient max            6.45292410     0.00100000    F
constrained gradient rms            1.25339004     0.00066667    F
gradient max                        6.45292410
gradient rms                        1.25339004
cart. step max                      0.14573582     0.01000000    F
cart. step rms                      0.05058672     0.00666667    F
 
 
--------
Geometry
--------
Formula: C8H15BF3O
Atoms
  Index Symbol   x (angstrom)   y (angstrom)   z (angstrom)
      1      H     0.38546748    -1.71232547     0.38369885
      2      C    -0.84785474     0.07000110     0.92057024
      3      C     0.36519332    -0.62036580     0.37363963
      4      C     1.51946240    -0.03582576    -0.16986519
      5      O     2.67906255    -0.60675573    -0.65073037
      6      H    -0.69110095     1.15317407     0.90266583
      7      H    -2.08161980     0.07599063     2.71622826
      8      H    -0.36577141    -0.20840132     3.03442627
      9      C    -1.18510008    -0.42486457     2.34199519
     10      H    -1.36810910    -1.50207377     2.36208220
     11      C    -1.83953094     0.18353293    -1.43764193
     12      C    -2.11985283    -0.19420007     0.02448692
     13      C    -3.26114369     0.67573633     0.57098661
     14      C    -2.47379968    -1.68635946     0.10997156
     15      H    -2.67565496    -1.97560279     1.14092129
     16      H    -2.72651249     0.00679418    -2.05038266
     17      H    -1.02587083    -0.41134549    -1.84345835
     18      H    -1.57112846     1.23864759    -1.51697390
     19      H    -4.17285095     0.52299277    -0.01090723
     20      H    -2.99195201     1.73267454     0.51988245
     21      H    -3.47221240     0.42532738     1.61040120
     22      H    -3.36186502    -1.90327330    -0.48765839
     23      H    -1.65037144    -2.29669247    -0.26286424
     24      H     2.14127577    -0.75464929    -0.64159215
     25      B     1.65704025     0.97263854    -0.25702259
     26      F     1.82452295     0.63415230     1.10395074
     27      F     0.51772304     0.34335494    -0.91347102
     28      F     2.46247329     1.67627506    -0.90581505
 
Total System Charge             0.00000
 
 *** GOStep4 ***

 Energy gradients wrt nuclear displacements
 ==========================================

     Atom      Cartesian (a.u./angstrom)
                 X         Y         Z
 ----------------------------------------
     1 H     0.015076  0.005942 -0.010937
     2 C     0.018775  0.032444 -0.008573
     3 C     0.084130  0.343521 -0.244005
     4 C     0.119163  1.874431 -0.283968
     5 O    -3.853557 -0.998798  0.061754
     6 H     0.000111 -0.004851 -0.012267
     7 H    -0.007939  0.002770 -0.006321
     8 H     0.000219  0.000437 -0.000287
     9 C    -0.022933 -0.016656 -0.015824
    10 H    -0.008500 -0.006235 -0.002973
    11 C     0.026881  0.005737  0.003405
    12 C    -0.004361 -0.000137  0.002420
    13 C     0.003429  0.005797  0.006969
    14 C     0.010735 -0.003844  0.006273
    15 H     0.007862  0.006297  0.006304
    16 H     0.004217 -0.002201  0.001601
    17 H     0.017238  0.005063  0.012066
    18 H     0.002614 -0.003870  0.006165
    19 H     0.003771 -0.001831  0.001132
    20 H     0.002291 -0.005181 -0.000185
    21 H     0.010028 -0.003689  0.004055
    22 H     0.002009  0.002318  0.002025
    23 H     0.002306  0.004702  0.002024
    24 H     3.648916  1.520791  0.168070
    25 B    -0.291695 -1.955919 -0.000157
    26 F    -0.159627 -0.313746 -0.490907
    27 F     0.445890 -0.318603  0.706464
    28 F    -0.077048 -0.174690  0.085678
 ----------------------------------------
 Mulliken charges used for AMS results%charges...

 dE(predicted):    -0.10546E+01, dE(actual):    -0.10544E+01, Trust radius:    1.000000, all in a.u.
 
----------------------------------------------------------------------
Geometry Convergence after Step   4       (Hartree/Angstrom,Angstrom)
----------------------------------------------------------------------
current energy                               -3.92062132 Hartree
energy change                      -1.05442735     0.00028000    F
constrained gradient max            3.85355740     0.00100000    F
constrained gradient rms            0.69371347     0.00066667    F
gradient max                        3.85355740
gradient rms                        0.69371347
cart. step max                      0.20220707     0.01000000    F
cart. step rms                      0.05599924     0.00666667    F
 
 
--------
Geometry
--------
Formula: C8H15BF3O
Atoms
  Index Symbol   x (angstrom)   y (angstrom)   z (angstrom)
      1      H     0.40203274    -1.71258781     0.44184296
      2      C    -0.86317616     0.07340443     0.93044246
      3      C     0.37934390    -0.61804575     0.40527585
      4      C     1.56694439    -0.04806430    -0.13711592
      5      O     2.88126962    -0.66153874    -0.62729772
      6      H    -0.72923760     1.16080722     0.90432561
      7      H    -2.01126082     0.05013082     2.79624979
      8      H    -0.27899389    -0.17610195     3.02199766
      9      C    -1.12452607    -0.42124058     2.37201481
     10      H    -1.26931228    -1.50044406     2.40826943
     11      C    -1.90494804     0.18694466    -1.45245383
     12      C    -2.16945696    -0.19987080     0.01508038
     13      C    -3.31904992     0.67072198     0.55940624
     14      C    -2.53531767    -1.69647961     0.07559063
     15      H    -2.74841173    -2.01605204     1.09399549
     16      H    -2.80310042     0.01070103    -2.05219602
     17      H    -1.09794812    -0.39988708    -1.88146397
     18      H    -1.64117592     1.24437503    -1.53817506
     19      H    -4.22660235     0.51830967    -0.03195821
     20      H    -3.05396565     1.73091012     0.51134530
     21      H    -3.55189629     0.42830801     1.59471639
     22      H    -3.42406754    -1.89447169    -0.53022989
     23      H    -1.71860366    -2.31084788    -0.30835685
     24      H     2.22419472    -0.90545693    -0.63111287
     25      B     1.74523471     1.03297484    -0.25726251
     26      F     1.87767644     0.72618353     1.22818568
     27      F     0.48387383     0.36843034    -1.03525301
     28      F     2.58039999     1.73744460    -0.90833865
 
Total System Charge             0.00000
 
 *** GOStep5 ***

 Energy gradients wrt nuclear displacements
 ==========================================

     Atom      Cartesian (a.u./angstrom)
                 X         Y         Z
 ----------------------------------------
     1 H     0.012578 -0.000287 -0.010560
     2 C     0.016876  0.028046  0.008124
     3 C     0.024549  0.219616 -0.134237
     4 C     0.146335  1.197804 -0.204448
     5 O    -1.209978 -0.463666 -0.044396
     6 H    -0.002784  0.000821 -0.009609
     7 H    -0.000544 -0.000834 -0.003035
     8 H     0.000181  0.000136  0.000838
     9 C    -0.014158 -0.016806 -0.004146
    10 H    -0.003832  0.000857 -0.000298
    11 C     0.024555  0.003383  0.000714
    12 C    -0.015976  0.002855 -0.005921
    13 C    -0.003539  0.004790  0.004803
    14 C     0.004527 -0.008115  0.003320
    15 H     0.005013  0.003773 -0.000711
    16 H     0.003964 -0.002047 -0.000835
    17 H     0.015055  0.004232  0.008499
    18 H     0.002806 -0.000599  0.004225
    19 H     0.001062 -0.001201  0.000968
    20 H     0.002046 -0.002454  0.000311
    21 H     0.005762 -0.000446 -0.001533
    22 H     0.000363  0.001263  0.001299
    23 H     0.001603  0.003264  0.002205
    24 H     1.164511  0.769415  0.143742
    25 B    -0.273069 -1.219099  0.029503
    26 F    -0.094643 -0.215611 -0.242681
    27 F     0.205987 -0.192414  0.418762
    28 F    -0.019250 -0.116677  0.035094
 ----------------------------------------
 Mulliken charges used for AMS results%charges...

 dE(predicted):    -0.67596E+00, dE(actual):    -0.74263E+00, Trust radius:    1.000000, all in a.u.
 
----------------------------------------------------------------------
Geometry Convergence after Step   5       (Hartree/Angstrom,Angstrom)
----------------------------------------------------------------------
current energy                               -4.66324780 Hartree
energy change                      -0.74262648     0.00028000    F
constrained gradient max            1.21910934     0.00100000    F
constrained gradient rms            0.29204004     0.00066667    F
gradient max                        1.21910934
gradient rms                        0.29204004
cart. step max                      0.21521776     0.01000000    F
cart. step rms                      0.07082634     0.00666667    F
 
 
--------
Geometry
--------
Formula: C8H15BF3O
Atoms
  Index Symbol   x (angstrom)   y (angstrom)   z (angstrom)
      1      H     0.45484590    -1.70274536     0.45778458
      2      C    -0.85297521     0.06677278     0.86441681
      3      C     0.43112559    -0.60886702     0.40383314
      4      C     1.64361598    -0.05573284    -0.07102944
      5      O     3.02005337    -0.67015244    -0.47874446
      6      H    -0.72533218     1.15407608     0.84146317
      7      H    -2.00339777     0.02705242     2.73011357
      8      H    -0.26833832    -0.17999914     2.95303086
      9      C    -1.11134117    -0.43308981     2.30334499
     10      H    -1.24298079    -1.51457682     2.33535088
     11      C    -2.06459389     0.16281997    -1.50583864
     12      C    -2.20159651    -0.20409362    -0.01546767
     13      C    -3.30921551     0.68184953     0.58894519
     14      C    -2.57426146    -1.69825017     0.07331220
     15      H    -2.73354638    -2.01707696     1.10324366
     16      H    -3.01831818    -0.02001943    -2.01240534
     17      H    -1.30800617    -0.43198908    -2.00706956
     18      H    -1.81155118     1.21827111    -1.63634571
     19      H    -4.25061231     0.53196618     0.05147830
     20      H    -3.04143496     1.74064579     0.51569317
     21      H    -3.48844235     0.45321391     1.63928365
     22      H    -3.49822180    -1.89071225    -0.48021113
     23      H    -1.78830379    -2.32400962    -0.35603961
     24      H     2.33808110    -1.00571804    -0.54368098
     25      B     1.85706110     1.09591264    -0.20328834
     26      F     1.89572136     0.80103180     1.33036883
     27      F     0.59964869     0.40495922    -1.10987547
     28      F     2.72223608     1.79701824    -0.80414245
 
Total System Charge             0.00000
 
 *** GOStep6 ***

 Energy gradients wrt nuclear displacements
 ==========================================

     Atom      Cartesian (a.u./angstrom)
                 X         Y         Z
 ----------------------------------------
     1 H     0.012900  0.001000 -0.008535
     2 C     0.013307  0.021192  0.008482
     3 C     0.032405  0.185999 -0.091619
     4 C     0.082895  0.727005 -0.121971
     5 O    -0.626033 -0.349434 -0.106769
     6 H    -0.002691  0.000917 -0.008520
     7 H    -0.003001  0.000578 -0.003237
     8 H     0.000430  0.000201  0.000168
     9 C    -0.014285 -0.016739 -0.010130
    10 H    -0.004291 -0.000167 -0.001025
    11 C     0.005287 -0.003158 -0.006296
    12 C    -0.019913  0.007567 -0.005026
    13 C    -0.000352  0.004473  0.002369
    14 C     0.005760 -0.006111  0.000734
    15 H     0.004859  0.003130  0.001433
    16 H     0.000921 -0.001786 -0.000908
    17 H    -0.000975  0.003471  0.004405
    18 H     0.000078 -0.000843  0.002572
    19 H     0.000424 -0.001060  0.000843
    20 H     0.001627 -0.001283  0.000510
    21 H     0.006216 -0.001224  0.001240
    22 H     0.000065  0.001174  0.001056
    23 H     0.000769  0.002003  0.001950
    24 H     0.630388  0.586017  0.166936
    25 B    -0.184443 -0.722254 -0.019676
    26 F    -0.065019 -0.188449 -0.177851
    27 F     0.146153 -0.145353  0.335979
    28 F    -0.023478 -0.106865  0.032884
 ----------------------------------------
 Mulliken charges used for AMS results%charges...

 dE(predicted):    -0.30746E+00, dE(actual):    -0.24023E+00, Trust radius:    1.000000, all in a.u.
 
----------------------------------------------------------------------
Geometry Convergence after Step   6       (Hartree/Angstrom,Angstrom)
----------------------------------------------------------------------
current energy                               -4.90347647 Hartree
energy change                      -0.24022867     0.00028000    F
constrained gradient max            0.72699890     0.00100000    F
constrained gradient rms            0.17884244     0.00066667    F
gradient max                        0.72699890
gradient rms                        0.17884244
cart. step max                      0.20933316     0.01000000    F
cart. step rms                      0.07941248     0.00666667    F
 
 
--------
Geometry
--------
Formula: C8H15BF3O
Atoms
  Index Symbol   x (angstrom)   y (angstrom)   z (angstrom)
      1      H     0.37702044    -1.70833727     0.48001397
      2      C    -0.87840508     0.07228983     0.94151413
      3      C     0.36843071    -0.61336789     0.42343770
      4      C     1.55354807    -0.09531024    -0.10296238
      5      O     2.92244207    -0.71957484    -0.57211390
      6      H    -0.75775319     1.15914682     0.91720804
      7      H    -1.92174930     0.04160878     2.88113255
      8      H    -0.17745832    -0.13343762     2.99817786
      9      C    -1.05242551    -0.40874388     2.40275230
     10      H    -1.16104125    -1.49163208     2.45855871
     11      C    -1.91221871     0.19328907    -1.44497884
     12      C    -2.19270888    -0.21180915     0.01425288
     13      C    -3.35937171     0.64970734     0.54358894
     14      C    -2.57727089    -1.70694008     0.04451068
     15      H    -2.81928931    -2.05767741     1.04814743
     16      H    -2.81123395     0.02238512    -2.04688437
     17      H    -1.09999869    -0.38644834    -1.88320201
     18      H    -1.64907868     1.25187558    -1.52755995
     19      H    -4.24944195     0.49432997    -0.07457316
     20      H    -3.10550932     1.71439930     0.50574887
     21      H    -3.63358046     0.41024678     1.57061905
     22      H    -3.45807460    -1.88116113    -0.58177002
     23      H    -1.76554722    -2.32966966    -0.34244872
     24      H     2.21187037    -1.21505120    -0.65076549
     25      B     1.81380429     1.15632280    -0.26262333
     26      F     1.92162493     0.85961985     1.32113460
     27      F     0.43343964     0.45937801    -1.19441100
     28      F     2.64989573     1.85311861    -0.89898035
 
Total System Charge             0.00000
 
 *** GOStep7 ***

 Energy gradients wrt nuclear displacements
 ==========================================

     Atom      Cartesian (a.u./angstrom)
                 X         Y         Z
 ----------------------------------------
     1 H     0.013081  0.000240 -0.008765
     2 C     0.012391  0.020681  0.011647
     3 C     0.014177  0.149833 -0.061702
     4 C    -0.018727  0.300960 -0.027935
     5 O    -0.081191 -0.133248 -0.067375
     6 H    -0.004725  0.000992 -0.004778
     7 H     0.003517 -0.002308 -0.000173
     8 H    -0.000220 -0.000346  0.001252
     9 C    -0.004159 -0.010902  0.000470
    10 H    -0.000617  0.002749 -0.000080
    11 C     0.029421  0.007009  0.006913
    12 C    -0.017606  0.003012 -0.011604
    13 C    -0.005362  0.001271  0.001846
    14 C    -0.001021 -0.005537  0.000943
    15 H     0.002088  0.000585 -0.002688
    16 H     0.004901 -0.001513 -0.001340
    17 H     0.021794  0.002093  0.004334
    18 H     0.004452  0.002523  0.002018
    19 H    -0.000386 -0.000953  0.000857
    20 H     0.001389 -0.000667  0.000564
    21 H     0.001452  0.002096 -0.003267
    22 H    -0.000839  0.000079  0.000885
    23 H     0.002281  0.001668  0.001443
    24 H     0.146129  0.292883  0.088602
    25 B    -0.089603 -0.267796 -0.064638
    26 F    -0.054618 -0.157082 -0.099172
    27 F     0.045652 -0.116960  0.201533
    28 F    -0.023651 -0.091362  0.030208
 ----------------------------------------
 Mulliken charges used for AMS results%charges...
 Rebuilding optimization coordinates

 dE(predicted):    -0.24822E+00, dE(actual):    -0.20464E+00, Trust radius:    1.000000, all in a.u.
 
----------------------------------------------------------------------
Geometry Convergence after Step   7       (Hartree/Angstrom,Angstrom)
----------------------------------------------------------------------
current energy                               -5.10812131 Hartree
energy change                      -0.20464484     0.00028000    F
constrained gradient max            0.30095969     0.00100000    F
constrained gradient rms            0.07342868     0.00066667    F
gradient max                        0.30095969
gradient rms                        0.07342868
cart. step max                      0.21580986     0.01000000    F
cart. step rms                      0.07177314     0.00666667    F
 
 
--------
Geometry
--------
Formula: C8H15BF3O
Atoms
  Index Symbol   x (angstrom)   y (angstrom)   z (angstrom)
      1      H     0.41168562    -1.69413724     0.45972367
      2      C    -0.86611670     0.07188469     0.86363086
      3      C     0.41226107    -0.59879915     0.39919372
      4      C     1.62934767    -0.08978993    -0.04914744
      5      O     3.00726626    -0.73427997    -0.41981956
      6      H    -0.74586014     1.15849965     0.84861158
      7      H    -1.91672498     0.02971075     2.79950922
      8      H    -0.17136303    -0.13654586     2.92093369
      9      C    -1.04311462    -0.41508654     2.32264599
     10      H    -1.14611454    -1.49921348     2.37515292
     11      C    -2.07313173     0.16310949    -1.50099022
     12      C    -2.21916194    -0.21504439    -0.01618370
     13      C    -3.34590612     0.65811301     0.57633134
     14      C    -2.60269311    -1.70894288     0.05266577
     15      H    -2.78326173    -2.05106276     1.07283022
     16      H    -3.02704380    -0.02097608    -2.00813315
     17      H    -1.30998733    -0.42569591    -2.00685700
     18      H    -1.82479651     1.21989208    -1.63109060
     19      H    -4.27378849     0.49862219     0.01754581
     20      H    -3.09281486     1.72169056     0.50892611
     21      H    -3.55657815     0.43304318     1.62217266
     22      H    -3.52127542    -1.88636346    -0.51591078
     23      H    -1.81960995    -2.33927915    -0.37912701
     24      H     2.29757004    -1.29405863    -0.57701800
     25      B     1.92844316     1.19705555    -0.18272454
     26      F     1.92690806     0.91208829     1.41778119
     27      F     0.58385616     0.51937330    -1.24789229
     28      F     2.81192437     1.90474979    -0.75523628
 
Total System Charge             0.00000
 
 *** GOStep8 ***

 Energy gradients wrt nuclear displacements
 ==========================================

     Atom      Cartesian (a.u./angstrom)
                 X         Y         Z
 ----------------------------------------
     1 H     0.011708  0.000977 -0.005948
     2 C     0.009769  0.014952  0.007234
     3 C     0.024263  0.136837 -0.039724
     4 C    -0.039461  0.205323  0.000789
     5 O     0.054962 -0.053959 -0.053264
     6 H    -0.003339  0.000847 -0.003276
     7 H     0.001422 -0.001339 -0.000513
     8 H     0.000234 -0.000265  0.000642
     9 C    -0.005425 -0.011410 -0.005609
    10 H    -0.001261  0.001472 -0.000343
    11 C     0.004498 -0.001105 -0.000672
    12 C    -0.018790  0.006717 -0.010428
    13 C    -0.002395  0.001674  0.000173
    14 C     0.000923 -0.003689 -0.001100
    15 H     0.002182  0.000581 -0.000889
    16 H     0.000614 -0.001259 -0.000811
    17 H     0.002267  0.000575  0.001286
    18 H    -0.000055  0.000812  0.000959
    19 H    -0.000414 -0.000873  0.000728
    20 H     0.001055 -0.000174  0.000650
    21 H     0.002027  0.001304 -0.001074
    22 H    -0.000764  0.000272  0.000766
    23 H     0.001416  0.000916  0.001285
    24 H     0.026896  0.188040  0.069618
    25 B    -0.066689 -0.172361 -0.083102
    26 F    -0.042053 -0.146165 -0.071962
    27 F     0.050150 -0.095653  0.174977
    28 F    -0.013742 -0.073044  0.019607
 ----------------------------------------
 Mulliken charges used for AMS results%charges...

 dE(predicted):    -0.17765E+00, dE(actual):    -0.69851E-01, Trust radius:    1.000000, all in a.u.
 
----------------------------------------------------------------------
Geometry Convergence after Step   8       (Hartree/Angstrom,Angstrom)
----------------------------------------------------------------------
current energy                               -5.17797202 Hartree
energy change                      -0.06985070     0.00028000    F
constrained gradient max            0.20532273     0.00100000    F
constrained gradient rms            0.05269195     0.00066667    F
gradient max                        0.20532273
gradient rms                        0.05269195
cart. step max                      0.20811300     0.01000000    F
cart. step rms                      0.07223789     0.00666667    F
 
 
--------
Geometry
--------
Formula: C8H15BF3O
Atoms
  Index Symbol   x (angstrom)   y (angstrom)   z (angstrom)
      1      H     0.41712395    -1.68132854     0.38889317
      2      C    -0.85403319     0.07269924     0.77931818
      3      C     0.43930058    -0.58431812     0.34703914
      4      C     1.68011058    -0.09079905    -0.00301288
      5      O     3.02525631    -0.78195563    -0.26953275
      6      H    -0.73139250     1.15844667     0.77591870
      7      H    -1.88116365     0.05225289     2.72988927
      8      H    -0.13317284    -0.10244213     2.82980379
      9      C    -1.01097766    -0.39543054     2.24810893
     10      H    -1.10660323    -1.47990241     2.31852144
     11      C    -2.21496351     0.12743403    -1.54682901
     12      C    -2.23565928    -0.22573960    -0.04977990
     13      C    -3.33008196     0.64816490     0.59953186
     14      C    -2.62487132    -1.71542662     0.06226496
     15      H    -2.75222605    -2.04527575     1.09535812
     16      H    -3.21175847    -0.06388836    -1.96097923
     17      H    -1.50350474    -0.47341837    -2.11093072
     18      H    -1.98162398     1.18098381    -1.72016278
     19      H    -4.28669389     0.47806399     0.09478649
     20      H    -3.08981642     1.71299722     0.50687364
     21      H    -3.48335405     0.43340886     1.65831782
     22      H    -3.57581411    -1.89111695    -0.45112549
     23      H    -1.87607159    -2.36126685    -0.40687832
     24      H     2.32476076    -1.42334309    -0.55049559
     25      B     2.04173902     1.24469903    -0.06840218
     26      F     1.91363977     0.96500080     1.53314976
     27      F     0.73653229     0.64735025    -1.31499896
     28      F     2.97523843     1.97270740    -0.54712328
 
Total System Charge             0.00000
 
 *** GOStep9 ***

 Energy gradients wrt nuclear displacements
 ==========================================

     Atom      Cartesian (a.u./angstrom)
                 X         Y         Z
 ----------------------------------------
     1 H     0.009122  0.001626 -0.002993
     2 C     0.007069  0.006208  0.001479
     3 C     0.040162  0.122717 -0.018272
     4 C    -0.082993  0.101045  0.031968
     5 O     0.178050  0.035721 -0.006758
     6 H    -0.001484  0.000184  0.001220
     7 H    -0.000684 -0.000482 -0.000116
     8 H     0.000744 -0.000147  0.000537
     9 C    -0.006305 -0.007764 -0.009979
    10 H    -0.001375  0.000635 -0.000830
    11 C    -0.006699 -0.004817 -0.001950
    12 C    -0.013837  0.008924 -0.013315
    13 C     0.000864 -0.000703 -0.000541
    14 C     0.000183 -0.000442 -0.001696
    15 H     0.001720  0.000094  0.000568
    16 H    -0.001569 -0.000933 -0.000265
    17 H    -0.003748  0.000896  0.001253
    18 H    -0.002063 -0.000182  0.000398
    19 H    -0.000476 -0.000915  0.000516
    20 H     0.000713  0.000087  0.000527
    21 H     0.002326  0.000737  0.001288
    22 H    -0.000894  0.000212  0.000643
    23 H     0.000806  0.000616  0.000990
    24 H    -0.077751  0.064562  0.023932
    25 B    -0.030867 -0.065695 -0.105824
    26 F    -0.032629 -0.131400 -0.035308
    27 F     0.026286 -0.078576  0.121084
    28 F    -0.004671 -0.052208  0.011444
 ----------------------------------------
 Mulliken charges used for AMS results%charges...

 dE(predicted):    -0.94316E-01, dE(actual):    -0.67160E-01, Trust radius:    1.000000, all in a.u.
 
----------------------------------------------------------------------
Geometry Convergence after Step   9       (Hartree/Angstrom,Angstrom)
----------------------------------------------------------------------
current energy                               -5.24513161 Hartree
energy change                      -0.06715959     0.00028000    F
constrained gradient max            0.17804880     0.00100000    F
constrained gradient rms            0.04087503     0.00066667    F
gradient max                        0.17804880
gradient rms                        0.04087503
cart. step max                      0.21174980     0.01000000    F
cart. step rms                      0.06461507     0.00666667    F
 
 
--------
Geometry
--------
Formula: C8H15BF3O
Atoms
  Index Symbol   x (angstrom)   y (angstrom)   z (angstrom)
      1      H     0.36783006    -1.68086159     0.33775470
      2      C    -0.85984968     0.05757696     0.77944674
      3      C     0.41365015    -0.58163526     0.30414683
      4      C     1.63772249    -0.10471044    -0.03106291
      5      O     2.81350651    -0.90809953    -0.21740387
      6      H    -0.73255167     1.14215692     0.78276225
      7      H    -1.81103885     0.06037408     2.77260201
      8      H    -0.06002998    -0.07654623     2.80457071
      9      C    -0.95633849    -0.39142542     2.26639055
     10      H    -1.03571870    -1.47644138     2.36489035
     11      C    -2.15841588     0.11283375    -1.52183843
     12      C    -2.23251397    -0.25371638    -0.02992898
     13      C    -3.33881834     0.63243340     0.58647874
     14      C    -2.63368256    -1.74177503     0.06969464
     15      H    -2.79384253    -2.07647472     1.09747441
     16      H    -3.14360045    -0.06277076    -1.96732062
     17      H    -1.43805932    -0.49256874    -2.07204905
     18      H    -1.90535660     1.16390435    -1.68137011
     19      H    -4.27812829     0.46879441     0.04863580
     20      H    -3.09224772     1.69615811     0.49676926
     21      H    -3.53619319     0.42153053     1.63903339
     22      H    -3.57225156    -1.90517425    -0.46914357
     23      H    -1.88571940    -2.39821478    -0.38734294
     24      H     2.12518914    -1.63497345    -0.64807876
     25      B     2.07776530     1.31580265    -0.02515503
     26      F     1.91168099     1.16831016     1.53453963
     27      F     0.76236924     0.83957439    -1.41745677
     28      F     3.02456255     2.08449529    -0.44951479
 
Total System Charge             0.00000
 
 *** GOStep10 ***

 Energy gradients wrt nuclear displacements
 ==========================================

     Atom      Cartesian (a.u./angstrom)
                 X         Y         Z
 ----------------------------------------
     1 H     0.001649  0.000615 -0.000154
     2 C     0.004294  0.000342 -0.003285
     3 C     0.077055  0.094367 -0.014928
     4 C    -0.136162 -0.003851  0.048758
     5 O     0.211302  0.094905  0.070098
     6 H     0.001330 -0.000670  0.004341
     7 H     0.001129 -0.000709  0.001638
     8 H    -0.000089 -0.000546 -0.000196
     9 C    -0.003730 -0.003492 -0.004586
    10 H     0.000169  0.000204  0.000232
    11 C    -0.001780 -0.001893  0.001609
    12 C    -0.013195  0.001257 -0.009375
    13 C     0.000669  0.001276 -0.000834
    14 C    -0.000435 -0.001484 -0.001979
    15 H     0.000127 -0.000886 -0.000232
    16 H    -0.000433 -0.000570  0.001069
    17 H    -0.003096  0.000218 -0.000032
    18 H    -0.001913  0.001119 -0.000803
    19 H     0.000066 -0.000394  0.000423
    20 H    -0.000501  0.001004  0.000044
    21 H    -0.000199  0.001473 -0.000610
    22 H    -0.000173 -0.000019  0.000495
    23 H     0.000270 -0.000417  0.000086
    24 H    -0.128625 -0.034600 -0.043338
    25 B     0.010699  0.039589 -0.135504
    26 F    -0.019945 -0.108739  0.023725
    27 F    -0.003469 -0.054037  0.047285
    28 F     0.004987 -0.024063  0.016052
 ----------------------------------------
 Mulliken charges used for AMS results%charges...

 dE(predicted):    -0.68756E-01, dE(actual):    -0.84077E-01, Trust radius:    1.000000, all in a.u.
 
----------------------------------------------------------------------
Geometry Convergence after Step  10       (Hartree/Angstrom,Angstrom)
----------------------------------------------------------------------
current energy                               -5.32920885 Hartree
energy change                      -0.08407724     0.00028000    F
constrained gradient max            0.21130140     0.00100000    F
constrained gradient rms            0.04274147     0.00066667    F
gradient max                        0.21130140
gradient rms                        0.04274147
cart. step max                      0.21043294     0.01000000    F
cart. step rms                      0.05882273     0.00666667    F
 
 
--------
Geometry
--------
Formula: C8H15BF3O
Atoms
  Index Symbol   x (angstrom)   y (angstrom)   z (angstrom)
      1      H     0.29919645    -1.69496762     0.27917611
      2      C    -0.86620329     0.04910633     0.78785229
      3      C     0.37339898    -0.59504775     0.26549707
      4      C     1.60932038    -0.13469484    -0.07851004
      5      O     2.60367230    -1.01666041    -0.24159277
      6      H    -0.73505995     1.13323021     0.78387097
      7      H    -1.80653846     0.09555796     2.77815785
      8      H    -0.05287318    -0.04790983     2.81347915
      9      C    -0.95157411    -0.37400522     2.28666310
     10      H    -1.03581979    -1.45722765     2.40925720
     11      C    -2.08417040     0.10131969    -1.50412048
     12      C    -2.21434754    -0.27038442    -0.01550146
     13      C    -3.33558678     0.60300345     0.59022054
     14      C    -2.61758454    -1.75552941     0.08635754
     15      H    -2.79917818    -2.08041094     1.11445366
     16      H    -3.04857796    -0.06723967    -1.99519020
     17      H    -1.33945938    -0.50223223    -2.02605733
     18      H    -1.81587590     1.15016359    -1.64615676
     19      H    -4.26502715     0.43929250     0.03527160
     20      H    -3.09409562     1.66830938     0.51383861
     21      H    -3.54762001     0.37679937     1.63807370
     22      H    -3.54545435    -1.91998676    -0.47031468
     23      H    -1.86523237    -2.41878353    -0.35323789
     24      H     1.91475620    -1.77672925    -0.76846273
     25      B     2.10178183     1.35359041     0.02584478
     26      F     1.93150913     1.34599280     1.48454265
     27      F     0.80319360     1.01046864    -1.46421169
     28      F     3.05336932     2.16353226    -0.36167659
 
Total System Charge             0.00000
 
 *** GOStep11 ***

 Energy gradients wrt nuclear displacements
 ==========================================

     Atom      Cartesian (a.u./angstrom)
                 X         Y         Z
 ----------------------------------------
     1 H    -0.003663 -0.001462  0.002580
     2 C     0.000795 -0.003373 -0.005926
     3 C     0.080813  0.054699 -0.015827
     4 C    -0.077387 -0.057093  0.021494
     5 O     0.127869  0.129468  0.124995
     6 H     0.001379 -0.001024  0.005281
     7 H    -0.000594  0.000383  0.001108
     8 H    -0.000639 -0.000494 -0.000313
     9 C    -0.003290 -0.001839 -0.000510
    10 H    -0.000070 -0.000819  0.000277
    11 C     0.003675 -0.000321  0.001029
    12 C    -0.005885 -0.001165 -0.007499
    13 C     0.002050  0.000308  0.002435
    14 C    -0.000189  0.000419  0.000350
    15 H    -0.000264 -0.000838  0.000577
    16 H     0.000050 -0.000108  0.000840
    17 H    -0.001403 -0.000094 -0.000937
    18 H    -0.001330  0.000747 -0.000884
    19 H     0.000372 -0.000500  0.000311
    20 H    -0.000436  0.000183 -0.000464
    21 H    -0.000536  0.000898  0.001051
    22 H     0.000058  0.000170  0.000263
    23 H     0.000465  0.000093 -0.000304
    24 H    -0.128411 -0.064409 -0.077756
    25 B     0.018258  0.065380 -0.121948
    26 F     0.000005 -0.077124  0.032144
    27 F    -0.019592 -0.037908  0.006785
    28 F     0.007900 -0.004178  0.030851
 ----------------------------------------
 Mulliken charges used for AMS results%charges...
 Rebuilding optimization coordinates

 dE(predicted):    -0.42659E-01, dE(actual):    -0.43019E-01, Trust radius:    1.000000, all in a.u.
 
----------------------------------------------------------------------
Geometry Convergence after Step  11       (Hartree/Angstrom,Angstrom)
----------------------------------------------------------------------
current energy                               -5.37222750 Hartree
energy change                      -0.04301865     0.00028000    F
constrained gradient max            0.12946623     0.00100000    F
constrained gradient rms            0.03849999     0.00066667    F
gradient max                        0.12946623
gradient rms                        0.03849999
cart. step max                      0.21158450     0.01000000    F
cart. step rms                      0.06522933     0.00666667    F
 
 
--------
Geometry
--------
Formula: C8H15BF3O
Atoms
  Index Symbol   x (angstrom)   y (angstrom)   z (angstrom)
      1      H     0.21998618    -1.71375100     0.15395428
      2      C    -0.88074485     0.03325257     0.78849307
      3      C     0.32123651    -0.61789497     0.21163358
      4      C     1.60369482    -0.16420797    -0.11719889
      5      O     2.47270920    -1.08668069    -0.35654472
      6      H    -0.74306032     1.11649143     0.74983185
      7      H    -1.71426497     0.15227320     2.81622834
      8      H     0.04224489     0.02327751     2.76956066
      9      C    -0.87987780    -0.33288129     2.30557827
     10      H    -0.94687180    -1.41087579     2.47590946
     11      C    -2.03857521     0.05229234    -1.48135667
     12      C    -2.21944234    -0.29574974     0.00827716
     13      C    -3.36290521     0.58722045     0.55312368
     14      C    -2.64655756    -1.77223760     0.12102664
     15      H    -2.86443576    -2.07294297     1.14916449
     16      H    -2.98142430    -0.11170890    -2.01419701
     17      H    -1.27301345    -0.56370369    -1.95953133
     18      H    -1.74542920     1.09379610    -1.62185798
     19      H    -4.26679252     0.42787872    -0.04429930
     20      H    -3.11131336     1.65032905     0.48474704
     21      H    -3.62346230     0.36145014     1.58993091
     22      H    -3.56002082    -1.93153875    -0.46053396
     23      H    -1.89611700    -2.45800960    -0.28528739
     24      H     1.75605785    -1.80367879    -0.94036806
     25      B     2.11875247     1.35814866     0.16552562
     26      F     1.92613165     1.42815669     1.49225039
     27      F     0.88344028     1.22205315    -1.39617302
     28      F     3.07997418     2.20779883    -0.19036292
 
Total System Charge             0.00000
 
 *** GOStep12 ***

 Energy gradients wrt nuclear displacements
 ==========================================

     Atom      Cartesian (a.u./angstrom)
                 X         Y         Z
 ----------------------------------------
     1 H    -0.004689 -0.002105  0.003779
     2 C    -0.005560 -0.010304 -0.008405
     3 C     0.037160  0.019998 -0.003895
     4 C     0.013265 -0.089746 -0.027988
     5 O     0.062506  0.145876  0.153190
     6 H     0.002333 -0.001184  0.005169
     7 H     0.001616  0.000291 -0.000264
     8 H     0.000750 -0.000072  0.000392
     9 C     0.003182  0.000892  0.002502
    10 H     0.000990 -0.000016  0.000210
    11 C     0.002605  0.000165  0.002865
    12 C     0.004202 -0.000846 -0.000175
    13 C    -0.001068 -0.000921 -0.001021
    14 C    -0.001570  0.001576 -0.000445
    15 H    -0.000957 -0.000135 -0.000817
    16 H    -0.000737  0.000317  0.000305
    17 H     0.000165  0.000166  0.000523
    18 H    -0.000754 -0.000449 -0.000036
    19 H    -0.000446 -0.000055 -0.000102
    20 H    -0.000300 -0.000407 -0.000989
    21 H    -0.001085  0.000187 -0.001365
    22 H     0.000048 -0.000034 -0.000162
    23 H     0.000080  0.000494 -0.000768
    24 H    -0.124519 -0.062298 -0.086186
    25 B    -0.000646  0.058308 -0.010964
    26 F     0.032369 -0.048112 -0.051185
    27 F    -0.023558 -0.022891 -0.017541
    28 F     0.004618  0.011306  0.043374
 ----------------------------------------
 Mulliken charges used for AMS results%charges...

 dE(predicted):    -0.18174E-01, dE(actual):    -0.20569E-01, Trust radius:    1.000000, all in a.u.
 
----------------------------------------------------------------------
Geometry Convergence after Step  12       (Hartree/Angstrom,Angstrom)
----------------------------------------------------------------------
current energy                               -5.39279621 Hartree
energy change                      -0.02056871     0.00028000    F
constrained gradient max            0.15316908     0.00100000    F
constrained gradient rms            0.03442587     0.00066667    F
gradient max                        0.15316908
gradient rms                        0.03442587
cart. step max                      0.08187917     0.01000000    F
cart. step rms                      0.02996745     0.00666667    F
 
 
--------
Geometry
--------
Formula: C8H15BF3O
Atoms
  Index Symbol   x (angstrom)   y (angstrom)   z (angstrom)
      1      H     0.22835708    -1.71328051     0.12482180
      2      C    -0.87937451     0.04096422     0.77940098
      3      C     0.32377793    -0.61954340     0.20289431
      4      C     1.61540587    -0.15746246    -0.11132373
      5      O     2.54881512    -1.07644621    -0.40863946
      6      H    -0.75049462     1.12522875     0.72735555
      7      H    -1.79614415     0.15428012     2.77098354
      8      H    -0.03838900     0.02456404     2.79626792
      9      C    -0.94027581    -0.32814460     2.29267635
     10      H    -1.01800586    -1.40660663     2.45502071
     11      C    -2.04110947     0.04944956    -1.49380421
     12      C    -2.21770408    -0.29347433    -0.00050981
     13      C    -3.33955692     0.59688219     0.57590164
     14      C    -2.62712337    -1.77352876     0.13874593
     15      H    -2.82228411    -2.06085625     1.17548483
     16      H    -2.98504485    -0.11399883    -2.02396814
     17      H    -1.27883222    -0.57013999    -1.97331872
     18      H    -1.74441890     1.08998746    -1.63898618
     19      H    -4.25997087     0.44726976     0.00233532
     20      H    -3.08007656     1.65828639     0.50740783
     21      H    -3.57144204     0.36912973     1.61965741
     22      H    -3.54853374    -1.95193821    -0.42429169
     23      H    -1.87460112    -2.45671081    -0.26799754
     24      H     1.81576936    -1.73776334    -0.95018612
     25      B     2.11285196     1.33590610     0.16121590
     26      F     1.89281451     1.37149883     1.53330483
     27      F     0.86596065     1.21703480    -1.34888052
     28      F     3.07954898     2.15796946    -0.25404452
 
Total System Charge             0.00000
 
 *** GOStep13 ***

 Energy gradients wrt nuclear displacements
 ==========================================

     Atom      Cartesian (a.u./angstrom)
                 X         Y         Z
 ----------------------------------------
     1 H    -0.001341 -0.001631  0.001618
     2 C    -0.002545 -0.006061 -0.005138
     3 C     0.011745  0.027271 -0.004948
     4 C    -0.030161 -0.035788 -0.008097
     5 O     0.139862  0.086880  0.117270
     6 H    -0.000730  0.000938  0.002462
     7 H    -0.001201  0.000523  0.001014
     8 H    -0.000041  0.000109 -0.000061
     9 C    -0.004117 -0.000206  0.000992
    10 H    -0.000354 -0.000630  0.000122
    11 C     0.005083  0.000381  0.000227
    12 C    -0.001888 -0.001056 -0.002457
    13 C     0.002009  0.000753  0.003167
    14 C     0.001356 -0.000219  0.001675
    15 H    -0.000124 -0.000393  0.000667
    16 H     0.000140  0.000258  0.000609
    17 H     0.000439  0.000422 -0.000289
    18 H     0.000001  0.000176 -0.000522
    19 H     0.000517 -0.000345  0.000111
    20 H    -0.000176 -0.000011 -0.000192
    21 H     0.000055  0.000226  0.001332
    22 H     0.000325  0.000295  0.000145
    23 H     0.000431  0.000076 -0.000176
    24 H    -0.128471 -0.045884 -0.069949
    25 B     0.004000  0.048402 -0.044747
    26 F     0.008671 -0.062215  0.003193
    27 F    -0.021224 -0.028184 -0.012519
    28 F     0.017740  0.015913  0.014491
 ----------------------------------------
 Mulliken charges used for AMS results%charges...

 dE(predicted):    -0.96012E-02, dE(actual):    -0.11588E-01, Trust radius:    1.000000, all in a.u.
 
----------------------------------------------------------------------
Geometry Convergence after Step  13       (Hartree/Angstrom,Angstrom)
----------------------------------------------------------------------
current energy                               -5.40438440 Hartree
energy change                      -0.01158819     0.00028000    F
constrained gradient max            0.13985726     0.00100000    F
constrained gradient rms            0.03050954     0.00066667    F
gradient max                        0.13985726
gradient rms                        0.03050954
cart. step max                      0.14619088     0.01000000    F
cart. step rms                      0.03651793     0.00666667    F
 
 
--------
Geometry
--------
Formula: C8H15BF3O
Atoms
  Index Symbol   x (angstrom)   y (angstrom)   z (angstrom)
      1      H     0.22263606    -1.72216149     0.04050102
      2      C    -0.87791645     0.02934664     0.77640698
      3      C     0.31251048    -0.63648927     0.17925328
      4      C     1.62093106    -0.16155710    -0.10265899
      5      O     2.54381550    -1.09126454    -0.52275563
      6      H    -0.74723137     1.11161440     0.69352766
      7      H    -1.78198433     0.16443123     2.76642841
      8      H    -0.02170444     0.05083373     2.78578790
      9      C    -0.92285405    -0.31685959     2.29292903
     10      H    -0.99165026    -1.39333005     2.47046302
     11      C    -2.03118845     0.01047304    -1.49502968
     12      C    -2.21640551    -0.30632416     0.00512320
     13      C    -3.33344819     0.60316091     0.55841947
     14      C    -2.64795565    -1.77824127     0.16472715
     15      H    -2.85106497    -2.04149676     1.20613477
     16      H    -2.96965061    -0.14966489    -2.03502310
     17      H    -1.27048803    -0.62617965    -1.95706230
     18      H    -1.71528399     1.04400050    -1.65138609
     19      H    -4.24717089     0.46930391    -0.02942557
     20      H    -3.05439675     1.65996546     0.49621557
     21      H    -3.58310276     0.37757157     1.59856937
     22      H    -3.56953489    -1.95390320    -0.39917277
     23      H    -1.90500241    -2.48172002    -0.22366260
     24      H     1.78269088    -1.66237203    -1.01419060
     25      B     2.11247417     1.31643715     0.24477613
     26      F     1.84248208     1.40899335     1.58087282
     27      F     0.89426518     1.34268978    -1.20268965
     28      F     3.07614784     2.11129943    -0.25955465
 
Total System Charge             0.00000
 
 *** GOStep14 ***

 Energy gradients wrt nuclear displacements
 ==========================================

     Atom      Cartesian (a.u./angstrom)
                 X         Y         Z
 ----------------------------------------
     1 H     0.003658 -0.000054 -0.000216
     2 C    -0.002590 -0.005025 -0.000540
     3 C    -0.012961  0.019375 -0.002829
     4 C    -0.039767 -0.002054 -0.008818
     5 O     0.157678  0.029047  0.075666
     6 H    -0.001599  0.001860 -0.000647
     7 H    -0.001122  0.000286  0.000590
     8 H     0.000059  0.000086 -0.000066
     9 C    -0.002371  0.000735  0.000933
    10 H    -0.000292 -0.000197  0.000004
    11 C     0.001115 -0.000052 -0.000677
    12 C     0.002492  0.000882  0.001700
    13 C     0.001066  0.000062  0.001330
    14 C     0.000774 -0.000340  0.000544
    15 H     0.000100  0.000154  0.000357
    16 H     0.000394  0.000219 -0.000213
    17 H     0.001152  0.000546  0.000111
    18 H     0.000731 -0.000135 -0.000023
    19 H     0.000306 -0.000066 -0.000043
    20 H     0.000103 -0.000087  0.000064
    21 H     0.000484 -0.000235  0.000887
    22 H     0.000144  0.000013 -0.000051
    23 H    -0.000270  0.000117  0.000097
    24 H    -0.117084 -0.016361 -0.041689
    25 B     0.007664  0.028606  0.006802
    26 F     0.003768 -0.056146 -0.002986
    27 F    -0.016314 -0.022386 -0.018937
    28 F     0.012682  0.021150 -0.011350
 ----------------------------------------
 Mulliken charges used for AMS results%charges...

 dE(predicted):    -0.11988E-01, dE(actual):    -0.19991E-01, Trust radius:    1.000000, all in a.u.
 
----------------------------------------------------------------------
Geometry Convergence after Step  14       (Hartree/Angstrom,Angstrom)
----------------------------------------------------------------------
current energy                               -5.42437535 Hartree
energy change                      -0.01999095     0.00028000    F
constrained gradient max            0.15767064     0.00100000    F
constrained gradient rms            0.02568174     0.00066667    F
gradient max                        0.15767064
gradient rms                        0.02568174
cart. step max                      0.20471374     0.01000000    F
cart. step rms                      0.04363321     0.00666667    F
 
 
--------
Geometry
--------
Formula: C8H15BF3O
Atoms
  Index Symbol   x (angstrom)   y (angstrom)   z (angstrom)
      1      H     0.21882986    -1.73653272    -0.02817937
      2      C    -0.87369365     0.01348715     0.77485957
      3      C     0.30424343    -0.66085073     0.16332499
      4      C     1.62586730    -0.17774673    -0.08562861
      5      O     2.49433902    -1.11507941    -0.65346627
      6      H    -0.73443898     1.09163748     0.66589066
      7      H    -1.78437010     0.16097935     2.75324473
      8      H    -0.02239716     0.05689824     2.78458252
      9      C    -0.91853216    -0.31930729     2.29103526
     10      H    -0.98479922    -1.39470131     2.47601798
     11      C    -2.01381447    -0.02212982    -1.49704559
     12      C    -2.21039045    -0.31876110     0.00857780
     13      C    -3.32004462     0.61005584     0.54379809
     14      C    -2.65754274    -1.78421752     0.18724849
     15      H    -2.86628336    -2.02603797     1.23279121
     16      H    -2.94699148    -0.17777502    -2.04606678
     17      H    -1.25723961    -0.67576595    -1.94549502
     18      H    -1.67979919     1.00492299    -1.66151151
     19      H    -4.22759416     0.49408014    -0.05685776
     20      H    -3.02154170     1.66206087     0.49074571
     21      H    -3.58649717     0.38486343     1.58013210
     22      H    -3.57871857    -1.96028947    -0.37718166
     23      H    -1.92114810    -2.50401586    -0.18336048
     24      H     1.71667889    -1.60601408    -1.05526103
     25      B     2.11751178     1.29589904     0.32444910
     26      F     1.79633013     1.55160295     1.58775766
     27      F     0.94207804     1.49508611    -0.99797590
     28      F     3.05987768     2.03620846    -0.30890169
 
Total System Charge             0.00000
 
 *** GOStep15 ***

 Energy gradients wrt nuclear displacements
 ==========================================

     Atom      Cartesian (a.u./angstrom)
                 X         Y         Z
 ----------------------------------------
     1 H     0.008531  0.001342 -0.001301
     2 C    -0.002374 -0.002075  0.003643
     3 C    -0.026630  0.006425 -0.005538
     4 C    -0.038248  0.024972 -0.011741
     5 O     0.120620 -0.036979  0.011874
     6 H    -0.002250  0.001893 -0.003947
     7 H    -0.001686  0.000061 -0.000113
     8 H    -0.000865 -0.000379 -0.000668
     9 C    -0.001194  0.001294  0.000345
    10 H    -0.000622 -0.000277 -0.000227
    11 C    -0.001766  0.000666 -0.001984
    12 C     0.005378  0.002188  0.005405
    13 C     0.000723  0.000251  0.000057
    14 C     0.001229 -0.000814  0.000260
    15 H     0.000517  0.000374  0.000577
    16 H     0.001066 -0.000131 -0.000478
    17 H     0.001859  0.000198 -0.000067
    18 H     0.001309 -0.000306  0.000182
    19 H     0.000395  0.000195 -0.000042
    20 H     0.000105  0.000058  0.000490
    21 H     0.000910 -0.000647  0.001032
    22 H     0.000159  0.000012 -0.000136
    23 H    -0.000591 -0.000231  0.000454
    24 H    -0.071777  0.025228  0.004214
    25 B     0.021767  0.000103  0.087040
    26 F     0.005097 -0.036291 -0.031585
    27 F     0.001825 -0.006478 -0.022628
    28 F    -0.023487  0.019349 -0.035118
 ----------------------------------------
 Mulliken charges used for AMS results%charges...

 dE(predicted):    -0.21906E-01, dE(actual):    -0.16761E-01, Trust radius:    1.000000, all in a.u.
 
----------------------------------------------------------------------
Geometry Convergence after Step  15       (Hartree/Angstrom,Angstrom)
----------------------------------------------------------------------
current energy                               -5.44113605 Hartree
energy change                      -0.01676069     0.00028000    F
constrained gradient max            0.12061180     0.00100000    F
constrained gradient rms            0.02132292     0.00066667    F
gradient max                        0.12061180
gradient rms                        0.02132292
cart. step max                      0.12627542     0.01000000    F
cart. step rms                      0.02580782     0.00666667    F
 
 
--------
Geometry
--------
Formula: C8H15BF3O
Atoms
  Index Symbol   x (angstrom)   y (angstrom)   z (angstrom)
      1      H     0.22951298    -1.75166585    -0.02184809
      2      C    -0.86952501     0.00093260     0.77020908
      3      C     0.31180370    -0.67600884     0.17010303
      4      C     1.63623567    -0.18754936    -0.06044288
      5      O     2.47449376    -1.11417002    -0.67463552
      6      H    -0.71718753     1.07590371     0.65939453
      7      H    -1.73455235     0.15245054     2.76761903
      8      H     0.02662042     0.05246888     2.75941325
      9      C    -0.87964366    -0.32768039     2.28702413
     10      H    -0.93802797    -1.40239668     2.47720386
     11      C    -2.03087974    -0.03188403    -1.49998110
     12      C    -2.21535003    -0.32425671     0.00781718
     13      C    -3.32645137     0.61122650     0.52947975
     14      C    -2.67920761    -1.78532298     0.17971001
     15      H    -2.89378075    -2.02947827     1.22323537
     16      H    -2.97190116    -0.17981991    -2.03775975
     17      H    -1.28813083    -0.69579068    -1.95658664
     18      H    -1.69065992     0.99248735    -1.66964246
     19      H    -4.22791648     0.49897795    -0.08114472
     20      H    -3.02187822     1.66149920     0.47759729
     21      H    -3.60766320     0.39010632     1.56231789
     22      H    -3.60065071    -1.94994253    -0.38784113
     23      H    -1.94882263    -2.51114077    -0.19152790
     24      H     1.70880561    -1.61071232    -1.03454526
     25      B     2.11404787     1.30114275     0.34514790
     26      F     1.75636464     1.67787837     1.56905912
     27      F     0.96734212     1.55441686    -0.90285070
     28      F     3.08692166     1.98688538    -0.29900108
 
Total System Charge             0.00000
 
 *** GOStep16 ***

 Energy gradients wrt nuclear displacements
 ==========================================

     Atom      Cartesian (a.u./angstrom)
                 X         Y         Z
 ----------------------------------------
     1 H     0.008897  0.001645 -0.000552
     2 C    -0.003115 -0.001546  0.004904
     3 C    -0.022560  0.001748 -0.004909
     4 C    -0.029556  0.028486 -0.014947
     5 O     0.085362 -0.053321 -0.009461
     6 H    -0.000220  0.000718 -0.003534
     7 H     0.000243 -0.000484 -0.000696
     8 H    -0.000368 -0.000569 -0.000143
     9 C     0.002349  0.001984 -0.001066
    10 H     0.000202  0.000394 -0.000273
    11 C    -0.005199  0.000504 -0.001437
    12 C     0.006628  0.002953  0.006233
    13 C    -0.001537 -0.000663 -0.002859
    14 C    -0.000838 -0.000286 -0.001381
    15 H     0.000266  0.000453 -0.000377
    16 H     0.000710 -0.000336 -0.000742
    17 H     0.001021 -0.000076  0.000031
    18 H     0.000924 -0.000312  0.000487
    19 H    -0.000185  0.000454 -0.000060
    20 H     0.000138 -0.000049  0.000318
    21 H     0.000302 -0.000507 -0.000525
    22 H    -0.000115 -0.000253 -0.000201
    23 H    -0.000636 -0.000096  0.000389
    24 H    -0.045813  0.038599  0.019606
    25 B     0.034385 -0.014948  0.097199
    26 F     0.004222 -0.019496 -0.031678
    27 F     0.005827 -0.001957 -0.022029
    28 F    -0.041331  0.016959 -0.032298
 ----------------------------------------
 Mulliken charges used for AMS results%charges...

 dE(predicted):    -0.53206E-02, dE(actual):    -0.86557E-02, Trust radius:    1.000000, all in a.u.
 
----------------------------------------------------------------------
Geometry Convergence after Step  16       (Hartree/Angstrom,Angstrom)
----------------------------------------------------------------------
current energy                               -5.44979174 Hartree
energy change                      -0.00865569     0.00028000    F
constrained gradient max            0.09719268     0.00100000    F
constrained gradient rms            0.01974162     0.00066667    F
gradient max                        0.09719268
gradient rms                        0.01974162
cart. step max                      0.21151988     0.01000000    F
cart. step rms                      0.03673041     0.00666667    F
 
 
--------
Geometry
--------
Formula: C8H15BF3O
Atoms
  Index Symbol   x (angstrom)   y (angstrom)   z (angstrom)
      1      H     0.22779780    -1.76973022     0.00123809
      2      C    -0.86731920    -0.00670520     0.75621619
      3      C     0.31813142    -0.69080316     0.17567189
      4      C     1.64663199    -0.20563571    -0.03214056
      5      O     2.43507403    -1.10515644    -0.68707441
      6      H    -0.70153064     1.06515714     0.65392150
      7      H    -1.70630333     0.14015851     2.76600071
      8      H     0.05260886     0.03975910     2.73426219
      9      C    -0.85979369    -0.34083310     2.27247294
     10      H    -0.91572718    -1.41566902     2.46267488
     11      C    -2.05394510    -0.03240215    -1.50752308
     12      C    -2.22319652    -0.32941026     0.00025848
     13      C    -3.32997008     0.60737215     0.53101063
     14      C    -2.68493670    -1.79141419     0.16833662
     15      H    -2.89150961    -2.04379476     1.21146731
     16      H    -3.00617487    -0.17158975    -2.02797684
     17      H    -1.32807861    -0.70351303    -1.97994372
     18      H    -1.71382053     0.99187386    -1.67968478
     19      H    -4.23524432     0.49468112    -0.07392669
     20      H    -3.02507469     1.65732619     0.47551729
     21      H    -3.60721634     0.38907577     1.56523948
     22      H    -3.61040736    -1.95408704    -0.39303463
     23      H    -1.95482243    -2.51266516    -0.21352972
     24      H     1.70007081    -1.65219686    -0.99755750
     25      B     2.10446128     1.31800334     0.34109737
     26      F     1.70840402     1.88939824     1.49272704
     27      F     1.01028332     1.63216067    -0.79926352
     28      F     3.18152691     1.87919702    -0.24893298
 
Total System Charge             0.00000
 
 *** GOStep17 ***

 Energy gradients wrt nuclear displacements
 ==========================================

     Atom      Cartesian (a.u./angstrom)
                 X         Y         Z
 ----------------------------------------
     1 H     0.007010  0.000955  0.001250
     2 C    -0.003223  0.001701  0.003650
     3 C    -0.009879 -0.002630 -0.008808
     4 C    -0.005631  0.017972 -0.023673
     5 O     0.036614 -0.049503 -0.016027
     6 H     0.001603 -0.001191 -0.002057
     7 H     0.001326 -0.000816 -0.000875
     8 H    -0.000049 -0.000579  0.000032
     9 C     0.003008  0.001415 -0.003416
    10 H     0.000464  0.000441 -0.000167
    11 C    -0.004528  0.000464 -0.001015
    12 C     0.003265  0.001666  0.003397
    13 C    -0.002107 -0.000416 -0.002763
    14 C    -0.001592 -0.000223 -0.001651
    15 H     0.000101  0.000154 -0.000621
    16 H     0.000271 -0.000567 -0.000154
    17 H    -0.000228 -0.000438 -0.000273
    18 H     0.000045 -0.000094  0.000400
    19 H    -0.000239  0.000366 -0.000009
    20 H     0.000061  0.000033  0.000249
    21 H    -0.000310 -0.000048 -0.001061
    22 H    -0.000179 -0.000242 -0.000051
    23 H    -0.000002 -0.000109  0.000269
    24 H    -0.025016  0.042495  0.025874
    25 B     0.046684 -0.037061  0.088519
    26 F     0.001219  0.008493 -0.032752
    27 F     0.000551  0.000329 -0.011090
    28 F    -0.049237  0.017436 -0.017176
 ----------------------------------------
 Mulliken charges used for AMS results%charges...

 dE(predicted):    -0.16123E-01, dE(actual):    -0.13843E-01, Trust radius:    1.000000, all in a.u.
 
----------------------------------------------------------------------
Geometry Convergence after Step  17       (Hartree/Angstrom,Angstrom)
----------------------------------------------------------------------
current energy                               -5.46363429 Hartree
energy change                      -0.01384255     0.00028000    F
constrained gradient max            0.08850379     0.00100000    F
constrained gradient rms            0.01694114     0.00066667    F
gradient max                        0.08850379
gradient rms                        0.01694114
cart. step max                      0.21169140     0.01000000    F
cart. step rms                      0.04420728     0.00666667    F
 
 
--------
Geometry
--------
Formula: C8H15BF3O
Atoms
  Index Symbol   x (angstrom)   y (angstrom)   z (angstrom)
      1      H     0.21933676    -1.78903406     0.04899250
      2      C    -0.86364372    -0.01485626     0.74441586
      3      C     0.32628058    -0.70379072     0.18382933
      4      C     1.65316272    -0.22118360    -0.00702508
      5      O     2.42116938    -1.06148030    -0.66955519
      6      H    -0.68739366     1.05531943     0.66138938
      7      H    -1.65992053     0.12666965     2.77658328
      8      H     0.09476599     0.02648582     2.70629713
      9      C    -0.82721191    -0.35617853     2.26239852
     10      H    -0.87776661    -1.43089725     2.45400242
     11      C    -2.08335466    -0.02204758    -1.50951004
     12      C    -2.23361174    -0.33293319    -0.00523406
     13      C    -3.33890106     0.59991019     0.53644946
     14      C    -2.69829242    -1.79490885     0.14663097
     15      H    -2.89857459    -2.06532082     1.18624603
     16      H    -3.04991870    -0.14275558    -2.00916947
     17      H    -1.38041087    -0.70013050    -2.00381307
     18      H    -1.74056512     1.00202458    -1.67863671
     19      H    -4.24920806     0.48033855    -0.06006261
     20      H    -3.03917116     1.65070971     0.47258106
     21      H    -3.60877099     0.38556198     1.57285612
     22      H    -3.62841295    -1.94644975    -0.41010454
     23      H    -1.97161361    -2.50946971    -0.25473779
     24      H     1.75653828    -1.71766501    -0.94631505
     25      B     2.06578526     1.35412451     0.29006728
     26      F     1.62878087     2.10108965     1.37453889
     27      F     1.04667234     1.67792339    -0.76538730
     28      F     3.29416942     1.72750133    -0.13020317
 
Total System Charge             0.00000
 
 *** GOStep18 ***

 Energy gradients wrt nuclear displacements
 ==========================================

     Atom      Cartesian (a.u./angstrom)
                 X         Y         Z
 ----------------------------------------
     1 H     0.001718 -0.000000  0.004155
     2 C    -0.002025  0.002820  0.000335
     3 C     0.007363  0.003332 -0.011811
     4 C     0.034335 -0.016357 -0.040290
     5 O    -0.002959 -0.001407  0.006668
     6 H     0.003781 -0.003423  0.000697
     7 H     0.002897 -0.001011 -0.000727
     8 H     0.000872 -0.000222  0.000725
     9 C     0.003936  0.000522 -0.004523
    10 H     0.001038  0.000753  0.000105
    11 C    -0.003296 -0.000463  0.000847
    12 C     0.000054 -0.000396 -0.000560
    13 C    -0.002917 -0.000877 -0.003157
    14 C    -0.003401  0.000625 -0.002136
    15 H    -0.000398 -0.000061 -0.001306
    16 H    -0.000750 -0.000402  0.000267
    17 H    -0.002006 -0.000550  0.000090
    18 H    -0.000996  0.000327  0.000466
    19 H    -0.000665  0.000228 -0.000065
    20 H     0.000089 -0.000146 -0.000209
    21 H    -0.001062  0.000370 -0.002149
    22 H    -0.000321 -0.000359  0.000046
    23 H     0.000455  0.000261 -0.000165
    24 H    -0.026295  0.024744  0.017718
    25 B     0.043690 -0.050679  0.037624
    26 F    -0.009243  0.034810 -0.024881
    27 F    -0.009714 -0.004109  0.021307
    28 F    -0.034178  0.011670  0.000928
 ----------------------------------------
 Mulliken charges used for AMS results%charges...
 Rebuilding optimization coordinates

 dE(predicted):    -0.10283E-01, dE(actual):    -0.10956E-01, Trust radius:    1.000000, all in a.u.
 
----------------------------------------------------------------------
Geometry Convergence after Step  18       (Hartree/Angstrom,Angstrom)
----------------------------------------------------------------------
current energy                               -5.47459021 Hartree
energy change                      -0.01095592     0.00028000    F
constrained gradient max            0.05070309     0.00100000    F
constrained gradient rms            0.01327285     0.00066667    F
gradient max                        0.05070309
gradient rms                        0.01327285
[...]
     5     O      -0.000058  -0.000040   0.000008
     6     H       0.003271   0.023709  -0.001579
     7     H       0.001708  -0.000521  -0.001429
     8     H      -0.013100  -0.005057  -0.006962
     9     C       0.000942   0.000118   0.000806
    10     H       0.000498   0.003341  -0.001047
    11     C      -0.070497   0.038032  -0.006415
    12     C      -0.000502   0.000569  -0.000166
    13     C       0.006909   0.005459   0.008618
    14     C       0.040140  -0.012948   0.004634
    15     H       0.010552  -0.005013   0.007669
    16     H       0.530437   0.067098   0.307939
    17     H       0.386969  -0.375186  -0.251038
    18     H      -0.076692  -0.146340   0.017285
    19     H      -0.075265  -0.008376  -0.052752
    20     H      -0.021884  -0.073367   0.004944
    21     H       0.016558   0.014894  -0.053291
    22     H      -0.284667  -0.040832  -0.181394
    23     H      -0.204454   0.197721   0.118729
    24     H       0.000232   0.001043   0.000321
    25     B       0.000075   0.000081   0.000055
    26     F      -0.000006  -0.000018  -0.000026
    27     F       0.000006  -0.000023  -0.000005
    28     F      -0.000020  -0.000012   0.000000
 
 Mode:    76      Frequency (cm-1):     3066.5513     Intensity (km/mol):       21.0839
 Index  Atom      ---- Displacements (x/y/z) ----
     1     H       0.001879   0.032398   0.002126
     2     C       0.001544   0.011962  -0.000841
     3     C      -0.000056  -0.002581  -0.000303
     4     C       0.000059   0.000025  -0.000012
     5     O      -0.000017  -0.000020   0.000013
     6     H      -0.022107  -0.143611   0.010957
     7     H       0.009873  -0.006388  -0.004698
     8     H       0.021959   0.009301   0.011418
     9     C      -0.002580   0.001134  -0.000790
    10     H      -0.002355  -0.015724   0.002475
    11     C       0.022321  -0.009450   0.002046
    12     C       0.000870  -0.000574  -0.000220
    13     C      -0.036622  -0.027301  -0.038104
    14     C       0.059487  -0.019132   0.014521
    15     H       0.027217   0.010784  -0.060312
    16     H      -0.165947  -0.019953  -0.096318
    17     H      -0.115056   0.112803   0.076543
    18     H       0.013410   0.020659  -0.002827
    19     H       0.398924   0.045281   0.270277
    20     H       0.100411   0.339551  -0.027571
    21     H      -0.064494  -0.058114   0.212574
    22     H      -0.450741  -0.064963  -0.283439
    23     H      -0.289144   0.283645   0.170739
    24     H      -0.000403   0.000774   0.000276
    25     B      -0.000001  -0.000120  -0.000039
    26     F       0.000020   0.000032   0.000027
    27     F       0.000013   0.000052  -0.000017
    28     F       0.000008   0.000017   0.000001
 
 Mode:    77      Frequency (cm-1):     3070.9388     Intensity (km/mol):       42.7772
 Index  Atom      ---- Displacements (x/y/z) ----
     1     H       0.002557   0.034197   0.002257
     2     C      -0.000233   0.003359  -0.000545
     3     C      -0.000148  -0.002881  -0.000220
     4     C       0.000120  -0.000010   0.000065
     5     O      -0.000016  -0.000015  -0.000027
     6     H      -0.008338  -0.042928   0.003032
     7     H      -0.034155   0.020838   0.017699
     8     H       0.005747   0.000237   0.002620
     9     C       0.002057  -0.005221  -0.001225
    10     H       0.004923   0.041325  -0.007158
    11     C       0.025462  -0.027037   0.000773
    12     C       0.002807   0.000029   0.000761
    13     C       0.041919   0.030034   0.041388
    14     C       0.047204  -0.015411  -0.006400
    15     H      -0.010012  -0.031632   0.114088
    16     H      -0.187610  -0.026541  -0.112327
    17     H      -0.192253   0.179944   0.122666
    18     H       0.070180   0.169470  -0.019813
    19     H      -0.468140  -0.050369  -0.314252
    20     H      -0.107596  -0.365497   0.029476
    21     H       0.065535   0.059219  -0.210612
    22     H      -0.291729  -0.045543  -0.189545
    23     H      -0.267558   0.260531   0.150220
    24     H      -0.000421   0.000836   0.000500
    25     B      -0.000037  -0.000080   0.000006
    26     F       0.000016   0.000016   0.000004
    27     F      -0.000014   0.000026  -0.000022
    28     F       0.000019   0.000016  -0.000005
 
 Mode:    78      Frequency (cm-1):     3074.9418     Intensity (km/mol):        8.3405
 Index  Atom      ---- Displacements (x/y/z) ----
     1     H       0.005837   0.106677   0.009644
     2     C      -0.010491  -0.067404   0.004679
     3     C      -0.000891  -0.009187  -0.000381
     4     C       0.000075  -0.000338  -0.000106
     5     O       0.000069   0.000029  -0.000050
     6     H       0.130942   0.803714  -0.060314
     7     H       0.197115  -0.112239  -0.101311
     8     H      -0.114442  -0.033147  -0.051960
     9     C      -0.004546   0.033750   0.009588
    10     H      -0.026933  -0.256464   0.039280
    11     C       0.008721   0.001055   0.001862
    12     C      -0.000003  -0.000140   0.000106
    13     C       0.008163   0.017377  -0.018791
    14     C       0.007138  -0.000375   0.024760
    15     H       0.041071   0.049911  -0.200237
    16     H      -0.072772  -0.006350  -0.042486
    17     H      -0.022925   0.024129   0.016034
    18     H      -0.009135  -0.029049   0.002812
    19     H       0.009277   0.006834   0.000081
    20     H      -0.053227  -0.162844   0.004042
    21     H      -0.053453  -0.048522   0.218138
    22     H      -0.149914  -0.019475  -0.086380
    23     H       0.026288  -0.023387  -0.007342
    24     H      -0.001006   0.001515   0.000792
    25     B       0.000017   0.000240  -0.000017
    26     F      -0.000146  -0.000054  -0.000027
    27     F      -0.000133  -0.000128   0.000109
    28     F       0.000002  -0.000008   0.000003
 
 Mode:    79      Frequency (cm-1):     3080.9732     Intensity (km/mol):        8.8891
 Index  Atom      ---- Displacements (x/y/z) ----
     1     H      -0.004340  -0.078130  -0.006631
     2     C       0.004628   0.030796  -0.002341
     3     C       0.000428   0.006500   0.000418
     4     C      -0.000077   0.000160   0.000113
     5     O       0.000002   0.000005  -0.000004
     6     H      -0.060817  -0.367618   0.027863
     7     H       0.017813  -0.011623  -0.010658
     8     H       0.016120   0.007145   0.007400
     9     C      -0.002739   0.000756   0.000140
    10     H      -0.000363  -0.002347   0.001954
    11     C      -0.009774  -0.014895  -0.003369
    12     C       0.000210   0.000949   0.000931
    13     C       0.017238   0.029949  -0.019963
    14     C      -0.010731   0.005434   0.072175
    15     H       0.124128   0.164167  -0.645631
    16     H       0.081826   0.006068   0.045999
    17     H      -0.020095   0.014138   0.009054
    18     H       0.055100   0.154929  -0.017574
    19     H      -0.046582   0.000835  -0.040026
    20     H      -0.094893  -0.304126   0.010193
    21     H      -0.061593  -0.057677   0.265906
    22     H      -0.220412  -0.026151  -0.114334
    23     H       0.221044  -0.208583  -0.104797
    24     H       0.000632  -0.001558  -0.000494
    25     B      -0.000040  -0.000093   0.000068
    26     F       0.000081   0.000019  -0.000013
    27     F       0.000047   0.000047  -0.000068
    28     F       0.000006   0.000000  -0.000008
 
 Mode:    80      Frequency (cm-1):     3084.4711     Intensity (km/mol):       36.3135
 Index  Atom      ---- Displacements (x/y/z) ----
     1     H       0.000362  -0.001193  -0.000589
     2     C       0.001466   0.008297  -0.000533
     3     C       0.000060   0.000085  -0.000051
     4     C       0.000024   0.000041  -0.000020
     5     O      -0.000018  -0.000007   0.000024
     6     H      -0.016885  -0.099291   0.007197
     7     H       0.021606  -0.015792  -0.012882
     8     H       0.116005   0.045428   0.059617
     9     C      -0.011807  -0.002179  -0.003947
    10     H      -0.003053  -0.003480   0.000664
    11     C      -0.009885  -0.011219  -0.002991
    12     C      -0.000062   0.000685  -0.001926
    13     C       0.015854   0.045162  -0.059244
    14     C       0.001809  -0.001765  -0.046352
    15     H      -0.080794  -0.107179   0.415467
    16     H       0.090218   0.007073   0.052741
    17     H      -0.012584   0.006143   0.005364
    18     H       0.040573   0.117810  -0.013545
    19     H       0.109229   0.024351   0.055072
    20     H      -0.134427  -0.421794   0.008407
    21     H      -0.159951  -0.143634   0.649214
    22     H       0.171850   0.021195   0.091996
    23     H      -0.111908   0.104875   0.050980
    24     H      -0.000059   0.000170  -0.000212
    25     B      -0.000024  -0.000002  -0.000083
    26     F       0.000005  -0.000002   0.000043
    27     F       0.000027  -0.000006   0.000005
    28     F       0.000001  -0.000001   0.000008
 
 Mode:    81      Frequency (cm-1):     3088.9371     Intensity (km/mol):       12.0878
 Index  Atom      ---- Displacements (x/y/z) ----
     1     H      -0.001148  -0.023949  -0.002444
     2     C       0.001377   0.009245  -0.000787
     3     C       0.000040   0.002086   0.000236
     4     C      -0.000039   0.000078  -0.000007
     5     O       0.000014  -0.000012  -0.000002
     6     H      -0.020562  -0.114466   0.007021
     7     H      -0.035218   0.019008   0.017594
     8     H       0.054729   0.018985   0.026924
     9     C      -0.002270  -0.008806  -0.002904
    10     H       0.006402   0.066767  -0.010087
    11     C       0.043428   0.074923   0.016072
    12     C       0.001107   0.001719   0.000405
    13     C       0.011881   0.017271  -0.006714
    14     C       0.002425  -0.000707   0.004944
    15     H       0.007427   0.008490  -0.035869
    16     H      -0.381136  -0.024299  -0.215436
    17     H       0.135742  -0.102107  -0.073673
    18     H      -0.275895  -0.770644   0.095171
    19     H      -0.060394  -0.002919  -0.044660
    20     H      -0.055221  -0.182831   0.006768
    21     H      -0.027053  -0.024778   0.117527
    22     H      -0.042345  -0.006886  -0.024168
    23     H       0.001660  -0.001492   0.001183
    24     H       0.000101  -0.000351  -0.000177
    25     B      -0.000115   0.000023  -0.000067
    26     F       0.000027   0.000002   0.000023
    27     F       0.000157   0.000032   0.000041
    28     F       0.000027  -0.000002  -0.000001
 
 Mode:    82      Frequency (cm-1):     3100.0784     Intensity (km/mol):        9.0686
 Index  Atom      ---- Displacements (x/y/z) ----
     1     H       0.000863   0.043663   0.004418
     2     C      -0.003331  -0.027664   0.002268
     3     C      -0.000332  -0.003439  -0.000365
     4     C       0.000049  -0.000079  -0.000215
     5     O      -0.000010  -0.000018   0.000053
     6     H       0.051752   0.319453  -0.025978
     7     H      -0.536317   0.316098   0.286407
     8     H      -0.007761  -0.025602  -0.012739
     9     C       0.039317  -0.074367  -0.014596
    10     H       0.068359   0.601713  -0.100213
    11     C      -0.001936  -0.005031  -0.000833
    12     C      -0.000197  -0.000274  -0.000213
    13     C       0.000100   0.003912  -0.012005
    14     C       0.000088  -0.000460   0.010420
    15     H       0.019660   0.024737  -0.101110
    16     H       0.017032   0.001205   0.009555
    17     H      -0.011659   0.009635   0.006528
    18     H       0.017824   0.049837  -0.006526
    19     H       0.040299   0.006921   0.024570
    20     H      -0.008890  -0.022931  -0.001617
    21     H      -0.029583  -0.028830   0.125073
    22     H      -0.035447  -0.003490  -0.020067
    23     H       0.014595  -0.013773  -0.004996
    24     H      -0.000211   0.001228   0.000298
    25     B       0.000089   0.000034  -0.000067
    26     F      -0.000080  -0.000014   0.000013
    27     F      -0.000075  -0.000048   0.000047
    28     F      -0.000018   0.000002   0.000009
 
 Mode:    83      Frequency (cm-1):     3104.8585     Intensity (km/mol):        4.6470
 Index  Atom      ---- Displacements (x/y/z) ----
     1     H       0.000171   0.020066   0.002191
     2     C      -0.002495  -0.012144   0.000581
     3     C      -0.000012  -0.001633  -0.000016
     4     C       0.000026  -0.000070   0.000057
     5     O       0.000021   0.000012  -0.000036
     6     H       0.024827   0.144149  -0.012190
     7     H       0.260941  -0.181994  -0.152045
     8     H       0.710547   0.273567   0.361346
     9     C      -0.082364  -0.036176  -0.012958
    10     H       0.016092   0.339707  -0.055522
    11     C      -0.001679  -0.002339  -0.000606
    12     C      -0.000109  -0.000246   0.000650
    13     C      -0.001837  -0.004809   0.006689
    14     C      -0.000496  -0.000014   0.007211
    15     H       0.013538   0.018186  -0.069196
    16     H       0.014869   0.001217   0.008362
    17     H      -0.002960   0.002066   0.001579
    18     H       0.009155   0.025824  -0.003670
    19     H      -0.010278  -0.002386  -0.005087
    20     H       0.013425   0.043823  -0.000894
    21     H       0.018253   0.016573  -0.076688
    22     H      -0.021443  -0.002210  -0.011795
    23     H       0.014351  -0.013610  -0.006527
    24     H      -0.000199   0.000167   0.000132
    25     B       0.000052  -0.000016  -0.000132
    26     F      -0.000107  -0.000057   0.000107
    27     F      -0.000030  -0.000018   0.000032
    28     F      -0.000016   0.000003   0.000014
 
 Mode:    84      Frequency (cm-1):     3554.8423     Intensity (km/mol):       10.2650
 Index  Atom      ---- Displacements (x/y/z) ----
     1     H       0.006335  -0.013252  -0.005198
     2     C      -0.000292  -0.000331   0.000181
     3     C      -0.000100   0.002915   0.000424
     4     C      -0.000291  -0.004854  -0.000632
     5     O      -0.020877  -0.057609  -0.003974
     6     H       0.000227   0.000008  -0.000336
     7     H       0.000217  -0.000371   0.000661
     8     H       0.000283  -0.000046   0.000299
     9     C      -0.000098   0.000169  -0.000099
    10     H      -0.000064  -0.000555   0.000163
    11     C       0.000008  -0.000060   0.000005
    12     C       0.000143   0.000128   0.000051
    13     C      -0.000061  -0.000033  -0.000033
    14     C      -0.000048   0.000054   0.000021
    15     H       0.000022  -0.000020   0.000055
    16     H      -0.000258  -0.000014  -0.000293
    17     H      -0.000309   0.000468   0.000082
    18     H       0.000023   0.000007   0.000039
    19     H      -0.000116   0.000174   0.000097
    20     H       0.000077   0.000053   0.000012
    21     H       0.000080   0.000027   0.000034
    22     H      -0.000019  -0.000181  -0.000078
    23     H       0.000423  -0.000487  -0.000320
    24     H       0.327308   0.940152   0.070220
    25     B       0.000418   0.001810  -0.000115
    26     F       0.000002  -0.000199  -0.000190
    27     F       0.000129  -0.000193   0.000144
    28     F      -0.000060  -0.000005   0.000039

PES point character: Geometry corresponds to a local minimum on the PES.




 ============================
 Statistical Thermal Analysis  ***  ideal gas assumed  ***
 ============================
  
 Pressure:                  1.000000 atm.
 Temperature:             298.150000 K



 Moments of Inertia [amu*bohr^2] and principal axis
 ==================================================

        1456.4718       4131.0100       4241.6234
 ------------------------------------------------
          -0.9393          0.2950         -0.1750
          -0.3339         -0.9031          0.2702
           0.0784         -0.3122         -0.9468


 The rotational contribution to the molecular entropy includes
 a term, dependent on the symmetry number sigma. The results 
 reported below were computed using sigma = 1, determined from
 the point group symmetry of the input geometry (NOSYM). 
 If this is not the correct symmetry, try symmetrizing the molecule before
 running the calculation (note: linear molecules should be aligned along one
 of the Cartesian axes).
 Contributions from frequencies below 20 1/cm are not included in vibrational sums.
 Their contributions, if any, are reported separately.


     Temp                                                        Transl      Rotat     Vibrat     Total
     ----                                                        ------      -----     ------     -----

     298.15   Entropy (cal/mol-K):                               41.711     31.612     55.293    128.616
              Nuclear Internal Energy (kcal/mol):                 0.889      0.889    147.765    149.543
              Constant Volume Heat Capacity (cal/mol-K):          2.981      2.981     52.780     58.742
          (c) Constant Volume Heat Capacity (cal/mol-K):          2.981      2.981     48.068     54.030

       Summary of energy terms
                                                   hartree              eV         kcal/mol           kJ/mol
                                      --------------------     -----------       ----------      -----------
      Energy from Engine:               -5.498660706404598       -149.6262         -3450.46        -14436.73
      Nuclear Internal Energy:           0.238311213062967          6.4848           149.54           625.69
  (c) Nuclear Internal Energy:           0.235934222613753          6.4201           148.05           619.45
      Internal Energy U:                -5.260349493341631       -143.1414         -3300.92        -13811.05
      pV/n = RT:                         0.000944186013486          0.0257             0.59             2.48
      Enthalpy H:                       -5.259405307328145       -143.1157         -3300.33        -13808.57
      -T*S:                             -0.061109661764789         -1.6629           -38.35          -160.44
  (c) -T*S:                             -0.058171415788051         -1.5829           -36.50          -152.73
      Gibbs free energy:                -5.320514969092934       -144.7786         -3338.67        -13969.01
 
 
 
  (c) The properties marked with this symbol have been corrected using 'low vibrational frequency free rotor
      interpolation corrections'. For those terms all positive frequencies are used (also ones below 20 1/cm),
      but the contribution to the partition function of small vibrational frequencies is modified as described
      in the following paper:
      S. Grimme, 'Supramolecular Binding Thermodynamics by Dispersion-Corrected Density Functional Theory'
      (Chem. Eur. J. 2012, 18, 9955-9964)
      Configuration: Dampener Frequency          :   100.000 1/cm
                     Dampener Alpha              :     4.000
                     Averaging Moment of Inertia : 1.000E-44 kg m2

--------------
Atomic charges
--------------
  Index   Atom    Charge
      1      H   -0.2046
      2      C    0.2057
      3      C    0.2730
      4      C    0.3558
      5      O   -0.2867
      6      H   -0.1102
      7      H   -0.2221
      8      H   -0.1972
      9      C    0.6802
     10      H   -0.2310
     11      C    0.7501
     12      C   -0.0561
     13      C    0.7561
     14      C    0.7505
     15      H   -0.2424
     16      H   -0.2476
     17      H   -0.2515
     18      H   -0.2062
     19      H   -0.2419
     20      H   -0.2418
     21      H   -0.2455
     22      H   -0.2333
     23      H   -0.2643
     24      H    0.1498
     25      B    1.1991
     26      F   -0.5463
     27      F   -0.5446
     28      F   -0.5467


Dipole moment vector    (Debye):    -5.23410242   -7.37476924    0.36521837
              magnitude (Debye):     9.05076980


Final PES point is a local minimum. Geometry optimization successful!


AMS application finished. Exiting.
NORMAL TERMINATION
     Total cpu time:  235325.95
  Total system time:     797.92
 Total elapsed time:  363491.97
