

 Parallel Execution: Process Information
 ==============================================================================
 Rank   Node Name                              NodeID   MyNodeRank  NodeMaster
    0   node120                                   0          0          0
    1   node120                                   0          1         -1
    2   node120                                   0          2         -1
    3   node120                                   0          3         -1
 ==============================================================================


May use up to 122928MB of RAM as shared memory on node 0

 *******************************************************************************
 *                                                                             *
 *  --------------------------------                                           *
 *   Amsterdam Modeling Suite (AMS)              2021.102                      *
 *  --------------------------------                                           *
 *                                               r95042 2021-06-07             *
 *                                                                             *
 *                                                                             *
 *                              =================                              *
 *                              |               |                              *
 *                              |     A M S     |                              *
 *                              |               |                              *
 *                              =================                              *
 *                                                                             *
 *                                                                             *
 *   Online information and documentation:  https://www.scm.com/support/       *
 *   E-mail:  support@scm.com   info@scm.com                                   *
 *                                                                             *
 *   Scientific publications using AMS results must be properly referenced     *
 *   See the User Manuals (or the web site) for recommended citations          *
 *   The terms and conditions of the End User License Agreement apply to       *
 *   the use of AMS, https://www.scm.com/license-terms/                        *
 *                                                                             *
 **********************  x86_64_linux_intel / intelmpi  ************************
 
 Licensed to: VU/FEW (+ SARA) / ALGEMEEN / Amsterdam / THE NETHERLANDS
 SCM User ID: u7668
  
 AMS 2021.102  RunTime: Jan27-2022 12:37:42  ShM Nodes: 1  Procs: 4

 AMS jobname: 24.achiral_catalyst.H_Ph_BF3.TS
 AMS jobid  : 26572784

 Start   directory: /scistor/tc/yhk800/MasterProject/calculations/achiral_catalyst_H_Ph_BF3/24.achiral_catalyst.H_Ph_BF3.TS/
 Results directory: /scistor/tc/yhk800/MasterProject/calculations/achiral_catalyst_H_Ph_BF3/24.achiral_catalyst.H_Ph_BF3.TS/
 Scratch directory: /scratch/5298/amstmp_24.achiral_catalyst.H_Ph_BF3.TS_kid0.26572784/


 Communication costs MPI_COMM_WORLD:      1.246 usec per message,   0.0066 usec per 8-byte item
 Communication costs for intra-node:      0.865 usec per message,   0.0071 usec per 8-byte item

 RNG seed: 864739066 193411943 1559106216 1721526526 635625731 2073347630 -1911067241 706455292



                      ************************************************************************
                      *  ADF 2021.102  RunTime: Jan27-2022 12:37:44  ShM Nodes: 1  Procs: 4  *
                      ************************************************************************
  
       *****************************
       *  TRANSITION STATE SEARCH  *
       *****************************

Optimization Method                    Quasi Newton
Optimization Coordinates               Delocalized Coordinates
Optimize lattice                       F
 
 ------------------------------------------------------
 Convergence criteria (Hartree,Angstrom)
 ------------------------------------------------------
 Maximum gradient               0.001000000000
 Maximum rms gradient           0.000666666667
 Maximum step allowed           0.010000000000
 Maximum rms step allowed       0.006666666667
 Maximum energy change allowe   0.000260000000
 Maximum stress energy allowe   0.000500000000
 
Initial model Hessian                  Automatic Hessian
 
------------------------------------
Quasi-Newton Optimizer Parameters
------------------------------------
Hessian Update Method                  Bofill
Maximum number of steps                  250
First GDIIS cycle                          0
Maximum GDIIS vectors                      0
Trust radius (bohr)                        0.200000
Trust radius varies                        F
Constraints converged at all steps         T
Use projector                              T
 
 Rigid motions settings for: old optimizer
 Atomic rotations (x,y,z):     T T T
 Atomic translations (x,y,z):  T T T
 Tolerance:                   1.000000000000000E-006
 
           1  TSRC entries:
    i   type      a1    a2    a3    a4    coef
    1 Distance     2    10               -1.000
 
--------
Geometry
--------
Formula: C10H11BF3O
Atoms
  Index Symbol   x (angstrom)   y (angstrom)   z (angstrom)
      1      H     0.19369716    -1.85361092    -0.24516176
      2      C    -0.92057816    -0.12292898     0.28183759
      3      C     0.21368396    -0.77846351    -0.06958517
      4      C     1.52168394    -0.13059856    -0.22805405
      5      O     2.57084417    -0.68022178    -0.54313771
      6      H    -0.93117356     0.95749943     0.37346659
      7      H    -1.16677948    -1.14795174     3.01281369
      8      H    -2.10496465     0.45730942     2.86041604
      9      H    -0.24714630     0.47546451     3.02589233
     10      C    -1.16197426    -0.07675120     2.85297480
     11      C    -4.74611209    -2.17290540     0.36190353
     12      C    -4.64303884    -0.90540134    -0.22468614
     13      C    -3.40885292    -0.24404214    -0.25051686
     14      C    -2.27774025    -0.85018701     0.31024211
     15      C    -2.38081349    -2.11769108     0.89683179
     16      C    -3.61499942    -2.77905027     0.92266250
     17      H    -5.50859650    -0.44156308    -0.65379390
     18      H    -3.32997851     0.72588585    -0.69939096
     19      H    -1.51525584    -2.58152934     1.32593954
     20      H    -3.69387383    -3.74897827     1.37153661
     21      H    -5.69054416    -2.67899514     0.38166988
     22      H     1.51741535     0.92352060    -0.04443873
     23      B     3.93691787     0.31396217    -0.73139533
     24      F     3.73092324     0.82255335     0.45968178
     25      F     3.38790202     0.86879872    -1.78519866
     26      F     4.69192834    -0.74946557    -0.86866911
 
Total System Charge             0.00000
 
 
----------------
ADF Engine Input
----------------
 
 NumericalQuality VeryGood
 SCF
 Converge 1.0e-6
 Iterations 99
 End
 SYMMETRY NOSYM
 SpinPolarization 1.0
 Unrestricted Yes
 XC
 GGA OLYP
 End
 basis
 core None
 type TZ2P
 End
 

 Title: *** (NO TITLE) ***

 Using automatic Hessian for delocalized coordinates.
 *** GOStep1 ***

 Energy gradients wrt nuclear displacements
 ==========================================

     Atom      Cartesian (a.u./angstrom)
                 X         Y         Z
 ----------------------------------------
     1 H     0.000460 -0.001750  0.000724
     2 C     0.054183  0.035958  0.006985
     3 C    -0.043728  0.011456  0.006880
     4 C     0.073369  0.028085 -0.010911
     5 O     0.106304  0.099749 -0.007696
     6 H     0.000747 -0.004727  0.002761
     7 H    -0.001193 -0.006232 -0.002831
     8 H    -0.001128  0.001309 -0.001266
     9 H    -0.000991 -0.000610 -0.001604
    10 C    -0.004480 -0.005834 -0.014271
    11 C    -0.021525 -0.013516  0.001176
    12 C    -0.024010  0.012675 -0.010601
    13 C     0.010790  0.021309 -0.013205
    14 C    -0.052420 -0.031074  0.002259
    15 C     0.032561  0.005491  0.017602
    16 C    -0.007566 -0.026554  0.013145
    17 H     0.015847 -0.009069  0.008737
    18 H    -0.001201 -0.018354  0.008433
    19 H    -0.012226  0.008976 -0.006439
    20 H     0.000995  0.018234 -0.008970
    21 H     0.018011  0.009315 -0.000755
    22 H    -0.001332 -0.041174 -0.005614
    23 B     0.093964  0.096641 -0.010803
    24 F    -0.073265 -0.106673 -0.092908
    25 F    -0.035422 -0.104986  0.099944
    26 F    -0.126745  0.021354  0.019224
 ----------------------------------------
 Mulliken charges used for AMS results%charges...
           Primitive Internal Coordinates (atoms in internal order)
-------------------------------------------------------------------------------
    index    type      i       j       k       l   value(A,deg)     TSRC Vect
-------------------------------------------------------------------------------
       1     bnd       1       3       0       0     1.08957265    -0.00000000
       2     bnd       2       6       0       0     1.08435865     0.00000000
       3     bnd       2      14       0       0     1.54000000     0.00370254
       4     bnd       2       3       0       0     1.35638270    -0.00000000
       5     bnd       3       4       0       0     1.46823204    -0.00000000
       6     bnd       4      22       0       0     1.07000000     0.00000000
       7     bnd       4       5       0       0     1.22560213    -0.00000000
       8     bnd       5      23       0       0     1.70000000    -0.00000000
       9     bnd       8      10       0       0     1.08374674     0.00000000
      10     bnd       7      10       0       0     1.08307071     0.00000000
      11     bnd       9      10       0       0     1.08247534    -0.00000000
      12     bnd      11      21       0       0     1.07166668    -0.00000000
      13     bnd      11      12       0       0     1.40045638    -0.00176246
      14     bnd      12      13       0       0     1.40045639     0.00308292
      15     bnd      13      14       0       0     1.40045639     0.00484538
      16     bnd      14      15       0       0     1.40045639    -0.00774887
      17     bnd      15      19       0       0     1.07166666     0.00000000
      18     bnd      11      16       0       0     1.40045639    -0.00484538
      19     bnd      15      16       0       0     1.40045639    -0.00308292
      20     bnd      16      20       0       0     1.07166668     0.00000000
      21     bnd      12      17       0       0     1.07166668     0.00000000
      22     bnd      13      18       0       0     1.07166666     0.00000000
      23     bnd      23      25       0       0     1.31139752     0.00000000
      24     bnd      23      24       0       0     1.31139752    -0.00000000
      25     bnd      23      26       0       0     1.31139752    -0.00000000
      26     bnd       2      10       0       0     2.58285714    -0.46850046
      27     bnd      10      14       0       0     2.88246877    -0.17165346
      28     bnd      10      15       0       0     3.07855488    -0.03699203
      29     ang       6       2      14       0   117.41061246     0.00855328
      30     ang       6       2       3       0   120.77103538     0.01284013
      31     ang       6       2      10       0    84.09702452    -0.03102288
      32     ang      14       2       3       0   120.89733876    -0.02498808
      33     ang      14       2      10       0    84.70507562     0.08602895
      34     ang       3       2      10       0   110.16403203    -0.03328956
      35     ang       1       3       2       0   120.21909900    -0.00000000
      36     ang       1       3       4       0   115.74474309    -0.00000000
      37     ang       2       3       4       0   124.03410402     0.00000000
      38     ang       3       4      22       0   114.37019779     0.00000000
      39     ang       3       4       5       0   126.33327002    -0.00000000
      40     ang      22       4       5       0   119.29637471     0.00000000
      41     ang       4       5      23       0   117.00680806     0.00000000
      42     ang       8      10       7       0   118.84988012    -0.00146834
      43     ang       8      10       9       0   118.87311123    -0.00024377
      44     ang       8      10       2       0    95.56458342     0.00909663
      45     ang       8      10      14       0    78.54912471    -0.00567121
      46     ang       8      10      15       0    89.23041841     0.00006763
      47     ang       7      10       9       0   118.99448321     0.00257304
      48     ang       7      10       2       0    97.44889075     0.00885824
      49     ang       7      10      14       0    82.13060339    -0.00242205
      50     ang       7      10      15       0    55.68992698    -0.00719646
      51     ang       9      10       2       0    95.11483796    -0.02038856
      52     ang       9      10      14       0   127.22419637     0.00509499
      53     ang       9      10      15       0   140.74147852     0.00345464
      54     ang       2      10      15       0    52.59994653     0.02406216
      55     ang      21      11      12       0   120.00000003     0.00262141
      56     ang      21      11      16       0   119.99999998     0.00262141
      57     ang      12      11      16       0   119.99999999    -0.00524282
      58     ang      11      12      13       0   120.00000045     0.00283320
      59     ang      11      12      17       0   119.99999992    -0.00141660
      60     ang      13      12      17       0   119.99999963    -0.00141660
      61     ang      12      13      14       0   119.99999956     0.00956415
      62     ang      12      13      18       0   120.00000060    -0.00478207
      63     ang      14      13      18       0   119.99999984    -0.00478207
      64     ang       2      14      13       0   120.00000008     0.05233565
      65     ang       2      14      15       0   119.99999944    -0.02667342
      66     ang       2      14      10       0    63.15528843    -0.11163583
      67     ang      13      14      15       0   120.00000047    -0.02566222
      68     ang      13      14      10       0   123.34795653     0.02510012
      69     ang      15      14      10       0    84.36745140     0.04820738
      70     ang      14      15      19       0   120.00000056    -0.02292897
      71     ang      14      15      16       0   119.99999929     0.02509558
      72     ang      14      15      10       0    68.71481583    -0.05236308
      73     ang      19      15      16       0   120.00000015    -0.00216660
      74     ang      19      15      10       0    73.30633988    -0.00817627
      75     ang      16      15      10       0   130.56157217     0.05252240
      76     ang      11      16      15       0   120.00000024    -0.00658788
      77     ang      11      16      20       0   119.99999995     0.00329394
      78     ang      15      16      20       0   119.99999981     0.00329394
      79     ang       5      23      25       0    89.99999964    -0.00000000
      80     ang       5      23      24       0    90.00000000    -0.00000000
      81     ang       5      23      26       0    89.99999975    -0.00000000
      82     ang      25      23      24       0   120.00000012    -0.00000000
      83     ang      25      23      26       0   119.99999990    -0.00000000
      84     ang      24      23      26       0   119.99999998     0.00000000
      85     dih       6       2      14      13    34.24865644    -0.03986035
      86     dih       6       2      14      15   214.24865620    -0.00290824
      87     dih       6       2      14      10   -80.53711813    -0.00962326
      88     dih       3       2      14      13   225.14946408    -0.02037423
      89     dih       3       2      14      15    45.14946384     0.01657788
      90     dih       3       2      14      10   110.36368951     0.00986287
      91     dih      10       2      14      13   114.78577457    -0.03023709
      92     dih      10       2      14      15   -65.21422568     0.00671501
      93     dih       6       2       3       1   185.43025046    -0.01107025
      94     dih       6       2       3       4     5.97435318    -0.01107025
      95     dih      14       2       3       1    -5.83693582    -0.03186770
      96     dih      14       2       3       4   174.70716690    -0.03186770
      97     dih      10       2       3       1    90.20089317     0.04293795
      98     dih      10       2       3       4   -89.25500411     0.04293795
      99     dih       1       3       4      22   180.37552847    -0.00000000
     100     dih       1       3       4       5     0.52197473     0.00000000
     101     dih       2       3       4      22    -0.14644617    -0.00000000
     102     dih       2       3       4       5   180.00000148     0.00000000
     103     dih       3       4       5      23   177.13092032    -0.00000000
     104     dih      22       4       5      23    -2.71611828    -0.00000000
     105     dih       4       5      23      25   -67.45999846    -0.00000000
     106     dih       4       5      23      24    52.54000166    -0.00000000
     107     dih       4       5      23      26   172.54000164    -0.00000000
     108     dih      21      11      12      13   180.00000000    -0.00260094
     109     dih      21      11      12      17    -0.00000085    -0.00130719
     110     dih      16      11      12      13     0.00000085    -0.00341256
     111     dih      16      11      12      17   179.99999915    -0.00211880
     112     dih      11      12      13      14    -0.00000171    -0.00126139
     113     dih      11      12      13      18   179.99999915     0.00042291
     114     dih      17      12      13      14   180.00000148    -0.00255514
     115     dih      17      12      13      18     0.00000171    -0.00087085
     116     dih      12      13      14       2   180.00000171     0.04828459
     117     dih      12      13      14      15     0.00000171     0.01133248
     118     dih      12      13      14      10   255.86129775    -0.05501212
     119     dih      18      13      14       2     0.00000000     0.04660029
     120     dih      18      13      14      15   180.00000085     0.00964819
     121     dih      18      13      14      10    75.86129736    -0.05669642
     122     dih       2      14      15      19    -0.00000171    -0.04697536
     123     dih       2      14      15      16   179.99999852    -0.05368174
     124     dih       2      14      15      10    54.48589834    -0.09017666
     125     dih      13      14      15      19   179.99999852    -0.01002325
     126     dih      13      14      15      16    -0.00000148    -0.01672964
     127     dih      13      14      15      10   234.48589810    -0.05322455
     128     dih      10      14      15      19   -54.48589835     0.04320130
     129     dih      10      14      15      16   125.51410150     0.03649492
     130     dih      21      11      16      15   179.99999915    -0.00279621
     131     dih      21      11      16      20     0.00000000    -0.00111191
     132     dih      12      11      16      15    -0.00000085    -0.00198460
     133     dih      12      11      16      20   180.00000000    -0.00030030
     134     dih      14      15      16      11     0.00000191     0.01205569
     135     dih      14      15      16      20   180.00000171     0.01037139
     136     dih      19      15      16      11   180.00000226     0.00534931
     137     dih      19      15      16      20     0.00000191     0.00366501
     138     dih      10      15      16      11    86.69956322    -0.01376432
     139     dih      10      15      16      20   266.69956323    -0.01544862
     140     dih       6       2      10       8    60.32627910     0.00089318
     141     dih       6       2      10       7   180.43650753     0.00294483
     142     dih       6       2      10       9   -59.39742086     0.00302683
     143     dih       6       2      10      14   118.31924202    -0.00069755
     144     dih       6       2      10      15   145.07776256    -0.00204241
     145     dih      14       2      10       8   -57.99296292     0.00159073
     146     dih      14       2      10       7    62.11726551     0.00364238
     147     dih      14       2      10       9   182.28333712     0.00372438
     148     dih      14       2      10      15    26.75852053    -0.00134486
     149     dih       3       2      10       8   180.98682002     0.00004114
     150     dih       3       2      10       7   -58.90295155     0.00209280
     151     dih       3       2      10       9    61.26312006     0.00217480
     152     dih       3       2      10      14   238.97978294    -0.00154958
     153     dih       3       2      10      15   265.73830347    -0.00289445
     154     dih       8      10      14       2   120.55659496     0.00123949
     155     dih       8      10      14      13    10.81460513     0.00197560
     156     dih       8      10      14      15   248.36518556    -0.00848411
     157     dih       7      10      14       2   242.22438904     0.00209558
     158     dih       7      10      14      13   132.48239922     0.00283169
     159     dih       7      10      14      15    10.03297964    -0.00762802
     160     dih       9      10      14       2     2.85653387     0.00494493
     161     dih       9      10      14      13   253.11454404     0.00568104
     162     dih       9      10      14      15   130.66512447    -0.00477867
     163     dih       2      10      14      13   250.25801017     0.00073611
     164     dih       2      10      14      15   127.80859060    -0.00972360
     165     dih      15      10      14       2   232.19140940     0.00972360
     166     dih      15      10      14      13   122.44941957     0.01045971
     167     dih       8      10      15      14    65.66230388    -0.00998150
     168     dih       8      10      15      19   198.27580797     0.00647661
     169     dih       8      10      15      16   -46.23027986     0.00102270
     170     dih       7      10      15      14   192.05953883    -0.00823366
     171     dih       7      10      15      19   -35.32695708     0.00822445
     172     dih       7      10      15      16    80.16695508     0.00277054
     173     dih       9      10      15      14   -72.64127535    -0.01427282
     174     dih       9      10      15      19    59.97222874     0.00218529
     175     dih       9      10      15      16   175.46614091    -0.00326862
     176     dih       2      10      15      14   -31.94269627    -0.01864577
     177     dih       2      10      15      19   100.67080782    -0.00218766
     178     dih       2      10      15      16   216.16471998    -0.00764157
     179     dih      14      10      15      19   132.61350409     0.01645811
     180     dih      14      10      15      16   248.10741625     0.01100420
Hessian eigenvector     1(     0.001) has overlap with TSRC:    0.48781E+00
Hessian eigenvector     2(     0.006) has overlap with TSRC:    0.26266E-01
Hessian eigenvector     3(     0.010) has overlap with TSRC:    0.19354E-01
Hessian eigenvector     4(     0.010) has overlap with TSRC:    0.37439E-02
Hessian eigenvector     5(     0.010) has overlap with TSRC:    0.87679E-02
Hessian eigenvector     6(     0.011) has overlap with TSRC:    0.31417E-02
Hessian eigenvector     7(     0.011) has overlap with TSRC:    0.70092E-02
Hessian eigenvector     8(     0.011) has overlap with TSRC:    0.24966E-03
Hessian eigenvector     9(     0.011) has overlap with TSRC:    0.45839E-03
Hessian eigenvector    10(     0.012) has overlap with TSRC:    0.31195E-04
Hessian eigenvector    11(     0.012) has overlap with TSRC:    0.78498E-03
Hessian eigenvector    12(     0.012) has overlap with TSRC:    0.22917E-01
Hessian eigenvector    13(     0.012) has overlap with TSRC:    0.98976E-02
Hessian eigenvector    14(     0.013) has overlap with TSRC:    0.13057E-13
Hessian eigenvector    15(     0.013) has overlap with TSRC:    0.13134E-03
Hessian eigenvector    16(     0.016) has overlap with TSRC:    0.19029E-02
Hessian eigenvector    17(     0.020) has overlap with TSRC:    0.47236E-01
Hessian eigenvector    18(     0.021) has overlap with TSRC:    0.18743E+00
Hessian eigenvector    19(     0.022) has overlap with TSRC:    0.14055E+00
Hessian eigenvector    20(     0.029) has overlap with TSRC:    0.81207E-02
Hessian eigenvector    21(     0.031) has overlap with TSRC:    0.17463E-01
Hessian eigenvector    22(     0.040) has overlap with TSRC:    0.11416E-01
Hessian eigenvector    23(     0.044) has overlap with TSRC:    0.60891E-01
Hessian eigenvector    24(     0.051) has overlap with TSRC:    0.43258E-01
Hessian eigenvector    25(     0.067) has overlap with TSRC:    0.44498E-01
Hessian eigenvector    26(     0.085) has overlap with TSRC:    0.51898E-01
Hessian eigenvector    27(     0.087) has overlap with TSRC:    0.11876E-01
Hessian eigenvector    28(     0.090) has overlap with TSRC:    0.25171E-01
Hessian eigenvector    29(     0.100) has overlap with TSRC:    0.14398E-02
Hessian eigenvector    30(     0.121) has overlap with TSRC:    0.11800E+00
Hessian eigenvector    31(     0.123) has overlap with TSRC:    0.11570E-01
Hessian eigenvector    32(     0.170) has overlap with TSRC:    0.93153E-01
Hessian eigenvector    33(     0.205) has overlap with TSRC:    0.30597E-14
Hessian eigenvector    34(     0.205) has overlap with TSRC:    0.50871E-14
Hessian eigenvector    35(     0.211) has overlap with TSRC:    0.12491E-13
Hessian eigenvector    36(     0.211) has overlap with TSRC:    0.10841E-14
Hessian eigenvector    37(     0.211) has overlap with TSRC:    0.73067E-14
Hessian eigenvector    38(     0.216) has overlap with TSRC:    0.15729E-07
Hessian eigenvector    39(     0.218) has overlap with TSRC:    0.13942E-13
Hessian eigenvector    40(     0.223) has overlap with TSRC:    0.27711E-10
Hessian eigenvector    41(     0.223) has overlap with TSRC:    0.21770E-10
Hessian eigenvector    42(     0.223) has overlap with TSRC:    0.67242E-10
Hessian eigenvector    43(     0.223) has overlap with TSRC:    0.21575E-10
Hessian eigenvector    44(     0.225) has overlap with TSRC:    0.68652E-12
Hessian eigenvector    45(     0.231) has overlap with TSRC:    0.10880E-07
Hessian eigenvector    46(     0.234) has overlap with TSRC:    0.70933E-10
Hessian eigenvector    47(     0.248) has overlap with TSRC:    0.38235E-12
Hessian eigenvector    48(     0.383) has overlap with TSRC:    0.41860E-02
Hessian eigenvector    49(     0.429) has overlap with TSRC:    0.44727E-02
Hessian eigenvector    50(     0.454) has overlap with TSRC:    0.13667E-13
Hessian eigenvector    51(     0.485) has overlap with TSRC:    0.61093E-02
Hessian eigenvector    52(     0.500) has overlap with TSRC:    0.68232E-14
Hessian eigenvector    53(     0.503) has overlap with TSRC:    0.10301E-14
Hessian eigenvector    54(     0.503) has overlap with TSRC:    0.63106E-15
Hessian eigenvector    55(     0.503) has overlap with TSRC:    0.14381E-14
Hessian eigenvector    56(     0.503) has overlap with TSRC:    0.37528E-14
Hessian eigenvector    57(     0.508) has overlap with TSRC:    0.48218E-02
Hessian eigenvector    58(     0.508) has overlap with TSRC:    0.10472E-14
Hessian eigenvector    59(     0.508) has overlap with TSRC:    0.78558E-15
Hessian eigenvector    60(     0.508) has overlap with TSRC:    0.55146E-14
Hessian eigenvector    61(     0.508) has overlap with TSRC:    0.59170E-14
Hessian eigenvector    62(     0.508) has overlap with TSRC:    0.13542E-13
Hessian eigenvector    63(     0.509) has overlap with TSRC:    0.19078E-14
Hessian eigenvector    64(     0.524) has overlap with TSRC:    0.45216E-14
Hessian eigenvector    65(     0.547) has overlap with TSRC:    0.35846E-11
Hessian eigenvector    66(     0.547) has overlap with TSRC:    0.50488E-14
Hessian eigenvector    67(     0.547) has overlap with TSRC:    0.97134E-10
Hessian eigenvector    68(     0.563) has overlap with TSRC:    0.12024E-13
Hessian eigenvector    69(     0.580) has overlap with TSRC:    0.22074E-14
Hessian eigenvector    70(     0.580) has overlap with TSRC:    0.52020E-15
Hessian eigenvector    71(     0.580) has overlap with TSRC:    0.76863E-15
Hessian eigenvector    72(     0.600) has overlap with TSRC:    0.23152E-14
Hessian eigenvector     1 has the largest overlap with TSRC:  0.48781
           Primitive Internal Coordinates (atoms in internal order)
-------------------------------------------------------------------------------
    index    type      i       j       k       l   value(A,deg)     Max Ovl Vect
-------------------------------------------------------------------------------
       1     bnd       1       3       0       0     1.08957265     0.00000000
       2     bnd       2       6       0       0     1.08435865     0.00000000
       3     bnd       2      14       0       0     1.54000000     0.00504006
       4     bnd       2       3       0       0     1.35638270     0.00000000
       5     bnd       3       4       0       0     1.46823204    -0.00000000
       6     bnd       4      22       0       0     1.07000000     0.00000000
       7     bnd       4       5       0       0     1.22560213    -0.00000000
       8     bnd       5      23       0       0     1.70000000     0.00000000
       9     bnd       8      10       0       0     1.08374674     0.00000000
      10     bnd       7      10       0       0     1.08307071     0.00000000
      11     bnd       9      10       0       0     1.08247534    -0.00000000
      12     bnd      11      21       0       0     1.07166668    -0.00000000
      13     bnd      11      12       0       0     1.40045638     0.00071411
      14     bnd      12      13       0       0     1.40045639     0.00000697
      15     bnd      13      14       0       0     1.40045639    -0.00070715
      16     bnd      14      15       0       0     1.40045639    -0.00346221
      17     bnd      15      19       0       0     1.07166666     0.00000000
      18     bnd      11      16       0       0     1.40045639     0.00070715
      19     bnd      15      16       0       0     1.40045639    -0.00000697
      20     bnd      16      20       0       0     1.07166668    -0.00000000
      21     bnd      12      17       0       0     1.07166668    -0.00000000
      22     bnd      13      18       0       0     1.07166666     0.00000000
      23     bnd      23      25       0       0     1.31139752    -0.00000000
      24     bnd      23      24       0       0     1.31139752     0.00000000
      25     bnd      23      26       0       0     1.31139752    -0.00000000
      26     bnd       2      10       0       0     2.58285714    -0.68987268
      27     bnd      10      14       0       0     2.88246877    -0.09175027
      28     bnd      10      15       0       0     3.07855488     0.00948378
      29     ang       6       2      14       0   117.41061246    -0.00105755
      30     ang       6       2       3       0   120.77103538    -0.00679440
      31     ang       6       2      10       0    84.09702452    -0.02688514
      32     ang      14       2       3       0   120.89733876    -0.01515325
      33     ang      14       2      10       0    84.70507562     0.18875992
      34     ang       3       2      10       0   110.16403203    -0.04133659
      35     ang       1       3       2       0   120.21909900     0.00000020
      36     ang       1       3       4       0   115.74474309     0.00000026
      37     ang       2       3       4       0   124.03410402     0.00000021
      38     ang       3       4      22       0   114.37019779    -0.00000000
      39     ang       3       4       5       0   126.33327002    -0.00000000
      40     ang      22       4       5       0   119.29637471    -0.00000000
      41     ang       4       5      23       0   117.00680806     0.00000000
      42     ang       8      10       7       0   118.84988012     0.00127906
      43     ang       8      10       9       0   118.87311123     0.00070838
      44     ang       8      10       2       0    95.56458342    -0.00053574
      45     ang       8      10      14       0    78.54912471     0.00128165
      46     ang       8      10      15       0    89.23041841    -0.00754319
      47     ang       7      10       9       0   118.99448321    -0.00187079
      48     ang       7      10       2       0    97.44889075     0.01484469
      49     ang       7      10      14       0    82.13060339    -0.00925549
      50     ang       7      10      15       0    55.68992698    -0.00718280
      51     ang       9      10       2       0    95.11483796    -0.01468474
      52     ang       9      10      14       0   127.22419637     0.00867527
      53     ang       9      10      15       0   140.74147852     0.01524780
      54     ang       2      10      15       0    52.59994653     0.03297696
      55     ang      21      11      12       0   120.00000003    -0.00066754
      56     ang      21      11      16       0   119.99999998    -0.00066754
      57     ang      12      11      16       0   119.99999999     0.00133507
      58     ang      11      12      13       0   120.00000045    -0.00033897
      59     ang      11      12      17       0   119.99999992     0.00016948
      60     ang      13      12      17       0   119.99999963     0.00016948
      61     ang      12      13      14       0   119.99999956    -0.00373703
      62     ang      12      13      18       0   120.00000060     0.00186852
      63     ang      14      13      18       0   119.99999984     0.00186852
      64     ang       2      14      13       0   120.00000008     0.01864000
      65     ang       2      14      15       0   119.99999944    -0.02484829
      66     ang       2      14      10       0    63.15528843    -0.21142118
      67     ang      13      14      15       0   120.00000047     0.00620829
      68     ang      13      14      10       0   123.34795653     0.02665727
      69     ang      15      14      10       0    84.36745140     0.03753134
      70     ang      14      15      19       0   120.00000056     0.00246217
      71     ang      14      15      16       0   119.99999929    -0.00307841
      72     ang      14      15      10       0    68.71481583    -0.03791878
      73     ang      19      15      16       0   120.00000015     0.00061624
      74     ang      19      15      10       0    73.30633988    -0.01855344
      75     ang      16      15      10       0   130.56157217     0.05093854
      76     ang      11      16      15       0   120.00000024    -0.00038895
      77     ang      11      16      20       0   119.99999995     0.00019448
      78     ang      15      16      20       0   119.99999981     0.00019448
      79     ang       5      23      25       0    89.99999964     0.00000000
      80     ang       5      23      24       0    90.00000000     0.00000000
      81     ang       5      23      26       0    89.99999975    -0.00000000
      82     ang      25      23      24       0   120.00000012    -0.00000000
      83     ang      25      23      26       0   119.99999990     0.00000000
      84     ang      24      23      26       0   119.99999998    -0.00000000
      85     dih       6       2      14      13    34.24865644    -0.13039208
      86     dih       6       2      14      15   214.24865620     0.03846705
      87     dih       6       2      14      10   -80.53711813    -0.07167408
      88     dih       3       2      14      13   225.14946408     0.00496807
      89     dih       3       2      14      15    45.14946384     0.17382720
      90     dih       3       2      14      10   110.36368951     0.06368608
      91     dih      10       2      14      13   114.78577457    -0.05871800
      92     dih      10       2      14      15   -65.21422568     0.11014112
      93     dih       6       2       3       1   185.43025046     0.04589106
      94     dih       6       2       3       4     5.97435318     0.04580129
      95     dih      14       2       3       1    -5.83693582    -0.09343934
      96     dih      14       2       3       4   174.70716690    -0.09352911
      97     dih      10       2       3       1    90.20089317     0.10816721
      98     dih      10       2       3       4   -89.25500411     0.10807744
      99     dih       1       3       4      22   180.37552847    -0.00004597
     100     dih       1       3       4       5     0.52197473    -0.00004593
     101     dih       2       3       4      22    -0.14644617     0.00004014
     102     dih       2       3       4       5   180.00000148     0.00004019
     103     dih       3       4       5      23   177.13092032    -0.00000002
     104     dih      22       4       5      23    -2.71611828     0.00000002
     105     dih       4       5      23      25   -67.45999846     0.00000000
     106     dih       4       5      23      24    52.54000166     0.00000000
     107     dih       4       5      23      26   172.54000164     0.00000000
     108     dih      21      11      12      13   180.00000000    -0.01606104
     109     dih      21      11      12      17    -0.00000085     0.00766696
     110     dih      16      11      12      13     0.00000085    -0.01014813
     111     dih      16      11      12      17   179.99999915     0.01357987
     112     dih      11      12      13      14    -0.00000171     0.02646762
     113     dih      11      12      13      18   179.99999915     0.04318598
     114     dih      17      12      13      14   180.00000148     0.00273962
     115     dih      17      12      13      18     0.00000171     0.01945798
     116     dih      12      13      14       2   180.00000171     0.15484532
     117     dih      12      13      14      15     0.00000171    -0.01401381
     118     dih      12      13      14      10   255.86129775    -0.09266213
     119     dih      18      13      14       2     0.00000000     0.13812696
     120     dih      18      13      14      15   180.00000085    -0.03073217
     121     dih      18      13      14      10    75.86129736    -0.10938049
     122     dih       2      14      15      19    -0.00000171    -0.15969932
     123     dih       2      14      15      16   179.99999852    -0.18361861
     124     dih       2      14      15      10    54.48589834    -0.22638700
     125     dih      13      14      15      19   179.99999852     0.00915981
     126     dih      13      14      15      16    -0.00000148    -0.01475948
     127     dih      13      14      15      10   234.48589810    -0.05752787
     128     dih      10      14      15      19   -54.48589835     0.06668768
     129     dih      10      14      15      16   125.51410150     0.04276839
     130     dih      21      11      16      15   179.99999915    -0.01271225
     131     dih      21      11      16      20     0.00000000     0.00402446
     132     dih      12      11      16      15    -0.00000085    -0.01862517
     133     dih      12      11      16      20   180.00000000    -0.00188845
     134     dih      14      15      16      11     0.00000191     0.03107897
     135     dih      14      15      16      20   180.00000171     0.01434226
     136     dih      19      15      16      11   180.00000226     0.00715968
     137     dih      19      15      16      20     0.00000191    -0.00957703
     138     dih      10      15      16      11    86.69956322     0.00169453
     139     dih      10      15      16      20   266.69956323    -0.01504218
     140     dih       6       2      10       8    60.32627910    -0.05732965
     141     dih       6       2      10       7   180.43650753    -0.05333120
     142     dih       6       2      10       9   -59.39742086    -0.05556730
     143     dih       6       2      10      14   118.31924202    -0.02834511
     144     dih       6       2      10      15   145.07776256    -0.06095063
     145     dih      14       2      10       8   -57.99296292    -0.02898454
     146     dih      14       2      10       7    62.11726551    -0.02498609
     147     dih      14       2      10       9   182.28333712    -0.02722219
     148     dih      14       2      10      15    26.75852053    -0.03260552
     149     dih       3       2      10       8   180.98682002    -0.07845744
     150     dih       3       2      10       7   -58.90295155    -0.07445899
     151     dih       3       2      10       9    61.26312006    -0.07669508
     152     dih       3       2      10      14   238.97978294    -0.04947290
     153     dih       3       2      10      15   265.73830347    -0.08207842
     154     dih       8      10      14       2   120.55659496    -0.03033504
     155     dih       8      10      14      13    10.81460513     0.06411059
     156     dih       8      10      14      15   248.36518556     0.02149315
     157     dih       7      10      14       2   242.22438904    -0.02635564
     158     dih       7      10      14      13   132.48239922     0.06808999
     159     dih       7      10      14      15    10.03297964     0.02547254
     160     dih       9      10      14       2     2.85653387    -0.03367166
     161     dih       9      10      14      13   253.11454404     0.06077397
     162     dih       9      10      14      15   130.66512447     0.01815653
     163     dih       2      10      14      13   250.25801017     0.09444563
     164     dih       2      10      14      15   127.80859060     0.05182818
     165     dih      15      10      14       2   232.19140940    -0.05182818
     166     dih      15      10      14      13   122.44941957     0.04261745
     167     dih       8      10      15      14    65.66230388     0.01964536
     168     dih       8      10      15      19   198.27580797     0.06687464
     169     dih       8      10      15      16   -46.23027986     0.05661321
     170     dih       7      10      15      14   192.05953883     0.03153362
     171     dih       7      10      15      19   -35.32695708     0.07876290
     172     dih       7      10      15      16    80.16695508     0.06850146
     173     dih       9      10      15      14   -72.64127535     0.01129854
     174     dih       9      10      15      19    59.97222874     0.05852782
     175     dih       9      10      15      16   175.46614091     0.04826638
     176     dih       2      10      15      14   -31.94269627     0.01830390
     177     dih       2      10      15      19   100.67080782     0.06553318
     178     dih       2      10      15      16   216.16471998     0.05527175
     179     dih      14      10      15      19   132.61350409     0.04722928
     180     dih      14      10      15      16   248.10741625     0.03696785
 
----------------------------------------------------------------------
Geometry Convergence after Step   1       (Hartree/Angstrom,Angstrom)
----------------------------------------------------------------------
current energy                               -5.53032166 Hartree
energy change                      -5.53032166     0.00026000    F
constrained gradient max            0.12674395     0.00100000    F
constrained gradient rms            0.04067981     0.00066667    F
gradient max                        0.12674395
gradient rms                        0.04067981
cart. step max                      0.10530976     0.01000000    F
cart. step rms                      0.02091974     0.00666667    F
 
 
--------
Geometry
--------
Formula: C10H11BF3O
Atoms
  Index Symbol   x (angstrom)   y (angstrom)   z (angstrom)
      1      H     0.18996381    -1.86528863    -0.24404327
      2      C    -0.93339937    -0.13870287     0.28287952
      3      C     0.20406092    -0.79046250    -0.06652816
      4      C     1.50541610    -0.13284582    -0.22336626
      5      O     2.55715017    -0.68050155    -0.54000942
      6      H    -0.94678802     0.94254455     0.36734345
      7      H    -1.16410372    -1.14858868     3.00805124
      8      H    -2.10229717     0.45579095     2.85295781
      9      H    -0.24361176     0.47384773     3.00688832
     10      C    -1.15972219    -0.07873998     2.84159390
     11      C    -4.76409795    -2.17106033     0.36874766
     12      C    -4.65478031    -0.90707234    -0.22317547
     13      C    -3.41830286    -0.25110719    -0.24981347
     14      C    -2.28876092    -0.86225124     0.30873126
     15      C    -2.39838995    -2.12649979     0.90091977
     16      C    -3.63581497    -2.78029926     0.93109673
     17      H    -5.51898995    -0.43999596    -0.65443991
     18      H    -3.33552274     0.71889871    -0.70064028
     19      H    -1.53473648    -2.59418867     1.33206898
     20      H    -3.71973112    -3.74819751     1.38623689
     21      H    -5.71245281    -2.67212638     0.39265167
     22      H     1.49542946     0.92425466    -0.04298873
     23      B     3.94604625     0.30121539    -0.72787804
     24      F     3.83623300     0.85493996     0.46228307
     25      F     3.46949074     0.92861911    -1.78325864
     26      F     4.75028562    -0.72752364    -0.89246820
 
Total System Charge             0.00000
 
 *** GOStep2 ***

 Energy gradients wrt nuclear displacements
 ==========================================

     Atom      Cartesian (a.u./angstrom)
                 X         Y         Z
 ----------------------------------------
     1 H     0.000241 -0.001689  0.000401
     2 C     0.054366  0.032984  0.006203
     3 C    -0.045781  0.010965  0.007102
     4 C     0.069801  0.019898 -0.011106
     5 O     0.061041  0.071005 -0.002828
     6 H     0.000460 -0.004477  0.002730
     7 H    -0.001214 -0.005708 -0.002834
     8 H    -0.001021  0.001200 -0.001290
     9 H    -0.000876 -0.000587 -0.001720
    10 C    -0.004869 -0.006230 -0.013175
    11 C    -0.019912 -0.012282  0.001193
    12 C    -0.022092  0.011418 -0.009972
    13 C     0.010372  0.019609 -0.011590
    14 C    -0.050706 -0.030444  0.000962
    15 C     0.030724  0.006235  0.017231
    16 C    -0.007281 -0.024168  0.012180
    17 H     0.014497 -0.008454  0.008014
    18 H    -0.001181 -0.016876  0.007833
    19 H    -0.011292  0.008420 -0.005925
    20 H     0.000960  0.016726 -0.008320
    21 H     0.016560  0.008516 -0.000676
    22 H    -0.002551 -0.038406 -0.005523
    23 B     0.072982  0.075179 -0.007753
    24 F    -0.048473 -0.077025 -0.073656
    25 F    -0.020811 -0.079827  0.077040
    26 F    -0.093946  0.024017  0.015479
 ----------------------------------------
 Mulliken charges used for AMS results%charges...
Hessian eigenvector     1(    -0.018) has overlap with TSRC:    0.38723E+00
Hessian eigenvector     1 has the largest overlap with TSRC:  0.38723
           Primitive Internal Coordinates (atoms in internal order)
-------------------------------------------------------------------------------
    index    type      i       j       k       l   value(A,deg)     Max Ovl Vect
-------------------------------------------------------------------------------
       1     bnd       1       3       0       0     1.08947765     0.00024964
       2     bnd       2       6       0       0     1.08462409    -0.00052694
       3     bnd       2      14       0       0     1.53661820     0.00599410
       4     bnd       2       3       0       0     1.35672114    -0.00196241
       5     bnd       3       4       0       0     1.46648669     0.00567513
       6     bnd       4      22       0       0     1.07242585    -0.00429679
       7     bnd       4       5       0       0     1.22732810    -0.00310833
       8     bnd       5      23       0       0     1.71116776     0.02113800
       9     bnd       8      10       0       0     1.08365126     0.00013775
      10     bnd       7      10       0       0     1.08272964     0.00048661
      11     bnd       9      10       0       0     1.08255889    -0.00014225
      12     bnd      11      21       0       0     1.07285393    -0.00187574
      13     bnd      11      12       0       0     1.39999606     0.00134764
      14     bnd      12      13       0       0     1.39995583     0.00162293
      15     bnd      13      14       0       0     1.40047643    -0.00034748
      16     bnd      14      15       0       0     1.40036786     0.00163963
      17     bnd      15      19       0       0     1.07262288    -0.00161600
      18     bnd      11      16       0       0     1.40015393     0.00047522
      19     bnd      15      16       0       0     1.39985180     0.00035532
      20     bnd      16      20       0       0     1.07285671    -0.00189693
      21     bnd      12      17       0       0     1.07285026    -0.00187228
      22     bnd      13      18       0       0     1.07285080    -0.00191152
      23     bnd      23      25       0       0     1.31703029    -0.00235122
      24     bnd      23      24       0       0     1.31725219    -0.00179348
      25     bnd      23      26       0       0     1.31612875    -0.00239747
      26     bnd       2      10       0       0     2.56940399     0.54775692
      27     bnd      10      14       0       0     2.88166819     0.06358794
      28     bnd      10      15       0       0     3.08120661    -0.02202904
      29     ang       6       2      14       0   117.20700151     0.02815685
      30     ang       6       2       3       0   120.61736591     0.01476569
      31     ang       6       2      10       0    84.15130095    -0.00188636
      32     ang      14       2       3       0   121.17301106    -0.02004275
      33     ang      14       2      10       0    85.21260952    -0.15518009
      34     ang       3       2      10       0   109.96989965     0.04407444
      35     ang       1       3       2       0   120.33446255    -0.00391637
      36     ang       1       3       4       0   115.87798189    -0.00422759
      37     ang       2       3       4       0   123.78679809     0.00779112
      38     ang       3       4      22       0   114.56781394    -0.00799485
      39     ang       3       4       5       0   126.01032574     0.00896651
      40     ang      22       4       5       0   119.42044750    -0.00085585
      41     ang       4       5      23       0   117.89580974     0.00818722
      42     ang       8      10       7       0   118.83363387     0.00124265
      43     ang       8      10       9       0   118.86110731     0.00250589
      44     ang       8      10       2       0    95.65689365    -0.02424466
      45     ang       8      10      14       0    78.61159950    -0.00847536
      46     ang       8      10      15       0    89.12665818     0.02643456
      47     ang       7      10       9       0   118.96816824    -0.00084634
      48     ang       7      10       2       0    97.49246479    -0.00372005
      49     ang       7      10      14       0    82.23465748    -0.00388020
      50     ang       7      10      15       0    55.84137664    -0.01176681
      51     ang       9      10       2       0    95.13054621     0.01989839
      52     ang       9      10      14       0   127.19673323     0.00519769
      53     ang       9      10      15       0   140.86012154    -0.02992350
      54     ang       2      10      15       0    52.60392272    -0.02795896
      55     ang      21      11      12       0   120.00736006    -0.00026606
      56     ang      21      11      16       0   120.00973368    -0.00025886
      57     ang      12      11      16       0   119.98285194     0.00052493
      58     ang      11      12      13       0   120.00344925     0.00157809
      59     ang      11      12      17       0   120.00827724    -0.00117440
      60     ang      13      12      17       0   119.98812515    -0.00040369
      61     ang      12      13      14       0   120.01966977    -0.00068669
      62     ang      12      13      18       0   119.98604081     0.00046656
      63     ang      14      13      18       0   119.99407917     0.00022012
      64     ang       2      14      13       0   119.94797428     0.00075670
      65     ang       2      14      15       0   120.08383808     0.00186094
      66     ang       2      14      10       0    62.68872974     0.17025578
      67     ang      13      14      15       0   119.96559902    -0.00261764
      68     ang      13      14      10       0   123.22324636     0.00663681
      69     ang      15      14      10       0    84.51671369    -0.03216728
      70     ang      14      15      19       0   120.03884700    -0.00798894
      71     ang      14      15      16       0   119.99795607     0.00504929
      72     ang      14      15      10       0    68.58505607     0.03154092
      73     ang      19      15      16       0   119.96318717     0.00293966
      74     ang      19      15      10       0    73.31689251     0.01690267
      75     ang      16      15      10       0   130.70643062    -0.05073526
      76     ang      11      16      15       0   120.02942206    -0.00384798
      77     ang      11      16      20       0   119.99407671     0.00161155
      78     ang      15      16      20       0   119.97647251     0.00223643
      79     ang       5      23      25       0    93.87544449     0.00047784
      80     ang       5      23      24       0    94.26132227     0.01325749
      81     ang       5      23      26       0    93.51292840    -0.00163580
      82     ang      25      23      24       0   119.57764937     0.00368526
      83     ang      25      23      26       0   119.55456170    -0.00147295
      84     ang      24      23      26       0   119.50536767    -0.00221231
      85     dih       6       2      14      13    33.55877123     0.16737675
      86     dih       6       2      14      15   214.14422112    -0.00968201
      87     dih       6       2      14      10   -80.90714641     0.09121275
      88     dih       3       2      14      13   224.94664548     0.03162741
      89     dih       3       2      14      15    45.53209536    -0.14543134
      90     dih       3       2      14      10   110.48072784    -0.04453658
      91     dih      10       2      14      13   114.46591764     0.07616400
      92     dih      10       2      14      15   -64.94863247    -0.10089476
      93     dih       6       2       3       1   185.93296374    -0.12451738
      94     dih       6       2       3       4     6.26292185    -0.07775766
      95     dih      14       2       3       1    -5.84101067     0.01706977
      96     dih      14       2       3       4   174.48894744     0.06382949
      97     dih      10       2       3       1    90.82323182    -0.15626524
      98     dih      10       2       3       4   -88.84681007    -0.10950552
      99     dih       1       3       4      22   180.05066852     0.06709348
     100     dih       1       3       4       5     0.48848643     0.01324627
     101     dih       2       3       4      22    -0.26585473     0.02223333
     102     dih       2       3       4       5   180.17196318    -0.03161388
     103     dih       3       4       5      23   177.45113925    -0.07070194
     104     dih      22       4       5      23    -2.09172539    -0.12693636
     105     dih       4       5      23      25   -66.78914006    -0.13370972
     106     dih       4       5      23      24    53.28717215    -0.13002446
     107     dih       4       5      23      26   173.24578600    -0.13223677
     108     dih      21      11      12      13   179.75759838     0.05471841
     109     dih      21      11      12      17    -0.10227921     0.01840183
     110     dih      16      11      12      13    -0.15762812     0.03566204
     111     dih      16      11      12      17   179.98249430    -0.00065454
     112     dih      11      12      13      14     0.36667020    -0.08417051
     113     dih      11      12      13      18   180.19986610    -0.05544849
     114     dih      17      12      13      14   180.22657624    -0.04785393
     115     dih      17      12      13      18     0.05977213    -0.01913191
     116     dih      12      13      14       2   180.20946091    -0.09471704
     117     dih      12      13      14      15    -0.37529113     0.08234172
     118     dih      12      13      14      10   255.39759897     0.12507966
     119     dih      18      13      14       2     0.37627852    -0.12343906
     120     dih      18      13      14      15   179.79152648     0.05361970
     121     dih      18      13      14      10    75.56441658     0.09635763
     122     dih       2      14      15      19    -0.37460090     0.12756360
     123     dih       2      14      15      16   179.58945098     0.14505430
     124     dih       2      14      15      10    53.96348322     0.19046937
     125     dih      13      14      15      19   180.21095280    -0.04949516
     126     dih      13      14      15      16     0.17500468    -0.03200446
     127     dih      13      14      15      10   234.54903692     0.01341061
     128     dih      10      14      15      19   -54.33808412    -0.06290577
     129     dih      10      14      15      16   125.62596776    -0.04541507
     130     dih      21      11      16      15   180.04214542    -0.00438114
     131     dih      21      11      16      20    -0.01951044     0.00261914
     132     dih      12      11      16      15    -0.04263011     0.01467523
     133     dih      12      11      16      20   179.89571403     0.02167551
     134     dih      14      15      16      11     0.03387220    -0.01650402
     135     dih      14      15      16      20   180.09551713    -0.02350430
     136     dih      19      15      16      11   179.99795148     0.00098668
     137     dih      19      15      16      20     0.05959641    -0.00601360
     138     dih      10      15      16      11    86.62403084     0.00556446
     139     dih      10      15      16      20   266.68567577    -0.00143582
     140     dih       6       2      10       8    60.11575578     0.04319400
     141     dih       6       2      10       7   180.23682875     0.03873375
     142     dih       6       2      10       9   -59.61302036     0.04124330
     143     dih       6       2      10      14   118.02047930     0.05494706
     144     dih       6       2      10      15   144.66438830     0.09089728
     145     dih      14       2      10       8   -57.90472352    -0.01175305
     146     dih      14       2      10       7    62.21634945    -0.01621330
     147     dih      14       2      10       9   182.36650034    -0.01370376
     148     dih      14       2      10      15    26.64390900     0.03595022
     149     dih       3       2      10       8   180.61305798     0.06259710
     150     dih       3       2      10       7   -59.26586904     0.05813685
     151     dih       3       2      10       9    60.88428184     0.06064639
     152     dih       3       2      10      14   238.51778150     0.07435015
     153     dih       3       2      10      15   265.16169050     0.11030037
     154     dih       8      10      14       2   120.68657427    -0.01935202
     155     dih       8      10      14      13    11.21053515    -0.10639842
     156     dih       8      10      14      15   248.73436263    -0.08210026
     157     dih       7      10      14       2   242.28582248    -0.01434519
     158     dih       7      10      14      13   132.80978336    -0.10139160
     159     dih       7      10      14      15    10.33361084    -0.07709343
     160     dih       9      10      14       2     2.95945571    -0.01704085
     161     dih       9      10      14      13   253.48341659    -0.10408726
     162     dih       9      10      14      15   131.00724407    -0.07978909
     163     dih       2      10      14      13   250.52396088    -0.08704641
     164     dih       2      10      14      15   128.04778837    -0.06274824
     165     dih      15      10      14       2   231.95221163     0.06274824
     166     dih      15      10      14      13   122.47617251    -0.02429817
     167     dih       8      10      15      14    66.01710719    -0.07657445
     168     dih       8      10      15      19   198.77307009    -0.12487650
     169     dih       8      10      15      16   -45.76195523    -0.11124056
     170     dih       7      10      15      14   192.40310962    -0.09149433
     171     dih       7      10      15      19   -34.84092749    -0.13979638
     172     dih       7      10      15      16    80.62404720    -0.12616044
     173     dih       9      10      15      14   -72.23256947    -0.08951933
     174     dih       9      10      15      19    60.52339343    -0.13782138
     175     dih       9      10      15      16   175.98836811    -0.12418544
     176     dih       2      10      15      14   -31.78437760    -0.02872249
     177     dih       2      10      15      19   100.97158529    -0.07702453
     178     dih       2      10      15      16   216.43655998    -0.06338860
     179     dih      14      10      15      19   132.75596290    -0.04830205
     180     dih      14      10      15      16   248.22093758    -0.03466611
 
----------------------------------------------------------------------
Geometry Convergence after Step   2       (Hartree/Angstrom,Angstrom)
----------------------------------------------------------------------
current energy                               -5.55671767 Hartree
energy change                      -0.02639601     0.00026000    F
constrained gradient max            0.09394471     0.00100000    F
constrained gradient rms            0.03173510     0.00066667    F
gradient max                        0.09394471
gradient rms                        0.03173510
cart. step max                      0.07001661     0.01000000    F
cart. step rms                      0.02603544     0.00666667    F
 
 
--------
Geometry
--------
Formula: C10H11BF3O
Atoms
  Index Symbol   x (angstrom)   y (angstrom)   z (angstrom)
      1      H     0.21446876    -1.90426953    -0.24553617
      2      C    -0.94392833    -0.18519348     0.26422221
      3      C     0.20500162    -0.82893104    -0.07416372
      4      C     1.47471801    -0.13487159    -0.23148282
      5      O     2.53969111    -0.68313507    -0.53562006
      6      H    -0.96262843     0.89913046     0.32012306
      7      H    -1.13446034    -1.15045437     3.00808224
      8      H    -2.07438154     0.44919921     2.84649779
      9      H    -0.21432586     0.46908003     2.97240763
     10      C    -1.13247638    -0.08525295     2.82246584
     11      C    -4.78633867    -2.15317033     0.38043710
     12      C    -4.65854253    -0.89533685    -0.21632234
     13      C    -3.41549738    -0.25713540    -0.24345521
     14      C    -2.29030546    -0.88673394     0.30416972
     15      C    -2.42106062    -2.14491267     0.90495986
     16      C    -3.66663091    -2.77628707     0.94141380
     17      H    -5.51962476    -0.41432040    -0.65177852
     18      H    -3.32028703     0.71587668    -0.69813755
     19      H    -1.56253066    -2.62966492     1.33847903
     20      H    -3.76532606    -3.74309647     1.40843526
     21      H    -5.74773285    -2.64019998     0.41242348
     22      H     1.45022626     0.93538331    -0.06231202
     23      B     3.93558356     0.30626362    -0.70621141
     24      F     3.86004599     0.90457862     0.48685641
     25      F     3.53861404     0.99501997    -1.78058376
     26      F     4.82030222    -0.67690712    -0.87152945
 
Total System Charge             0.00000
 
 *** GOStep3 ***

 Energy gradients wrt nuclear displacements
 ==========================================

     Atom      Cartesian (a.u./angstrom)
                 X         Y         Z
 ----------------------------------------
     1 H    -0.000114 -0.001531 -0.000648
     2 C     0.046290  0.025452  0.005348
     3 C    -0.035610  0.004023  0.005020
     4 C     0.048787  0.015655 -0.008321
     5 O     0.031001  0.039576  0.001769
     6 H    -0.001017 -0.003214  0.002121
     7 H    -0.001221 -0.003187 -0.002448
     8 H    -0.000490  0.000733 -0.000909
     9 H    -0.000567 -0.000483 -0.001327
    10 C    -0.005687 -0.008140 -0.012783
    11 C    -0.011978 -0.007188  0.000932
    12 C    -0.013501  0.006405 -0.006418
    13 C     0.008656  0.012584 -0.006157
    14 C    -0.042342 -0.025310  0.000002
    15 C     0.022597  0.009019  0.015357
    16 C    -0.005241 -0.014660  0.006906
    17 H     0.008917 -0.005532  0.004741
    18 H    -0.000974 -0.010444  0.004865
    19 H    -0.007159  0.005497 -0.003507
    20 H     0.000714  0.010363 -0.005139
    21 H     0.010228  0.005228 -0.000252
    22 H    -0.002550 -0.022198 -0.002161
    23 B     0.049744  0.051688 -0.003378
    24 F    -0.031099 -0.048027 -0.044142
    25 F    -0.014255 -0.047015  0.042926
    26 F    -0.053128  0.010706  0.007602
 ----------------------------------------
 Mulliken charges used for AMS results%charges...
Hessian eigenvector     1(    -0.011) has overlap with TSRC:    0.43985E+00
Hessian eigenvector     1 has the largest overlap with TSRC:  0.43985
           Primitive Internal Coordinates (atoms in internal order)
-------------------------------------------------------------------------------
    index    type      i       j       k       l   value(A,deg)     Max Ovl Vect
-------------------------------------------------------------------------------
       1     bnd       1       3       0       0     1.08894950    -0.00071586
       2     bnd       2       6       0       0     1.08592495     0.00088196
       3     bnd       2      14       0       0     1.51871202    -0.01088065
       4     bnd       2       3       0       0     1.35975848     0.00325913
       5     bnd       3       4       0       0     1.45555746    -0.00955506
       6     bnd       4      22       0       0     1.08381924     0.00327074
       7     bnd       4       5       0       0     1.23582362     0.00296283
       8     bnd       5      23       0       0     1.71945541    -0.01932507
       9     bnd       8      10       0       0     1.08323681    -0.00004488
      10     bnd       7      10       0       0     1.08125457    -0.00017037
      11     bnd       9      10       0       0     1.08294412     0.00022781
      12     bnd      11      21       0       0     1.07819283     0.00202749
      13     bnd      11      12       0       0     1.39806965    -0.00010215
      14     bnd      12      13       0       0     1.39756879    -0.00116990
      15     bnd      13      14       0       0     1.40083697     0.00119992
      16     bnd      14      15       0       0     1.40037832    -0.00139180
      17     bnd      15      19       0       0     1.07703171     0.00190740
      18     bnd      11      16       0       0     1.39882622     0.00020538
      19     bnd      15      16       0       0     1.39692801    -0.00120523
      20     bnd      16      20       0       0     1.07822548     0.00208757
      21     bnd      12      17       0       0     1.07817508     0.00205720
      22     bnd      13      18       0       0     1.07821777     0.00210460
      23     bnd      23      25       0       0     1.33650516     0.00315957
      24     bnd      23      24       0       0     1.33682369     0.00474986
      25     bnd      23      26       0       0     1.33292230     0.00166499
      26     bnd       2      10       0       0     2.56712854    -0.62407979
      27     bnd      10      14       0       0     2.88526521    -0.07421445
      28     bnd      10      15       0       0     3.09507298     0.02228044
      29     ang       6       2      14       0   116.39965320    -0.00748618
      30     ang       6       2       3       0   120.00552822    -0.01189475
      31     ang       6       2      10       0    84.75367633    -0.02124500
      32     ang      14       2       3       0   122.47484509    -0.00284810
      33     ang      14       2      10       0    85.79404632     0.17682675
      34     ang       3       2      10       0   109.17690443    -0.04078287
      35     ang       1       3       2       0   120.93148568     0.00236739
      36     ang       1       3       4       0   116.50532433     0.00201395
      37     ang       2       3       4       0   122.56285920    -0.00419855
      38     ang       3       4      22       0   115.73972543     0.00614054
      39     ang       3       4       5       0   124.52607133    -0.00429355
      40     ang      22       4       5       0   119.73417550    -0.00205424
      41     ang       4       5      23       0   117.95174058    -0.00336888
      42     ang       8      10       7       0   118.72820752     0.00190535
      43     ang       8      10       9       0   118.78912572    -0.00048333
      44     ang       8      10       2       0    96.03757826     0.00645353
      45     ang       8      10      14       0    78.90038601     0.00375173
      46     ang       8      10      15       0    88.85743965    -0.01522661
      47     ang       7      10       9       0   118.82023684    -0.00219234
      48     ang       7      10       2       0    97.63462472     0.00981495
      49     ang       7      10      14       0    82.84450262    -0.00322280
      50     ang       7      10      15       0    56.63340886     0.00160932
      51     ang       9      10       2       0    95.48790511    -0.01416799
      52     ang       9      10      14       0   127.10400810     0.00264733
      53     ang       9      10      15       0   141.20512480     0.02029522
      54     ang       2      10      15       0    52.21361102     0.02810355
      55     ang      21      11      12       0   120.03768681    -0.00011774
      56     ang      21      11      16       0   120.04204937    -0.00021892
      57     ang      12      11      16       0   119.91960823     0.00033667
      58     ang      11      12      13       0   120.02878690    -0.00033866
      59     ang      11      12      17       0   120.05164067     0.00050210
      60     ang      13      12      17       0   119.91887644    -0.00016344
      61     ang      12      13      14       0   120.10522119    -0.00082599
      62     ang      12      13      18       0   119.92203644     0.00051830
      63     ang      14      13      18       0   119.96797649     0.00030769
      64     ang       2      14      13       0   119.61617189     0.01225460
      65     ang       2      14      15       0   120.60295469    -0.01373350
      66     ang       2      14      10       0    62.54103093    -0.19333357
      67     ang      13      14      15       0   119.77024473     0.00147890
      68     ang      13      14      10       0   122.59417945     0.01286985
      69     ang      15      14      10       0    84.98548784     0.03607516
      70     ang      14      15      19       0   120.17455462     0.00302833
      71     ang      14      15      16       0   120.03497275    -0.00112746
      72     ang      14      15      10       0    68.22447492    -0.03567009
      73     ang      19      15      16       0   119.79037555    -0.00190087
      74     ang      19      15      10       0    73.63661526    -0.01784862
      75     ang      16      15      10       0   130.98253246     0.04592846
      76     ang      11      16      15       0   120.12790048     0.00047654
      77     ang      11      16      20       0   119.99072367    -0.00004160
      78     ang      15      16      20       0   119.88031307    -0.00043494
      79     ang       5      23      25       0    97.76788657    -0.00787187
      80     ang       5      23      24       0    97.07215045     0.00174995
      81     ang       5      23      26       0    97.28000497    -0.00823691
      82     ang      25      23      24       0   118.03371483    -0.00195886
      83     ang      25      23      26       0   118.52636159     0.00161316
      84     ang      24      23      26       0   118.57577529     0.00034569
      85     dih       6       2      14      13    31.74219372    -0.13881314
      86     dih       6       2      14      15   212.93083164     0.03282648
      87     dih       6       2      14      10   -82.01787276    -0.07281007
      88     dih       3       2      14      13   223.85765049    -0.00735798
      89     dih       3       2      14      15    45.04628841     0.16428164
      90     dih       3       2      14      10   110.09758401     0.05864509
      91     dih      10       2      14      13   113.76006648    -0.06600307
      92     dih      10       2      14      15   -65.05129560     0.10563655
      93     dih       6       2       3       1   187.02319127     0.08029393
      94     dih       6       2       3       4     6.80658008     0.05607124
      95     dih      14       2       3       1    -5.51495752    -0.05505598
      96     dih      14       2       3       4   174.26843129    -0.07927867
      97     dih      10       2       3       1    91.91447051     0.13739425
      98     dih      10       2       3       4   -88.30214068     0.11317155
      99     dih       1       3       4      22   179.74137220    -0.06609441
     100     dih       1       3       4       5    -0.31962537     0.03027717
     101     dih       2       3       4      22    -0.05099930    -0.04285317
     102     dih       2       3       4       5   179.88800313     0.05351841
     103     dih       3       4       5      23   178.82644427     0.00950257
     104     dih      22       4       5      23    -1.23683212     0.11015108
     105     dih       4       5      23      25   -66.42100981     0.15040710
     106     dih       4       5      23      24    53.24240640     0.14844824
     107     dih       4       5      23      26   173.35848221     0.14879394
     108     dih      21      11      12      13   179.23240913    -0.03488085
     109     dih      21      11      12      17    -0.46387657    -0.00247762
     110     dih      16      11      12      13    -0.47318608    -0.02295409
     111     dih      16      11      12      17   179.83052821     0.00944915
     112     dih      11      12      13      14     1.21339598     0.05129427
     113     dih      11      12      13      18   180.41904718     0.05097032
     114     dih      17      12      13      14   180.91008749     0.01889103
     115     dih      17      12      13      18     0.11573870     0.01856708
     116     dih      12      13      14       2   179.78144131     0.13231773
     117     dih      12      13      14      15    -1.39718837    -0.03932189
     118     dih      12      13      14      10   254.34910648    -0.10151275
     119     dih      18      13      14       2     0.57615712     0.13264168
     120     dih      18      13      14      15   179.39752744    -0.03899794
     121     dih      18      13      14      10    75.14382229    -0.10118880
     122     dih       2      14      15      19    -0.45964714    -0.14649991
     123     dih       2      14      15      16   179.65392839    -0.17263029
     124     dih       2      14      15      10    53.86510107    -0.21044380
     125     dih      13      14      15      19   180.73081510     0.02513970
     126     dih      13      14      15      16     0.84439062    -0.00099067
     127     dih      13      14      15      10   235.05556331    -0.03880418
     128     dih      10      14      15      19   -54.32474821     0.06394388
     129     dih      10      14      15      16   125.78882731     0.03781351
     130     dih      21      11      16      15   180.21534429    -0.00543170
     131     dih      21      11      16      20    -0.16010742     0.00230127
     132     dih      12      11      16      15    -0.07907346    -0.01735847
     133     dih      12      11      16      20   179.54547483    -0.00962549
     134     dih      14      15      16      11    -0.10841640     0.02933085
     135     dih      14      15      16      20   180.26661891     0.02159787
     136     dih      19      15      16      11   180.00472060     0.00320048
     137     dih      19      15      16      20     0.37975590    -0.00453250
     138     dih      10      15      16      11    86.14452472     0.00209404
     139     dih      10      15      16      20   266.51956003    -0.00563894
     140     dih       6       2      10       8    59.73162501    -0.04780271
     141     dih       6       2      10       7   179.85320845    -0.04265829
     142     dih       6       2      10       9   -60.04799025    -0.04602170
     143     dih       6       2      10      14   117.03010369    -0.03380087
     144     dih       6       2      10      15   143.56771370    -0.06742916
     145     dih      14       2      10       8   -57.29847869    -0.01400184
     146     dih      14       2      10       7    62.82310476    -0.00885742
     147     dih      14       2      10       9   182.92190606    -0.01222082
     148     dih      14       2      10      15    26.53761001    -0.03362829
     149     dih       3       2      10       8   179.71555269    -0.07227054
     150     dih       3       2      10       7   -60.16286386    -0.06712612
     151     dih       3       2      10       9    59.93593744    -0.07048953
     152     dih       3       2      10      14   237.01403138    -0.05826870
     153     dih       3       2      10      15   263.55164139    -0.09189699
     154     dih       8      10      14       2   121.48456230    -0.01247173
     155     dih       8      10      14      13    12.28987758     0.07633806
     156     dih       8      10      14      15   249.91188703     0.04476095
     157     dih       7      10      14       2   242.70229717    -0.01048832
     158     dih       7      10      14      13   133.50761245     0.07832148
     159     dih       7      10      14      15    11.12962189     0.04674437
     160     dih       9      10      14       2     3.64773088    -0.01512962
     161     dih       9      10      14      13   254.45304616     0.07368017
     162     dih       9      10      14      15   132.07505561     0.04210306
     163     dih       2      10      14      13   250.80531528     0.08880979
     164     dih       2      10      14      15   128.42732472     0.05723268
     165     dih      15      10      14       2   231.57267528    -0.05723268
     166     dih      15      10      14      13   122.37799055     0.03157711
     167     dih       8      10      15      14    67.18781748     0.04138330
     168     dih       8      10      15      19   200.14114027     0.08706917
     169     dih       8      10      15      16   -44.33870879     0.07367624
     170     dih       7      10      15      14   193.25739454     0.05611703
     171     dih       7      10      15      19   -33.78928267     0.10180290
     172     dih       7      10      15      16    81.73086827     0.08840997
     173     dih       9      10      15      14   -70.88511162     0.04270263
     174     dih       9      10      15      19    62.06821117     0.08838850
     175     dih       9      10      15      16   177.58836211     0.07499557
[...]
      4      C     1.37842436    -0.19656125    -0.11833471
      5      O     2.51215490    -0.72822913    -0.23058384
      6      H    -1.06820438     0.71114278     0.01582150
      7      H    -0.68258303    -0.46160034     3.05708530
      8      H    -1.99331430     0.78914542     2.64692100
      9      H    -0.19513075     1.22071779     2.44788605
     10      C    -0.96241467     0.46506577     2.57068865
     11      C    -4.85285244    -2.25167226     0.30677395
     12      C    -4.72532664    -0.90538906    -0.03868964
     13      C    -3.47409179    -0.29712068    -0.01644194
     14      C    -2.31965932    -1.02242923     0.33800726
     15      C    -2.46690762    -2.37947282     0.68619278
     16      C    -3.71878581    -2.98384267     0.66950340
     17      H    -5.60131704    -0.32874622    -0.32486579
     18      H    -3.38302381     0.75231467    -0.28761723
     19      H    -1.60234320    -2.96737292     0.97885241
     20      H    -3.81306454    -4.03189530     0.94270884
     21      H    -5.82931909    -2.72940592     0.29393270
     22      H     1.28958234     0.88857531    -0.26316880
     23      B     3.89987072     0.18450069    -0.54588263
     24      F     4.58152713     0.10283083     0.64245158
     25      F     3.44979446     1.45669980    -0.85095920
     26      F     4.46308835    -0.48383859    -1.59764572
 
Total System Charge             0.00000
 
 *** GOStep29 ***

 Energy gradients wrt nuclear displacements
 ==========================================

     Atom      Cartesian (a.u./angstrom)
                 X         Y         Z
 ----------------------------------------
     1 H     0.000127 -0.000009  0.000210
     2 C     0.000182  0.000423 -0.000300
     3 C    -0.000400 -0.000136 -0.000050
     4 C    -0.000068  0.000273  0.000295
     5 O    -0.000178 -0.000155 -0.000202
     6 H     0.000192  0.000029 -0.000236
     7 H     0.000302  0.000211  0.000198
     8 H     0.000000 -0.000029  0.000100
     9 H    -0.000028 -0.000034 -0.000317
    10 C    -0.000216 -0.000606  0.000036
    11 C    -0.000069  0.000065  0.000436
    12 C     0.000013 -0.000041 -0.000167
    13 C     0.000219  0.000066 -0.000179
    14 C    -0.000327 -0.000044  0.000094
    15 C    -0.000036 -0.000091  0.000416
    16 C     0.000083 -0.000104 -0.000599
    17 H     0.000017  0.000015  0.000011
    18 H    -0.000017  0.000045  0.000112
    19 H    -0.000042  0.000016  0.000101
    20 H    -0.000003 -0.000011  0.000037
    21 H     0.000022 -0.000036 -0.000043
    22 H     0.000009 -0.000060 -0.000003
    23 B     0.000439  0.000253 -0.000416
    24 F    -0.000087 -0.000026  0.000072
    25 F     0.000102 -0.000180  0.000038
    26 F    -0.000235  0.000162  0.000358
 ----------------------------------------
 Mulliken charges used for AMS results%charges...
Hessian eigenvector     1(    -0.009) has overlap with TSRC:    0.42163E+00
Hessian eigenvector     1 has the largest overlap with TSRC:  0.42163
           Primitive Internal Coordinates (atoms in internal order)
-------------------------------------------------------------------------------
    index    type      i       j       k       l   value(A,deg)     Max Ovl Vect
-------------------------------------------------------------------------------
       1     bnd       1       3       0       0     1.08613864     0.00025023
       2     bnd       2       6       0       0     1.08893625    -0.00089157
       3     bnd       2      14       0       0     1.46594102     0.03051134
       4     bnd       2       3       0       0     1.38491202     0.04214100
       5     bnd       3       4       0       0     1.41899759    -0.00811401
       6     bnd       4      22       0       0     1.09835840    -0.00091082
       7     bnd       4       5       0       0     1.25722533     0.00752749
       8     bnd       5      23       0       0     1.69063428    -0.00399830
       9     bnd       8      10       0       0     1.08332499     0.00158580
      10     bnd       7      10       0       0     1.08332707    -0.00011847
      11     bnd       9      10       0       0     1.08388886     0.00008539
      12     bnd      11      21       0       0     1.08714372    -0.00008222
      13     bnd      11      12       0       0     1.39573864     0.00356450
      14     bnd      12      13       0       0     1.39142877     0.00526618
      15     bnd      13      14       0       0     1.40869481    -0.00500060
      16     bnd      14      15       0       0     1.40871662    -0.00418871
      17     bnd      15      19       0       0     1.08570154     0.00120992
      18     bnd      11      16       0       0     1.39776725     0.00063165
      19     bnd      15      16       0       0     1.39023037    -0.00189321
      20     bnd      16      20       0       0     1.08717248    -0.00042576
      21     bnd      12      17       0       0     1.08709380     0.00009944
      22     bnd      13      18       0       0     1.08772422     0.00013355
      23     bnd      23      25       0       0     1.38352120     0.00001981
      24     bnd      23      24       0       0     1.37239339    -0.00054700
      25     bnd      23      26       0       0     1.36751493     0.00101783
      26     bnd       2      10       0       0     2.41867371    -0.59713151
      27     bnd       3      10       0       0     3.02179848    -0.48814084
      28     bnd      10      14       0       0     3.00659618    -0.18103000
      29     ang       6       2      14       0   114.82557251     0.00160395
      30     ang       6       2       3       0   116.33640229     0.00149251
      31     ang       6       2      10       0    85.24480745     0.02237216
      32     ang      14       2       3       0   126.00712424    -0.05919676
      33     ang      14       2      10       0    98.43872670     0.14328030
      34     ang       3       2      10       0   101.74165676     0.00984736
      35     ang       1       3       2       0   122.15659963    -0.01351071
      36     ang       1       3       4       0   116.90050541    -0.00470681
      37     ang       1       3      10       0   114.57950483     0.04953466
      38     ang       2       3       4       0   120.94287301     0.01825505
      39     ang       2       3      10       0    51.59693379    -0.05910831
      40     ang       4       3      10       0   103.50901333    -0.00030586
      41     ang       3       4      22       0   119.20157157     0.00234800
      42     ang       3       4       5       0   122.17795706    -0.00155435
      43     ang      22       4       5       0   118.61794766    -0.00084946
      44     ang       4       5      23       0   121.90694287     0.00202307
      45     ang       8      10       7       0   118.04110095    -0.01675193
      46     ang       8      10       9       0   118.23277391    -0.01046982
      47     ang       8      10       2       0    98.19146430     0.02054945
      48     ang       8      10       3       0   124.53217327     0.07083151
      49     ang       8      10      14       0    76.74312822     0.01771749
      50     ang       7      10       9       0   117.66898719    -0.02031161
      51     ang       7      10       2       0    98.29862143     0.03431930
      52     ang       7      10       3       0    81.58584516     0.01078504
      53     ang       7      10      14       0    91.53688161     0.00989886
      54     ang       9      10       2       0    98.23448511     0.04540110
      55     ang       9      10       3       0    87.80449539     0.00997308
      56     ang       9      10      14       0   125.47489589     0.06580616
      57     ang       3      10      14       0    49.84753326     0.05493795
      58     ang      21      11      12       0   120.19941871    -0.00073012
      59     ang      21      11      16       0   120.10745535     0.00173820
      60     ang      12      11      16       0   119.69312550    -0.00071595
      61     ang      11      12      13       0   119.99131367     0.00449828
      62     ang      11      12      17       0   120.21070750    -0.00209603
      63     ang      13      12      17       0   119.79796114    -0.00243709
      64     ang      12      13      14       0   121.05608726    -0.00496869
      65     ang      12      13      18       0   119.54238426     0.00014920
      66     ang      14      13      18       0   119.39796744     0.00437382
      67     ang       2      14      13       0   118.55488164     0.00985524
      68     ang       2      14      15       0   123.22449087    -0.00651268
      69     ang       2      14      10       0    52.72579726    -0.15850278
      70     ang      13      14      15       0   118.19826242    -0.00251293
      71     ang      13      14      10       0   107.58121435     0.08444896
      72     ang      15      14      10       0   109.89140172     0.02104345
      73     ang      14      15      19       0   120.33266035    -0.00590797
      74     ang      14      15      16       0   120.65966184     0.01264388
      75     ang      19      15      16       0   119.00628992    -0.00684235
      76     ang      11      16      15       0   120.39764556    -0.00924333
      77     ang      11      16      20       0   119.98813201     0.00552250
      78     ang      15      16      20       0   119.61410726     0.00370043
      79     ang       5      23      25       0   105.69603730     0.00160743
      80     ang       5      23      24       0   102.36183251     0.00184977
      81     ang       5      23      26       0   102.57085800    -0.00003447
      82     ang      25      23      24       0   114.03123092    -0.00002687
      83     ang      25      23      26       0   114.44308677    -0.00163310
      84     ang      24      23      26       0   115.61411986    -0.00091819
      85     dih       6       2      14      13     2.38860329    -0.06460335
      86     dih       6       2      14      15   180.63534878    -0.01676712
      87     dih       6       2      14      10   -88.64153025    -0.09094292
      88     dih       3       2      14      13   202.26128481     0.13329930
      89     dih       3       2      14      15    20.50803030     0.18113554
      90     dih       3       2      14      10   111.23115127     0.10695973
      91     dih      10       2      14      13    91.03013354     0.02633957
      92     dih      10       2      14      15   -90.72312097     0.07417581
      93     dih       6       2       3       1   187.87226778     0.07791863
      94     dih       6       2       3       4     7.81667379     0.08796270
      95     dih       6       2       3      10    90.48203444     0.03085676
      96     dih      14       2       3       1   -12.26373280    -0.12299367
      97     dih      14       2       3       4   167.68067321    -0.11294960
      98     dih      14       2       3      10   250.34603387    -0.17005554
      99     dih      10       2       3       1    97.39023333     0.04706187
     100     dih      10       2       3       4   -82.66536065     0.05710593
     101     dih       1       3       4      22   179.50347796    -0.00142790
     102     dih       1       3       4       5     0.08965568     0.00375634
     103     dih       2       3       4      22    -0.44374561    -0.01095087
     104     dih       2       3       4       5   180.14243211    -0.00576663
     105     dih      10       3       4      22   -53.51313042     0.06079021
     106     dih      10       3       4       5   127.07304729     0.06597444
     107     dih       3       4       5      23   181.45488511    -0.00451399
     108     dih      22       4       5      23     2.03777449     0.00063455
     109     dih       4       5      23      25    -9.71969577    -0.04669054
     110     dih       4       5      23      24   109.92611694    -0.04523832
     111     dih       4       5      23      26   230.07914926    -0.04552769
     112     dih      21      11      12      13   179.78456952     0.00601815
     113     dih      21      11      12      17    -0.16695558     0.01482662
     114     dih      16      11      12      13    -0.22300962    -0.05134315
     115     dih      16      11      12      17   179.82546527    -0.04253469
     116     dih      11      12      13      14     0.65372873     0.04482615
     117     dih      11      12      13      18   179.96306312     0.01338772
     118     dih      17      12      13      14   180.60545507     0.03605364
     119     dih      17      12      13      18    -0.08521054     0.00461521
     120     dih      12      13      14       2   177.57686530     0.03463341
     121     dih      12      13      14      15    -0.75900439    -0.01067539
     122     dih      12      13      14      10   234.15129450    -0.10923526
     123     dih      18      13      14       2    -1.73345217     0.06606028
     124     dih      18      13      14      15   179.93067814     0.02075149
     125     dih      18      13      14      10    54.84097703    -0.07780838
     126     dih       2      14      15      19     2.62937227    -0.05375309
     127     dih       2      14      15      16   182.19654383    -0.06440952
     128     dih      13      14      15      19   180.88200436    -0.00593020
     129     dih      13      14      15      16     0.44917592    -0.01658662
     130     dih      10      14      15      19   -55.16768557     0.12344836
     131     dih      10      14      15      16   124.39948599     0.11279193
     132     dih      21      11      16      15   179.91024160    -0.03296724
     133     dih      21      11      16      20    -0.21368478    -0.01419044
     134     dih      12      11      16      15    -0.08218632     0.02434311
     135     dih      12      11      16      20   179.79388730     0.04311991
     136     dih      14      15      16      11    -0.03744875     0.00984032
     137     dih      14      15      16      20   180.08601516    -0.00886185
     138     dih      19      15      16      11   179.53539389    -0.00066367
     139     dih      19      15      16      20    -0.34114220    -0.01936584
     140     dih       6       2      10       8    72.31740953    -0.03033975
     141     dih       6       2      10       7   192.38178645    -0.03539790
     142     dih       6       2      10       9   -47.93044212    -0.03739424
     143     dih       6       2      10       3   244.06205713    -0.00652541
     144     dih       6       2      10      14   114.42976578    -0.00008634
     145     dih      14       2      10       8   -42.11235625    -0.03025341
     146     dih      14       2      10       7    77.95202068    -0.03531156
     147     dih      14       2      10       9   197.63979210    -0.03730790
     148     dih      14       2      10       3   129.63229135    -0.00643907
     149     dih       3       2      10       8   188.25535240    -0.02381434
     150     dih       3       2      10       7   -51.68027068    -0.02887248
     151     dih       3       2      10       9    68.00750075    -0.03086883
     152     dih       3       2      10      14   230.36770865     0.00643907
     153     dih       1       3      10       8   257.33586253     0.04148557
     154     dih       1       3      10       7    15.69996771     0.03733107
     155     dih       1       3      10       9   134.08739276     0.01327182
     156     dih       1       3      10       2   247.40172003     0.05988216
     157     dih       1       3      10      14   -83.52221849     0.05202880
     158     dih       2       3      10       8     9.93414250    -0.01839659
     159     dih       2       3      10       7   128.29824769    -0.02255109
     160     dih       2       3      10       9   246.68567273    -0.04661034
     161     dih       2       3      10      14    29.07606149    -0.00785336
     162     dih       4       3      10       8   128.90488407     0.01342136
     163     dih       4       3      10       7   247.26898926     0.00926686
     164     dih       4       3      10       9     5.65641430    -0.01479239
     165     dih       4       3      10       2   118.97074157     0.03181795
     166     dih       4       3      10      14   148.04680306     0.02396460
     167     dih       8      10      14       2   137.00638800    -0.02483725
     168     dih       8      10      14      13    24.11582476     0.02911925
     169     dih       8      10      14      15   254.19165705    -0.03878026
     170     dih       7      10      14       2   255.48482737    -0.04741037
     171     dih       7      10      14      13   142.59426412     0.00654613
     172     dih       7      10      14      15    12.67009642    -0.06135337
     173     dih       9      10      14       2    21.60893463    -0.02898276
     174     dih       9      10      14      13   -91.28162862     0.02497374
     175     dih       9      10      14      15   138.79420368    -0.04292576
     176     dih       2      10      14      13   247.10943675     0.05395650
     177     dih       2      10      14      15   117.18526905    -0.01394300
     178     dih       3      10      14       2   -26.88077708    -0.02938908
     179     dih       3      10      14      13   220.22865967     0.02456742
     180     dih       3      10      14      15    90.30449197    -0.04333208
 
----------------------------------------------------------------------
Geometry Convergence after Step  29       (Hartree/Angstrom,Angstrom)
----------------------------------------------------------------------
current energy                               -5.59604387 Hartree
energy change                      -0.00002001     0.00026000    T
constrained gradient max            0.00060489     0.00100000    T
constrained gradient rms            0.00020648     0.00066667    T
gradient max                        0.00060489
gradient rms                        0.00020648
cart. step max                      0.08999536     0.01000000    F
cart. step rms                      0.02637922     0.00666667    F
 
 
--------
Geometry
--------
Formula: C10H11BF3O
Atoms
  Index Symbol   x (angstrom)   y (angstrom)   z (angstrom)
      1      H     0.34460057    -2.01860260     0.32200914
      2      C    -1.02097797    -0.33552692     0.30665059
      3      C     0.21697400    -0.94726148     0.19734719
      4      C     1.38066748    -0.19295104    -0.10417057
      5      O     2.51354920    -0.72575644    -0.21673561
      6      H    -1.06704670     0.71621343     0.02845517
      7      H    -0.72333881    -0.45742979     3.07514562
      8      H    -2.00805206     0.81455442     2.64778266
      9      H    -0.20079764     1.21682181     2.47272003
     10      C    -0.98162855     0.47359956     2.58517270
     11      C    -4.84482186    -2.25830283     0.29179752
     12      C    -4.71827820    -0.91442766    -0.06262126
     13      C    -3.46975745    -0.30113644    -0.02935774
     14      C    -2.31701549    -1.01940632     0.34422522
     15      C    -2.46323387    -2.37379336     0.70344517
     16      C    -3.71344421    -2.98154215     0.68013075
     17      H    -5.59225729    -0.34464042    -0.36808117
     18      H    -3.37856007     0.74522983    -0.31204581
     19      H    -1.59986543    -2.95553416     1.01161399
     20      H    -3.80751140    -4.02750190     0.96129803
     21      H    -5.81918144    -2.74002890     0.27028374
     22      H     1.29231678     0.89140981    -0.25520552
     23      B     3.90155049     0.17660603    -0.56624436
     24      F     4.65076724     0.01283547     0.57034659
     25      F     3.46370005     1.47280363    -0.77262795
     26      F     4.38421641    -0.44157287    -1.68749369
 
Total System Charge             0.00000
 
 *** GOStep30 ***
