
 *******************************************************************************
 *                                                                             *
 *  --------------------------------                                           *
 *   Amsterdam Modeling Suite (AMS)              2021.102                      *
 *  --------------------------------                                           *
 *                                               r95042 2021-06-07             *
 *                                                                             *
 *                                                                             *
 *                              =================                              *
 *                              |               |                              *
 *                              |     A M S     |                              *
 *                              |               |                              *
 *                              =================                              *
 *                                                                             *
 *                                                                             *
 *   Online information and documentation:  https://www.scm.com/support/       *
 *   E-mail:  support@scm.com   info@scm.com                                   *
 *                                                                             *
 *   Scientific publications using AMS results must be properly referenced     *
 *   See the User Manuals (or the web site) for recommended citations          *
 *   The terms and conditions of the End User License Agreement apply to       *
 *   the use of AMS, https://www.scm.com/license-terms/                        *
 *                                                                             *
 **********************  x86_64_linux_intel / intelmpi  ************************
 
 Licensed to: VU/FEW (+ SARA) / ALGEMEEN / Amsterdam / THE NETHERLANDS
 SCM User ID: u7668
  
 AMS 2021.102  RunTime: Jan20-2022 14:26:59  ShM Nodes: 1  Procs: 1

 AMS jobname: 12.no_catalyst_F_H.P1
 AMS jobid  : 1004411332

 Start   directory: /scistor/tc/yhk800/MasterProject/calculations/no_catalyst_F_H/12.no_catalyst_F_H.P1/
 Results directory: /scistor/tc/yhk800/MasterProject/calculations/no_catalyst_F_H/12.no_catalyst_F_H.P1/
 Scratch directory: /scratch/3544/amstmp_12.no_catalyst_F_H.P1_kid0.1004411332/

 RNG seed: -1394240521 -1519457056 -183218066 -538201150 975649531 -57692965 -53838936 995898271



                      ************************************************************************
                      *  ADF 2021.102  RunTime: Jan20-2022 14:26:59  ShM Nodes: 1  Procs: 1  *
                      ************************************************************************
  
       ***************************
       *  GEOMETRY OPTIMIZATION  *
       ***************************

Optimization Method                    Quasi Newton
Optimization Coordinates               Delocalized Coordinates
Optimize lattice                       F
 
 ------------------------------------------------------
 Convergence criteria (Hartree,Angstrom)
 ------------------------------------------------------
 Maximum gradient               0.001000000000
 Maximum rms gradient           0.000666666667
 Maximum step allowed           0.010000000000
 Maximum rms step allowed       0.006666666667
 Maximum energy change allowe   0.000120000000
 Maximum stress energy allowe   0.000500000000
 
Initial model Hessian                  Automatic Hessian
 
------------------------------------
Quasi-Newton Optimizer Parameters
------------------------------------
Hessian Update Method                  BFGS
Maximum number of steps                  250
First GDIIS cycle                          0
Maximum GDIIS vectors                      0
Trust radius (bohr)                        0.200000
Trust radius varies                        T
Constraints converged at all steps         T
Use projector                              T
 
 Rigid motions settings for: old optimizer
 Atomic rotations (x,y,z):     T T T
 Atomic translations (x,y,z):  T T T
 Tolerance:                   1.000000000000000E-006
 
--------
Geometry
--------
Formula: C4H6FO
Atoms
  Index Symbol   x (angstrom)   y (angstrom)   z (angstrom)
      1      C     0.07237900     0.45849000     0.14701600
      2      C     0.88136400    -0.76962700     0.34543400
      3      H     0.32008500    -1.64937000     0.00848400
      4      C    -1.24453700     0.48140500    -0.41210600
      5      H     0.49150900     1.42171500     0.44020400
      6      O    -1.90880100     1.51397000    -0.58363800
      7      C     1.35798400    -0.97156700     1.79839200
      8      H     1.97578900    -1.87216200     1.87186400
      9      H     0.50807500    -1.08370100     2.47848500
     10      H     1.95613700    -0.12156000     2.14194000
     11      H     1.74870570    -0.70794881    -0.27811565
     12      F    -1.77975829    -0.77116689    -0.77638863
 
Total System Charge             0.00000
 
 
----------------
ADF Engine Input
----------------
 
 NumericalQuality VeryGood
 SCF
 Converge 1.0e-6
 Iterations 99
 End
 SYMMETRY NOSYM
 SpinPolarization 1.0
 Unrestricted Yes
 XC
 GGA OLYP
 End
 basis
 core None
 type TZ2P
 End
 

 Title: *** (NO TITLE) ***

 Using automatic Hessian for delocalized coordinates.
 *** GOStep1 ***

 Energy gradients wrt nuclear displacements
 ==========================================

     Atom      Cartesian (a.u./angstrom)
                 X         Y         Z
 ----------------------------------------
     1 C    -0.001557  0.023653  0.001188
     2 C     0.029800  0.010105 -0.020685
     3 H    -0.001998 -0.004246 -0.002153
     4 C     0.044312 -0.064401  0.011850
     5 H     0.007721  0.001699  0.003423
     6 O    -0.030121  0.072508 -0.005030
     7 C     0.000561 -0.002163 -0.002065
     8 H     0.000305 -0.000347  0.000795
     9 H    -0.000227  0.000256  0.000117
    10 H    -0.000516 -0.000044 -0.000603
    11 H    -0.033178 -0.003833  0.023157
    12 F    -0.015102 -0.033186 -0.009996
 ----------------------------------------
 Mulliken charges used for AMS results%charges...
 
----------------------------------------------------------------------
Geometry Convergence after Step   1       (Hartree/Angstrom,Angstrom)
----------------------------------------------------------------------
current energy                               -2.41414311 Hartree
energy change                      -2.41414311     0.00012000    F
constrained gradient max            0.07250398     0.00100000    F
constrained gradient rms            0.02212060     0.00066667    F
gradient max                        0.07250398
gradient rms                        0.02212060
cart. step max                      0.04708648     0.01000000    F
cart. step rms                      0.01302046     0.00666667    F
 
 
--------
Geometry
--------
Formula: C4H6FO
Atoms
  Index Symbol   x (angstrom)   y (angstrom)   z (angstrom)
      1      C     0.06550958     0.43923142     0.14438897
      2      C     0.88286358    -0.78503178     0.34377660
      3      H     0.32968579    -1.66846494     0.01245127
      4      C    -1.25086856     0.50823230    -0.40994781
      5      H     0.47859671     1.40125149     0.43889351
      6      O    -1.91423252     1.49743873    -0.58155069
      7      C     1.35761005    -0.96834774     1.80059462
      8      H     1.98476098    -1.86166868     1.87923229
      9      H     0.50773304    -1.08678662     2.47945659
     10      H     1.94666542    -0.11042778     2.14108239
     11      H     1.76951941    -0.71286870    -0.29011519
     12      F    -1.77891206    -0.72408041    -0.77669183
 
Total System Charge             0.00000
 
 *** GOStep2 ***

 Energy gradients wrt nuclear displacements
 ==========================================

     Atom      Cartesian (a.u./angstrom)
                 X         Y         Z
 ----------------------------------------
     1 C    -0.011197  0.009435 -0.003252
     2 C     0.011750  0.001874 -0.006875
     3 H    -0.000938 -0.001337 -0.000501
     4 C     0.006483  0.005256  0.003795
     5 H     0.001432 -0.000837  0.000390
     6 O     0.007463 -0.011475  0.001704
     7 C    -0.000318 -0.000800 -0.000661
     8 H    -0.000027  0.000047  0.000110
     9 H     0.000040  0.000134  0.000236
    10 H     0.000028  0.000116  0.000075
    11 H    -0.009747 -0.001619  0.007267
    12 F    -0.004968 -0.000796 -0.002288
 ----------------------------------------
 Mulliken charges used for AMS results%charges...

 dE(predicted):    -0.30779E-02, dE(actual):    -0.32388E-02, Trust radius:    0.200000, all in a.u.
 
----------------------------------------------------------------------
Geometry Convergence after Step   2       (Hartree/Angstrom,Angstrom)
----------------------------------------------------------------------
current energy                               -2.41738187 Hartree
energy change                      -0.00323876     0.00012000    F
constrained gradient max            0.01175128     0.00100000    F
constrained gradient rms            0.00493349     0.00066667    F
gradient max                        0.01175128
gradient rms                        0.00493349
cart. step max                      0.01015739     0.01000000    F
cart. step rms                      0.00431292     0.00666667    T
 
 
--------
Geometry
--------
Formula: C4H6FO
Atoms
  Index Symbol   x (angstrom)   y (angstrom)   z (angstrom)
      1      C     0.06499150     0.43260071     0.14356079
      2      C     0.88183727    -0.79073624     0.34449376
      3      H     0.33150597    -1.67500657     0.01449751
      4      C    -1.25466062     0.51632415    -0.41438504
      5      H     0.47619605     1.39456242     0.44037583
      6      O    -1.92378758     1.50759613    -0.58227875
      7      C     1.35804636    -0.96810026     1.80177187
      8      H     1.98875044    -1.85881253     1.88169924
      9      H     0.50860920    -1.08898797     2.48064660
     10      H     1.94384398    -0.10718891     2.14013770
     11      H     1.77470972    -0.71429072    -0.29447621
     12      F    -1.77111088    -0.71948290    -0.77447257
 
Total System Charge             0.00000
 
 *** GOStep3 ***

 Energy gradients wrt nuclear displacements
 ==========================================

     Atom      Cartesian (a.u./angstrom)
                 X         Y         Z
 ----------------------------------------
     1 C    -0.005055  0.000991 -0.001089
     2 C     0.004467 -0.000323 -0.002028
     3 H    -0.000533 -0.000250 -0.000054
     4 C     0.005359  0.000278  0.000589
     5 H    -0.000153 -0.000822 -0.000205
     6 O    -0.001928  0.001087 -0.000006
     7 C    -0.000403 -0.000296 -0.000069
     8 H    -0.000029  0.000034  0.000001
     9 H     0.000077  0.000066  0.000156
    10 H     0.000124  0.000104  0.000138
    11 H    -0.002112 -0.000522  0.001912
    12 F     0.000186 -0.000347  0.000653
 ----------------------------------------
 Mulliken charges used for AMS results%charges...

 dE(predicted):    -0.19476E-03, dE(actual):    -0.19807E-03, Trust radius:    0.200000, all in a.u.
 
----------------------------------------------------------------------
Geometry Convergence after Step   3       (Hartree/Angstrom,Angstrom)
----------------------------------------------------------------------
current energy                               -2.41757994 Hartree
energy change                      -0.00019807     0.00012000    F
constrained gradient max            0.00535721     0.00100000    F
constrained gradient rms            0.00163579     0.00066667    F
gradient max                        0.00535721
gradient rms                        0.00163579
cart. step max                      0.02744676     0.01000000    F
cart. step rms                      0.00703404     0.00666667    F
 
 
--------
Geometry
--------
Formula: C4H6FO
Atoms
  Index Symbol   x (angstrom)   y (angstrom)   z (angstrom)
      1      C     0.06019327     0.42904499     0.15078255
      2      C     0.87615675    -0.79384276     0.34935107
      3      H     0.32558579    -1.67897075     0.02369987
      4      C    -1.26292502     0.51617749    -0.40595882
      5      H     0.47233632     1.39147568     0.44644830
      6      O    -1.91987408     1.51230858    -0.59087851
      7      C     1.36317909    -0.96755313     1.80343477
      8      H     1.99635877    -1.85680112     1.88041504
      9      H     0.51839710    -1.08936034     2.48788547
     10      H     1.94923850    -0.10472611     2.13602537
     11      H     1.76690058    -0.71602793    -0.29771506
     12      F    -1.76661567    -0.71324730    -0.80191933
 
Total System Charge             0.00000
 
 *** GOStep4 ***

 Energy gradients wrt nuclear displacements
 ==========================================

     Atom      Cartesian (a.u./angstrom)
                 X         Y         Z
 ----------------------------------------
     1 C    -0.000259 -0.000237 -0.002607
     2 C     0.000814 -0.000892 -0.000301
     3 H    -0.000131  0.000148  0.000114
     4 C    -0.002519 -0.001014  0.009148
     5 H     0.000072 -0.000201 -0.000435
     6 O     0.000119  0.001724 -0.003728
     7 C    -0.000346  0.000055  0.000163
     8 H    -0.000021  0.000005 -0.000046
     9 H     0.000054  0.000019  0.000027
    10 H     0.000100  0.000047  0.000070
    11 H     0.000437  0.000124 -0.000024
    12 F     0.001680  0.000223 -0.002382
 ----------------------------------------
 Mulliken charges used for AMS results%charges...

 dE(predicted):    -0.32721E-04, dE(actual):     0.61285E-04, Trust radius:    0.020000, all in a.u.
 
----------------------------------------------------------------------
Geometry Convergence after Step   4       (Hartree/Angstrom,Angstrom)
----------------------------------------------------------------------
current energy                               -2.41751866 Hartree
energy change                       0.00006129     0.00012000    T
constrained gradient max            0.00914891     0.00100000    F
constrained gradient rms            0.00186802     0.00066667    F
gradient max                        0.00914891
gradient rms                        0.00186802
cart. step max                      0.00543609     0.01000000    T
cart. step rms                      0.00177618     0.00666667    T
 
 
--------
Geometry
--------
Formula: C4H6FO
Atoms
  Index Symbol   x (angstrom)   y (angstrom)   z (angstrom)
      1      C     0.06192219     0.42957253     0.14901923
      2      C     0.87700461    -0.79315125     0.34883016
      3      H     0.32703648    -1.67819992     0.02196890
      4      C    -1.26060172     0.51572590    -0.41043941
      5      H     0.47323003     1.39224728     0.44569750
      6      O    -1.91969896     1.51104195    -0.58757957
      7      C     1.36224560    -0.96762467     1.80335853
      8      H     1.99529145    -1.85693953     1.88082304
      9      H     0.51649156    -1.08969686     2.48657175
     10      H     1.94784550    -0.10495367     2.13697826
     11      H     1.76857835    -0.71511777    -0.29717441
     12      F    -1.77041369    -0.71442669    -0.79648325
 
Total System Charge             0.00000
 
 *** GOStep5 ***

 Energy gradients wrt nuclear displacements
 ==========================================

     Atom      Cartesian (a.u./angstrom)
                 X         Y         Z
 ----------------------------------------
     1 C     0.000007 -0.000046 -0.001427
     2 C     0.000363 -0.000619 -0.000211
     3 H    -0.000075  0.000156  0.000106
     4 C    -0.001995  0.000123  0.005104
     5 H     0.000219 -0.000010 -0.000219
     6 O     0.000684  0.000079 -0.001948
     7 C    -0.000287  0.000089  0.000178
     8 H    -0.000006 -0.000018 -0.000037
     9 H     0.000035  0.000012  0.000010
    10 H     0.000065  0.000002  0.000024
    11 H     0.000372  0.000202 -0.000068
    12 F     0.000620  0.000031 -0.001512
 ----------------------------------------
 Mulliken charges used for AMS results%charges...

 dE(predicted):    -0.58523E-04, dE(actual):    -0.58707E-04, Trust radius:    0.040000, all in a.u.
 
----------------------------------------------------------------------
Geometry Convergence after Step   5       (Hartree/Angstrom,Angstrom)
----------------------------------------------------------------------
current energy                               -2.41757736 Hartree
energy change                      -0.00005871     0.00012000    T
constrained gradient max            0.00510397     0.00100000    F
constrained gradient rms            0.00105452     0.00066667    F
gradient max                        0.00510397
gradient rms                        0.00105452
cart. step max                      0.00728344     0.01000000    T
cart. step rms                      0.00169337     0.00666667    T
 
 
--------
Geometry
--------
Formula: C4H6FO
Atoms
  Index Symbol   x (angstrom)   y (angstrom)   z (angstrom)
      1      C     0.06285776     0.43053788     0.14805287
      2      C     0.87659250    -0.79241733     0.34907629
      3      H     0.32650234    -1.67733492     0.02171934
      4      C    -1.25709829     0.51599507    -0.41772285
      5      H     0.47191055     1.39321142     0.44783296
      6      O    -1.92039138     1.51020570    -0.58531616
      7      C     1.36221236    -0.96780648     1.80325742
      8      H     1.99498420    -1.85732531     1.88045727
      9      H     0.51643115    -1.08981357     2.48647909
     10      H     1.94798430    -0.10536495     2.13703176
     11      H     1.76803885    -0.71569965    -0.29683982
     12      F    -1.77109293    -0.71571057    -0.79245745
 
Total System Charge             0.00000
 
 *** GOStep6 ***

 Energy gradients wrt nuclear displacements
 ==========================================

     Atom      Cartesian (a.u./angstrom)
                 X         Y         Z
 ----------------------------------------
     1 C    -0.000109 -0.000020 -0.000065
     2 C     0.000095 -0.000114 -0.000295
     3 H    -0.000025  0.000025  0.000017
     4 C    -0.000104  0.000221  0.000097
     5 H     0.000111  0.000046 -0.000092
     6 O     0.000075  0.000012  0.000045
     7 C    -0.000089 -0.000022  0.000172
     8 H     0.000007 -0.000035  0.000002
     9 H     0.000004  0.000011 -0.000019
    10 H     0.000015 -0.000025 -0.000022
    11 H     0.000000  0.000122  0.000161
    12 F     0.000019 -0.000220 -0.000001
 ----------------------------------------
 Mulliken charges used for AMS results%charges...

 dE(predicted):    -0.27937E-04, dE(actual):    -0.28743E-04, Trust radius:    0.040000, all in a.u.
 
---------------------------------------------------------
Geometry Convergence after Step   6       ** CONVERGED **
---------------------------------------------------------
current energy                               -2.41760611 Hartree
energy change                      -0.00002874     0.00012000    T
constrained gradient max            0.00029482     0.00100000    T
constrained gradient rms            0.00009961     0.00066667    T
gradient max                        0.00029482
gradient rms                        0.00009961
cart. step max                      0.00570115     0.01000000    T
cart. step rms                      0.00180667     0.00666667    T
 
Geometry optimization converged

Optimized geometry:
 
--------
Geometry
--------
Formula: C4H6FO
Atoms
  Index Symbol   x (angstrom)   y (angstrom)   z (angstrom)
      1      C     0.06285776     0.43053788     0.14805287
      2      C     0.87659250    -0.79241733     0.34907629
      3      H     0.32650234    -1.67733492     0.02171934
      4      C    -1.25709829     0.51599507    -0.41772285
      5      H     0.47191055     1.39321142     0.44783296
      6      O    -1.92039138     1.51020570    -0.58531616
      7      C     1.36221236    -0.96780648     1.80325742
      8      H     1.99498420    -1.85732531     1.88045727
      9      H     0.51643115    -1.08981357     2.48647909
     10      H     1.94798430    -0.10536495     2.13703176
     11      H     1.76803885    -0.71569965    -0.29683982
     12      F    -1.77109293    -0.71571057    -0.79245745
 
Total System Charge             0.00000
 
Performing a single point calculation on the final geometry ...

 *** adf ***



 ===========================
 A T T A C H E D   F I L E S
 ===========================
  
 Restart/scratch/3544/amstmp_12.no_catalyst_F_H.P1_kid0.1004411332/GOStep6.rkf
 *** GOStep6 ***



 ===============================
 M O D E L   P A R A M E T E R S
 ===============================
  
 DENSITY FUNCTIONAL POTENTIAL (scf)
    LDA:                               Exchange only                           == Not Default ==
    Gradient Corrections:              OPTX LYP                                == Not Default ==

 SPIN  (restricted / unrestr.)
    Molecule:                          UNrestricted                            == Not Default ==
    Fragments:                         Restricted                               

 OTHER ASPECTS
    Relativistic Corrections:          scalar (ZORA,MAPA)                       

    Nuclear Charge Density Model:      Point Charge Nuclei                      
    Core Treatment:                    Frozen Orbital(s)                        

    Hyperfine or Zeeman Interaction:   ---                                      



 ===============
 G E O M E T R Y  ***  3D  Molecule  ***
 ===============
  

 ATOMS
 =====                            X Y Z                    CHARGE
                                (Angstrom)             Nucl     +Core       At.Mass
                       --------------------------    ----------------       -------
    1  C               0.0629    0.4305    0.1481      6.00      6.00       12.0000
    2  C               0.8766   -0.7924    0.3491      6.00      6.00       12.0000
    3  H               0.3265   -1.6773    0.0217      1.00      1.00        1.0078
    4  C              -1.2571    0.5160   -0.4177      6.00      6.00       12.0000
    5  H               0.4719    1.3932    0.4478      1.00      1.00        1.0078
    6  O              -1.9204    1.5102   -0.5853      8.00      8.00       15.9949
    7  C               1.3622   -0.9678    1.8033      6.00      6.00       12.0000
    8  H               1.9950   -1.8573    1.8805      1.00      1.00        1.0078
    9  H               0.5164   -1.0898    2.4865      1.00      1.00        1.0078
   10  H               1.9480   -0.1054    2.1370      1.00      1.00        1.0078
   11  H               1.7680   -0.7157   -0.2968      1.00      1.00        1.0078
   12  F              -1.7711   -0.7157   -0.7925      9.00      9.00       18.9984


 FRAGMENTS
 =========                                     Atoms in this Fragment     Cart. coord.s (Angstrom)
                                               -------------------------------------------------------
    1  C                                                 1  C            0.0629    0.4305    0.1481
    2  C                                                 2  C            0.8766   -0.7924    0.3491
    3  C                                                 4  C           -1.2571    0.5160   -0.4177
    4  C                                                 7  C            1.3622   -0.9678    1.8033
    5  H                                                 3  H            0.3265   -1.6773    0.0217
    6  H                                                 5  H            0.4719    1.3932    0.4478
    7  H                                                 8  H            1.9950   -1.8573    1.8805
    8  H                                                 9  H            0.5164   -1.0898    2.4865
    9  H                                                10  H            1.9480   -0.1054    2.1370
   10  H                                                11  H            1.7680   -0.7157   -0.2968
   11  O                                                 6  O           -1.9204    1.5102   -0.5853
   12  F                                                12  F           -1.7711   -0.7157   -0.7925


 Interatomic Distance Matrix (Angstrom)
 --------------------------------------

   1)     0.000
   2)     1.483   0.000
   3)     2.128   1.092   0.000
   4)     1.439   2.618   2.741   0.000
   5)     1.088   2.225   3.103   2.123   0.000
   6)     2.374   3.741   3.947   1.207   2.608   0.000
   7)     2.527   1.543   2.179   3.741   2.864   4.756   0.000
   8)     3.460   2.175   2.504   4.636   3.865   5.723   1.094   0.000
   9)     2.826   2.188   2.541   3.763   3.213   4.705   1.094   1.773   0.000
  10)     2.792   2.195   3.094   4.146   2.698   4.999   1.095   1.771   1.772   0.000
  11)     2.102   1.104   1.762   3.269   2.585   4.318   2.154   2.469   3.075   2.516
          0.000
  12)     2.358   2.884   2.447   1.386   3.319   2.241   4.077   4.757   4.015   4.773
          3.574   0.000

 Min. Distance =    1.0881
 Max. Distance =    5.7228



 =====================================
 S Y M M E T R Y ,   E L E C T R O N S
 =====================================
  
 Symmetry: NOSYM

 Irreducible Representations, including subspecies
 -------------------------------------------------
 A


 Configuration of Valence Electrons
 ==================================
 ( determined in the SCF procedure )

 Total:   24 (Spin-A)  + 23 (Spin-B)

 Net Charge: 0 (Nuclei minus Electrons)
 Spin polar: 1 (Spin_A minus Spin_B electrons)

 Aufbau principle for MO occupations will be applied through SCF cycle no.      49
 Thereafter, the program will assign electrons to MOs that are spatially
 similar to the occupied MOs in a "reference" cycle ("KeepOrbitals").
 The reference cycle is always the PREVIOUS cycle: it will evolve with
 the SCF procedure.
1
 ***************************************************************************************************



                                      ****************************************
                                      *  B U I L D : (Fragments, Functions)  *
                                      ****************************************
  



 =======
 S F O s  ***  (Symmetrized Fragment Orbitals)  ***
 =======
  
 SFOs are linear combinations of (valence) Fragment Orbitals (FOs), such that the SFOs transform as the
 irreducible representations of the (molecular) symmetry group. Each SFO is therefore characterized by
 an irrep of the molecule and by a few (or only one) generating FOs.
 The SFOs constitute a symmetry-adapted basis for the Fock matrix. The MO eigenvector coefficients in
 this basis provide a direct interpretation of the MOs in terms of Frontier Orbital Theory.

 The SFOs are combined with auxiliary Core Functions (CFs) to ensure orthogonalization on the (frozen)
 Core Orbitals (COs). The Core-orthogonalized SFOs (CSFOs) constitute the true Fock basis.

 The FOs, and hence also the (C)SFOs are combinations of the elementary basis functions (BAS). The basis
 functions that participate in the description of the SFOs depend on the irrep. The indices of the
 involved functions are printed below for each irrep.
 (The complete list of primitive basis functions is printed in another section)

 Total nr. of (C)SFOs (summation over all irreps) :   222

 NOTE: a (C)SFO that is defined as a combination of more than one FO is usually NOT normalized.



                                       === A ===
 Nr. of SFOs :  222
 Cartesian basis functions that participate in this irrep (total number =   252) :
      1     2     3     4     5     6     9    12     7    10
     13     8    11    14    15    16    17    18    19    20
     21    22    23    24    25    26    27    28    29    30
     31    32    33    34    35    36    39    42    37    40
     43    38    41    44    45    46    47    48    49    50
     51    52    53    54    55    56    57    58    59    60
     61    62    63    64    65    66    69    72    67    70
     73    68    71    74    75    76    77    78    79    80
     81    82    83    84    85    86    87    88    89    90
     91    92    93    94    95    96    99   102    97   100
    103    98   101   104   105   106   107   108   109   110
    111   112   113   114   115   116   117   118   119   120
    121   122   123   124   125   126   127   128   129   130
    131   132   133   134   135   136   137   138   139   140
    141   142   143   144   145   146   147   148   149   150
    151   152   153   154   155   156   157   158   159   160
    161   162   163   164   165   166   167   168   169   170
    171   172   173   174   175   176   177   178   179   180
    181   182   183   184   185   186   187   188   189   190
    191   192   193   194   195   196   197   198   201   204
    199   202   205   200   203   206   207   208   209   210
    211   212   213   214   215   216   217   218   219   220
    221   222   223   224   225   226   227   228   231   234
    229   232   235   230   233   236   237   238   239   240
    241   242   243   244   245   246   247   248   249   250
    251   252

    SFO  (index         Fragment          Generating    Expansion in Fragment Orbitals
  indx  incl.CFs)   Occup   Orb.Energy   FragmentType  Coeff.   Orbital     on Fragment
 --------------------------------------------------------------------------------------
     1       1      2.000     -10.064 au  C             1.00      1 S               1
                        (    -273.865 eV)
     2       2      2.000      -0.507 au  C             1.00      2 S               1
                        (     -13.802 eV)
     3       3       --         0.384 au  C             1.00      3 S               1
                        (      10.456 eV)
     4       4       --         5.458 au  C             1.00      4 S               1
                        (     148.511 eV)
     5       5       --        49.970 au  C             1.00      5 S               1
                        (    1359.766 eV)
     6       6      0.667      -0.189 au  C             1.00      1 P:x             1
                        (      -5.135 eV)
     7       7       --         0.168 au  C             1.00      2 P:x             1
                        (       4.559 eV)
     8       8       --         2.056 au  C             1.00      3 P:x             1
                        (      55.959 eV)
     9       9      0.667      -0.189 au  C             1.00      1 P:y             1
                        (      -5.135 eV)
    10      10       --         0.168 au  C             1.00      2 P:y             1
                        (       4.559 eV)
    11      11       --         2.056 au  C             1.00      3 P:y             1
                        (      55.959 eV)
    12      12      0.667      -0.189 au  C             1.00      1 P:z             1
                        (      -5.135 eV)
    13      13       --         0.168 au  C             1.00      2 P:z             1
                        (       4.559 eV)
    14      14       --         2.056 au  C             1.00      3 P:z             1
                        (      55.959 eV)
    15      15       --         1.235 au  C             1.00      1 D:z2            1
                        (      33.605 eV)
    16      16       --         1.235 au  C             1.00      1 D:x2-y2         1
                        (      33.605 eV)
    17      17       --         1.235 au  C             1.00      1 D:xy            1
                        (      33.605 eV)
    18      18       --         1.235 au  C             1.00      1 D:xz            1
                        (      33.605 eV)
    19      19       --         1.235 au  C             1.00      1 D:yz            1
                        (      33.605 eV)
    20      20       --         4.005 au  C             1.00      1 F:z3            1
                        (     108.969 eV)
    21      21       --         4.005 au  C             1.00      1 F:z             1
                        (     108.969 eV)
    22      22       --         4.005 au  C             1.00      1 F:xyz           1
                        (     108.969 eV)
    23      23       --         4.005 au  C             1.00      1 F:z2x           1
                        (     108.969 eV)
    24      24       --         4.005 au  C             1.00      1 F:z2y           1
                        (     108.969 eV)
    25      25       --         4.005 au  C             1.00      1 F:x             1
                        (     108.969 eV)
    26      26       --         4.005 au  C             1.00      1 F:y             1
                        (     108.969 eV)
    27      27      2.000     -10.064 au  C             1.00      1 S               2
                        (    -273.865 eV)
    28      28      2.000      -0.507 au  C             1.00      2 S               2
                        (     -13.802 eV)
    29      29       --         0.384 au  C             1.00      3 S               2
                        (      10.456 eV)
    30      30       --         5.458 au  C             1.00      4 S               2
                        (     148.511 eV)
    31      31       --        49.970 au  C             1.00      5 S               2
                        (    1359.766 eV)
    32      32      0.667      -0.189 au  C             1.00      1 P:x             2
                        (      -5.135 eV)
    33      33       --         0.168 au  C             1.00      2 P:x             2
                        (       4.559 eV)
    34      34       --         2.056 au  C             1.00      3 P:x             2
                        (      55.959 eV)
    35      35      0.667      -0.189 au  C             1.00      1 P:y             2
                        (      -5.135 eV)
    36      36       --         0.168 au  C             1.00      2 P:y             2
                        (       4.559 eV)
    37      37       --         2.056 au  C             1.00      3 P:y             2
                        (      55.959 eV)
    38      38      0.667      -0.189 au  C             1.00      1 P:z             2
                        (      -5.135 eV)
    39      39       --         0.168 au  C             1.00      2 P:z             2
                        (       4.559 eV)
    40      40       --         2.056 au  C             1.00      3 P:z             2
                        (      55.959 eV)
    41      41       --         1.235 au  C             1.00      1 D:z2            2
                        (      33.605 eV)
    42      42       --         1.235 au  C             1.00      1 D:x2-y2         2
                        (      33.605 eV)
    43      43       --         1.235 au  C             1.00      1 D:xy            2
                        (      33.605 eV)
    44      44       --         1.235 au  C             1.00      1 D:xz            2
                        (      33.605 eV)
    45      45       --         1.235 au  C             1.00      1 D:yz            2
                        (      33.605 eV)
    46      46       --         4.005 au  C             1.00      1 F:z3            2
                        (     108.969 eV)
    47      47       --         4.005 au  C             1.00      1 F:z             2
                        (     108.969 eV)
    48      48       --         4.005 au  C             1.00      1 F:xyz           2
                        (     108.969 eV)
    49      49       --         4.005 au  C             1.00      1 F:z2x           2
                        (     108.969 eV)
    50      50       --         4.005 au  C             1.00      1 F:z2y           2
                        (     108.969 eV)
    51      51       --         4.005 au  C             1.00      1 F:x             2
                        (     108.969 eV)
    52      52       --         4.005 au  C             1.00      1 F:y             2
                        (     108.969 eV)
    53      53      2.000     -10.064 au  C             1.00      1 S               3
                        (    -273.865 eV)
    54      54      2.000      -0.507 au  C             1.00      2 S               3
                        (     -13.802 eV)
    55      55       --         0.384 au  C             1.00      3 S               3
                        (      10.456 eV)
    56      56       --         5.458 au  C             1.00      4 S               3
                        (     148.511 eV)
    57      57       --        49.970 au  C             1.00      5 S               3
                        (    1359.766 eV)
    58      58      0.667      -0.189 au  C             1.00      1 P:x             3
                        (      -5.135 eV)
    59      59       --         0.168 au  C             1.00      2 P:x             3
                        (       4.559 eV)
    60      60       --         2.056 au  C             1.00      3 P:x             3
                        (      55.959 eV)
    61      61      0.667      -0.189 au  C             1.00      1 P:y             3
                        (      -5.135 eV)
    62      62       --         0.168 au  C             1.00      2 P:y             3
                        (       4.559 eV)
    63      63       --         2.056 au  C             1.00      3 P:y             3
                        (      55.959 eV)
    64      64      0.667      -0.189 au  C             1.00      1 P:z             3
                        (      -5.135 eV)
    65      65       --         0.168 au  C             1.00      2 P:z             3
                        (       4.559 eV)
    66      66       --         2.056 au  C             1.00      3 P:z             3
                        (      55.959 eV)
    67      67       --         1.235 au  C             1.00      1 D:z2            3
                        (      33.605 eV)
    68      68       --         1.235 au  C             1.00      1 D:x2-y2         3
                        (      33.605 eV)
    69      69       --         1.235 au  C             1.00      1 D:xy            3
                        (      33.605 eV)
    70      70       --         1.235 au  C             1.00      1 D:xz            3
                        (      33.605 eV)
    71      71       --         1.235 au  C             1.00      1 D:yz            3
                        (      33.605 eV)
    72      72       --         4.005 au  C             1.00      1 F:z3            3
                        (     108.969 eV)
    73      73       --         4.005 au  C             1.00      1 F:z             3
                        (     108.969 eV)
    74      74       --         4.005 au  C             1.00      1 F:xyz           3
                        (     108.969 eV)
    75      75       --         4.005 au  C             1.00      1 F:z2x           3
                        (     108.969 eV)
    76      76       --         4.005 au  C             1.00      1 F:z2y           3
                        (     108.969 eV)
    77      77       --         4.005 au  C             1.00      1 F:x             3
                        (     108.969 eV)
    78      78       --         4.005 au  C             1.00      1 F:y             3
                        (     108.969 eV)
    79      79      2.000     -10.064 au  C             1.00      1 S               4
                        (    -273.865 eV)
    80      80      2.000      -0.507 au  C             1.00      2 S               4
                        (     -13.802 eV)
    81      81       --         0.384 au  C             1.00      3 S               4
                        (      10.456 eV)
    82      82       --         5.458 au  C             1.00      4 S               4
                        (     148.511 eV)
    83      83       --        49.970 au  C             1.00      5 S               4
                        (    1359.766 eV)
    84      84      0.667      -0.189 au  C             1.00      1 P:x             4
                        (      -5.135 eV)
    85      85       --         0.168 au  C             1.00      2 P:x             4
                        (       4.559 eV)
    86      86       --         2.056 au  C             1.00      3 P:x             4
                        (      55.959 eV)
    87      87      0.667      -0.189 au  C             1.00      1 P:y             4
                        (      -5.135 eV)
    88      88       --         0.168 au  C             1.00      2 P:y             4
                        (       4.559 eV)
    89      89       --         2.056 au  C             1.00      3 P:y             4
                        (      55.959 eV)
    90      90      0.667      -0.189 au  C             1.00      1 P:z             4
                        (      -5.135 eV)
    91      91       --         0.168 au  C             1.00      2 P:z             4
                        (       4.559 eV)
    92      92       --         2.056 au  C             1.00      3 P:z             4
                        (      55.959 eV)
    93      93       --         1.235 au  C             1.00      1 D:z2            4
                        (      33.605 eV)
    94      94       --         1.235 au  C             1.00      1 D:x2-y2         4
                        (      33.605 eV)
    95      95       --         1.235 au  C             1.00      1 D:xy            4
                        (      33.605 eV)
    96      96       --         1.235 au  C             1.00      1 D:xz            4
                        (      33.605 eV)
    97      97       --         1.235 au  C             1.00      1 D:yz            4
                        (      33.605 eV)
    98      98       --         4.005 au  C             1.00      1 F:z3            4
                        (     108.969 eV)
    99      99       --         4.005 au  C             1.00      1 F:z             4
                        (     108.969 eV)
   100     100       --         4.005 au  C             1.00      1 F:xyz           4
                        (     108.969 eV)
   101     101       --         4.005 au  C             1.00      1 F:z2x           4
                        (     108.969 eV)
   102     102       --         4.005 au  C             1.00      1 F:z2y           4
                        (     108.969 eV)
   103     103       --         4.005 au  C             1.00      1 F:x             4
                        (     108.969 eV)
   104     104       --         4.005 au  C             1.00      1 F:y             4
                        (     108.969 eV)
   105     105      1.000      -0.238 au  H             1.00      1 S               5
                        (      -6.484 eV)
   106     106       --         0.077 au  H             1.00      2 S               5
                        (       2.096 eV)
   107     107       --         1.521 au  H             1.00      3 S               5
                        (      41.380 eV)
   108     108       --         0.410 au  H             1.00      1 P:x             5
                        (      11.162 eV)
   109     109       --         0.410 au  H             1.00      1 P:y             5
                        (      11.162 eV)
   110     110       --         0.410 au  H             1.00      1 P:z             5
                        (      11.162 eV)
   111     111       --         2.567 au  H             1.00      1 D:z2            5
                        (      69.838 eV)
   112     112       --         2.567 au  H             1.00      1 D:x2-y2         5
                        (      69.838 eV)
   113     113       --         2.567 au  H             1.00      1 D:xy            5
                        (      69.838 eV)
   114     114       --         2.567 au  H             1.00      1 D:xz            5
                        (      69.838 eV)
   115     115       --         2.567 au  H             1.00      1 D:yz            5
                        (      69.838 eV)
   116     116      1.000      -0.238 au  H             1.00      1 S               6
                        (      -6.484 eV)
   117     117       --         0.077 au  H             1.00      2 S               6
                        (       2.096 eV)
   118     118       --         1.521 au  H             1.00      3 S               6
                        (      41.380 eV)
   119     119       --         0.410 au  H             1.00      1 P:x             6
                        (      11.162 eV)
   120     120       --         0.410 au  H             1.00      1 P:y             6
                        (      11.162 eV)
   121     121       --         0.410 au  H             1.00      1 P:z             6
                        (      11.162 eV)
   122     122       --         2.567 au  H             1.00      1 D:z2            6
                        (      69.838 eV)
   123     123       --         2.567 au  H             1.00      1 D:x2-y2         6
                        (      69.838 eV)
   124     124       --         2.567 au  H             1.00      1 D:xy            6
                        (      69.838 eV)
   125     125       --         2.567 au  H             1.00      1 D:xz            6
                        (      69.838 eV)
   126     126       --         2.567 au  H             1.00      1 D:yz            6
                        (      69.838 eV)
   127     127      1.000      -0.238 au  H             1.00      1 S               7
                        (      -6.484 eV)
   128     128       --         0.077 au  H             1.00      2 S               7
                        (       2.096 eV)
   129     129       --         1.521 au  H             1.00      3 S               7
                        (      41.380 eV)
   130     130       --         0.410 au  H             1.00      1 P:x             7
                        (      11.162 eV)
   131     131       --         0.410 au  H             1.00      1 P:y             7
                        (      11.162 eV)
   132     132       --         0.410 au  H             1.00      1 P:z             7
                        (      11.162 eV)
   133     133       --         2.567 au  H             1.00      1 D:z2            7
                        (      69.838 eV)
   134     134       --         2.567 au  H             1.00      1 D:x2-y2         7
                        (      69.838 eV)
   135     135       --         2.567 au  H             1.00      1 D:xy            7
                        (      69.838 eV)
   136     136       --         2.567 au  H             1.00      1 D:xz            7
                        (      69.838 eV)
   137     137       --         2.567 au  H             1.00      1 D:yz            7
                        (      69.838 eV)
   138     138      1.000      -0.238 au  H             1.00      1 S               8
                        (      -6.484 eV)
   139     139       --         0.077 au  H             1.00      2 S               8
                        (       2.096 eV)
   140     140       --         1.521 au  H             1.00      3 S               8
                        (      41.380 eV)
   141     141       --         0.410 au  H             1.00      1 P:x             8
                        (      11.162 eV)
   142     142       --         0.410 au  H             1.00      1 P:y             8
                        (      11.162 eV)
   143     143       --         0.410 au  H             1.00      1 P:z             8
                        (      11.162 eV)
   144     144       --         2.567 au  H             1.00      1 D:z2            8
                        (      69.838 eV)
   145     145       --         2.567 au  H             1.00      1 D:x2-y2         8
                        (      69.838 eV)
   146     146       --         2.567 au  H             1.00      1 D:xy            8
                        (      69.838 eV)
   147     147       --         2.567 au  H             1.00      1 D:xz            8
                        (      69.838 eV)
   148     148       --         2.567 au  H             1.00      1 D:yz            8
                        (      69.838 eV)
   149     149      1.000      -0.238 au  H             1.00      1 S               9
                        (      -6.484 eV)
   150     150       --         0.077 au  H             1.00      2 S               9
                        (       2.096 eV)
   151     151       --         1.521 au  H             1.00      3 S               9
                        (      41.380 eV)
   152     152       --         0.410 au  H             1.00      1 P:x             9
                        (      11.162 eV)
   153     153       --         0.410 au  H             1.00      1 P:y             9
                        (      11.162 eV)
   154     154       --         0.410 au  H             1.00      1 P:z             9
                        (      11.162 eV)
   155     155       --         2.567 au  H             1.00      1 D:z2            9
                        (      69.838 eV)
   156     156       --         2.567 au  H             1.00      1 D:x2-y2         9
                        (      69.838 eV)
   157     157       --         2.567 au  H             1.00      1 D:xy            9
                        (      69.838 eV)
   158     158       --         2.567 au  H             1.00      1 D:xz            9
                        (      69.838 eV)
   159     159       --         2.567 au  H             1.00      1 D:yz            9
                        (      69.838 eV)
   160     160      1.000      -0.238 au  H             1.00      1 S              10
                        (      -6.484 eV)
   161     161       --         0.077 au  H             1.00      2 S              10
                        (       2.096 eV)
   162     162       --         1.521 au  H             1.00      3 S              10
                        (      41.380 eV)
   163     163       --         0.410 au  H             1.00      1 P:x            10
                        (      11.162 eV)
   164     164       --         0.410 au  H             1.00      1 P:y            10
                        (      11.162 eV)
   165     165       --         0.410 au  H             1.00      1 P:z            10
                        (      11.162 eV)
   166     166       --         2.567 au  H             1.00      1 D:z2           10
                        (      69.838 eV)
   167     167       --         2.567 au  H             1.00      1 D:x2-y2        10
                        (      69.838 eV)
   168     168       --         2.567 au  H             1.00      1 D:xy           10
                        (      69.838 eV)
   169     169       --         2.567 au  H             1.00      1 D:xz           10
                        (      69.838 eV)
   170     170       --         2.567 au  H             1.00      1 D:yz           10
                        (      69.838 eV)
   171     171      2.000     -18.926 au  O             1.00      1 S              11
                        (    -515.001 eV)
   172     172      2.000      -0.887 au  O             1.00      2 S              11
                        (     -24.136 eV)
   173     173       --         0.804 au  O             1.00      3 S              11
                        (      21.890 eV)
   174     174       --        13.488 au  O             1.00      4 S              11
                        (     367.032 eV)
   175     175       --       121.767 au  O             1.00      5 S              11
                        (    3313.451 eV)
   176     176      1.333      -0.329 au  O             1.00      1 P:x            11
                        (      -8.949 eV)
   177     177       --         0.351 au  O             1.00      2 P:x            11
                        (       9.557 eV)
   178     178       --         3.863 au  O             1.00      3 P:x            11
                        (     105.120 eV)
   179     179      1.333      -0.329 au  O             1.00      1 P:y            11
                        (      -8.949 eV)
   180     180       --         0.351 au  O             1.00      2 P:y            11
                        (       9.557 eV)
   181     181       --         3.863 au  O             1.00      3 P:y            11
                        (     105.120 eV)
   182     182      1.333      -0.329 au  O             1.00      1 P:z            11
                        (      -8.949 eV)
   183     183       --         0.351 au  O             1.00      2 P:z            11
                        (       9.557 eV)
   184     184       --         3.863 au  O             1.00      3 P:z            11
                        (     105.120 eV)
   185     185       --         1.072 au  O             1.00      1 D:z2           11
                        (      29.175 eV)
   186     186       --         1.072 au  O             1.00      1 D:x2-y2        11
                        (      29.175 eV)
   187     187       --         1.072 au  O             1.00      1 D:xy           11
                        (      29.175 eV)
   188     188       --         1.072 au  O             1.00      1 D:xz           11
                        (      29.175 eV)
   189     189       --         1.072 au  O             1.00      1 D:yz           11
                        (      29.175 eV)
   190     190       --         3.353 au  O             1.00      1 F:z3           11
                        (      91.230 eV)
   191     191       --         3.353 au  O             1.00      1 F:z            11
                        (      91.230 eV)
   192     192       --         3.353 au  O             1.00      1 F:xyz          11
                        (      91.230 eV)
   193     193       --         3.353 au  O             1.00      1 F:z2x          11
                        (      91.230 eV)
   194     194       --         3.353 au  O             1.00      1 F:z2y          11
                        (      91.230 eV)
   195     195       --         3.353 au  O             1.00      1 F:x            11
                        (      91.230 eV)
   196     196       --         3.353 au  O             1.00      1 F:y            11
                        (      91.230 eV)
   197     197      2.000     -24.380 au  F             1.00      1 S              12
                        (    -663.424 eV)
   198     198      2.000      -1.107 au  F             1.00      2 S              12
                        (     -30.122 eV)
   199     199       --         0.011 au  F             1.00      3 S              12
                        (       0.309 eV)
   200     200       --         1.586 au  F             1.00      4 S              12
                        (      43.147 eV)
   201     201       --        47.962 au  F             1.00      5 S              12
                        (    1305.109 eV)
   202     202      1.667      -0.407 au  F             1.00      1 P:x            12
                        (     -11.083 eV)
   203     203       --         0.433 au  F             1.00      2 P:x            12
                        (      11.793 eV)
   204     204       --         4.596 au  F             1.00      3 P:x            12
                        (     125.057 eV)
   205     205      1.667      -0.407 au  F             1.00      1 P:y            12
                        (     -11.083 eV)
   206     206       --         0.433 au  F             1.00      2 P:y            12
                        (      11.793 eV)
   207     207       --         4.596 au  F             1.00      3 P:y            12
                        (     125.057 eV)
   208     208      1.667      -0.407 au  F             1.00      1 P:z            12
                        (     -11.083 eV)
   209     209       --         0.433 au  F             1.00      2 P:z            12
                        (      11.793 eV)
   210     210       --         4.596 au  F             1.00      3 P:z            12
                        (     125.057 eV)
   211     211       --         1.123 au  F             1.00      1 D:z2           12
                        (      30.566 eV)
   212     212       --         1.123 au  F             1.00      1 D:x2-y2        12
                        (      30.566 eV)
   213     213       --         1.123 au  F             1.00      1 D:xy           12
                        (      30.566 eV)
   214     214       --         1.123 au  F             1.00      1 D:xz           12
                        (      30.566 eV)
   215     215       --         1.123 au  F             1.00      1 D:yz           12
                        (      30.566 eV)
   216     216       --         3.416 au  F             1.00      1 F:z3           12
                        (      92.960 eV)
   217     217       --         3.416 au  F             1.00      1 F:z            12
                        (      92.960 eV)
   218     218       --         3.416 au  F             1.00      1 F:xyz          12
                        (      92.960 eV)
   219     219       --         3.416 au  F             1.00      1 F:z2x          12
                        (      92.960 eV)
   220     220       --         3.416 au  F             1.00      1 F:z2y          12
                        (      92.960 eV)
   221     221       --         3.416 au  F             1.00      1 F:x            12
                        (      92.960 eV)
   222     222       --         3.416 au  F             1.00      1 F:y            12
                        (      92.960 eV)



 ================================
 (Slater-type)  F U N C T I O N S  ***  (Basis and Fit)  ***
 ================================
  

 Atom Type    1  (C)
 ==============

 Valence Basis Sets:  10
 -----------------------
   1 S    7.680000
   1 S    5.000000
   2 S    1.280000
   2 S    2.100000
   2 S    4.600000
   2 P    0.820000
   2 P    1.480000
   2 P    2.940000
   3 D    2.200000
   4 F    3.300000

 Atom Type    2  (H)
 ==============

 Valence Basis Sets:   5
 -----------------------
   1 S    0.690000
   1 S    0.920000
   1 S    1.580000
   2 P    1.250000
   3 D    2.500000

 Atom Type    3  (O)
 ==============

 Valence Basis Sets:  10
 -----------------------
   1 S    9.800000
   1 S    6.800000
   2 S    7.580000
   2 S    2.880000
   2 S    1.720000
   2 P    4.080000
   2 P    2.080000
   2 P    1.120000
   3 D    2.000000
   4 F    3.000000

 Atom Type    4  (F)
 ==============

 Valence Basis Sets:  10
 -----------------------
   1 S   10.880000
   1 S    7.700000
   2 S    3.240000
   2 S    1.940000
   2 S    0.740000
   2 P    4.540000
   2 P    2.300000
   2 P    1.240000
   3 D    2.000000
   4 F    3.000000


 BAS: List of all Elementary Cartesian Basis Functions
 =====================================================

 The numbering in the list below (to the right of the function characteristics) is referred
 to in print-outs of MO eigenvectors and Mulliken populations in the BAS representation
 (as contrasted to the SFO representation).

 Notes:
 1. The functions are characterized by a polynomial prefactor (powers of x,y,z and r) and
    an exponential decay factor alpha.
 2. Since the basis sets are specific for an atom TYPE, the individual functions occur on
    all atoms of that type.
 3. The word 'Core' in the left margin signals that it is a Core Function (CF) : not a
    degree of freedom in the valence set, but only used to ensure orthogonalization of
    the other valence basis functions on the frozen Core Orbitals.


 (power of) X  Y  Z  R     Alpha  on Atom
            ==========     =====     ==========

 C                                    1    2    3    4
                                  ---------------------------------------------------------------------------
            0  0  0  0     7.680      1   31   61   91
            0  0  0  0     5.000      2   32   62   92
            0  0  0  1     1.280      3   33   63   93
            0  0  0  1     2.100      4   34   64   94
            0  0  0  1     4.600      5   35   65   95
            1  0  0  0     0.820      6   36   66   96
            0  1  0  0     0.820      7   37   67   97
            0  0  1  0     0.820      8   38   68   98
            1  0  0  0     1.480      9   39   69   99
            0  1  0  0     1.480     10   40   70  100
            0  0  1  0     1.480     11   41   71  101
            1  0  0  0     2.940     12   42   72  102
            0  1  0  0     2.940     13   43   73  103
            0  0  1  0     2.940     14   44   74  104
            2  0  0  0     2.200     15   45   75  105
            1  1  0  0     2.200     16   46   76  106
            1  0  1  0     2.200     17   47   77  107
            0  2  0  0     2.200     18   48   78  108
            0  1  1  0     2.200     19   49   79  109
            0  0  2  0     2.200     20   50   80  110
            3  0  0  0     3.300     21   51   81  111
            2  1  0  0     3.300     22   52   82  112
            2  0  1  0     3.300     23   53   83  113
            1  2  0  0     3.300     24   54   84  114
            1  1  1  0     3.300     25   55   85  115
            1  0  2  0     3.300     26   56   86  116
            0  3  0  0     3.300     27   57   87  117
            0  2  1  0     3.300     28   58   88  118
            0  1  2  0     3.300     29   59   89  119
            0  0  3  0     3.300     30   60   90  120

 H                                    5    6    7    8    9   10
                                  ---------------------------------------------------------------------------
            0  0  0  0     0.690    121  133  145  157  169  181
            0  0  0  0     0.920    122  134  146  158  170  182
            0  0  0  0     1.580    123  135  147  159  171  183
            1  0  0  0     1.250    124  136  148  160  172  184
            0  1  0  0     1.250    125  137  149  161  173  185
            0  0  1  0     1.250    126  138  150  162  174  186
            2  0  0  0     2.500    127  139  151  163  175  187
            1  1  0  0     2.500    128  140  152  164  176  188
            1  0  1  0     2.500    129  141  153  165  177  189
            0  2  0  0     2.500    130  142  154  166  178  190
            0  1  1  0     2.500    131  143  155  167  179  191
            0  0  2  0     2.500    132  144  156  168  180  192

 O                                   11
                                  ---------------------------------------------------------------------------
            0  0  0  0     9.800    193
            0  0  0  0     6.800    194
            0  0  0  1     7.580    195
            0  0  0  1     2.880    196
            0  0  0  1     1.720    197
            1  0  0  0     4.080    198
            0  1  0  0     4.080    199
            0  0  1  0     4.080    200
            1  0  0  0     2.080    201
            0  1  0  0     2.080    202
            0  0  1  0     2.080    203
            1  0  0  0     1.120    204
            0  1  0  0     1.120    205
            0  0  1  0     1.120    206
            2  0  0  0     2.000    207
            1  1  0  0     2.000    208
            1  0  1  0     2.000    209
            0  2  0  0     2.000    210
            0  1  1  0     2.000    211
            0  0  2  0     2.000    212
            3  0  0  0     3.000    213
            2  1  0  0     3.000    214
            2  0  1  0     3.000    215
            1  2  0  0     3.000    216
            1  1  1  0     3.000    217
            1  0  2  0     3.000    218
            0  3  0  0     3.000    219
            0  2  1  0     3.000    220
            0  1  2  0     3.000    221
            0  0  3  0     3.000    222

 F                                   12
                                  ---------------------------------------------------------------------------
            0  0  0  0    10.880    223
            0  0  0  0     7.700    224
            0  0  0  1     3.240    225
            0  0  0  1     1.940    226
            0  0  0  1     0.740    227
            1  0  0  0     4.540    228
            0  1  0  0     4.540    229
            0  0  1  0     4.540    230
            1  0  0  0     2.300    231
            0  1  0  0     2.300    232
            0  0  1  0     2.300    233
            1  0  0  0     1.240    234
            0  1  0  0     1.240    235
            0  0  1  0     1.240    236
            2  0  0  0     2.000    237
            1  1  0  0     2.000    238
            1  0  1  0     2.000    239
            0  2  0  0     2.000    240
            0  1  1  0     2.000    241
            0  0  2  0     2.000    242
            3  0  0  0     3.000    243
            2  1  0  0     3.000    244
            2  0  1  0     3.000    245
            1  2  0  0     3.000    246
            1  1  1  0     3.000    247
            1  0  2  0     3.000    248
            0  3  0  0     3.000    249
            0  2  1  0     3.000    250
            0  1  2  0     3.000    251
            0  0  3  0     3.000    252

 Total number of charge fitting functions (nprimf)       805
 Total number of Cartesian basis functions (naos)        252
 Total number of Cartesian core functions  (ncos)          0

1
 ***************************************************************************************************



                                              ***********************
                                              *  T E C H N I C A L  *
                                              ***********************
  



 =============================================================
 P A R A L L E L I Z A T I O N  and  V E C T O R I Z A T I O N
 =============================================================
  
 Nr of parallel processes:                                1
 Maximum vector length in NumInt loops:                 128



 =====================
 S C F   U P D A T E S
 =====================
  
 Max. nr. of cycles:                                99
 Convergence criterion:                              0.0000010000
   secondary criterion:                              0.0010000000

 Mix parameter (when DIIS does not apply):           0.2000000000
 Mixed ADIIS+SDIIS will be used                  
    Max number of expansion vectors:                10
    Pure ADIIS when Max([F,P]) is above              0.1000000000
    Pure SDIIS when Max([F,P]) is below              0.0010000000
 Automatic ElectronSmearing (in case of problematic SCF convergence) disabled



 =================
 P R E C I S I O N  ***  (General: NumInt, NeglectFunctionTails, ...)  ***
 =================
  

 NumInt:           Target precision:                 8.0000000000
 -------           Initial precision:                8.0000000000
                   Min. precision (optimization):    8.0000000000

 Neglect Functions:          Basis functions:        0.1000000000E-09
 ------------------          Fit functions:          0.1000000000E-09



 ===========================
 L I N E A R   S C A L I N G
 ===========================
  

 Cut-off radii density fit:                        0.1000000000E-11
 Overlap cut-off criterion AO matrix elements:     0.1000000000E-09
 Cut-offs for Coulomb potential and fitted density:0.1000000000E-11
 Cut-off criterion for Coulomb multipole terms:    0.1000000000E-11
 Progressive Convergence parameter:                 0.000000000    

 Number of elements of the density matrix on this node (used, total):     31878     31878



 ===========================================
 Numerical Integration : Fuzzy Cells (Becke)
 ===========================================
  
 Becke grid quality: VERYGOOD       
  
 Lebedev angular grid order:             min:  13 max:  41
 Nr. of radial points:                   min:  64 max:  76

 Total nr. of points:     287147
 Nr. of blocks:             2244
 Block length:               128
 Nr. of dummy points:         85


 Test of Precision of the Numerical Integration Grid
 ===================================================

 Integral of the Total Core Density:                   0.00000000000000



 ========================
 Density Fitting (zlmFit)
 ========================
  
 ZlmFit Fit Quality: VERYGOOD       
  
 Max L-expansion:                        min:  10 max:  11
 Nr. of radial interpolation points:     min: 130 max: 180



 =====
 S C F  ***  ScaSCF  ***
 =====
  
 Initial density matrix is taken from previous geometry

 CYCLE    1
  ***********************************************************
  ** : orbital data taken from :/scratch/3544/amstmp_12.no_catalyst_F_H.P1_kid0.1004411332/GOStep6.rkf
  ***********************************************************
 SCF Error: norm([F,P])=      0.000000742623, max([F,P])=      0.000000089684
 ***** SPIN 1 *****
 orbitals (Q,E):
 ---------------
 A :15...34          ( 1.00    -0.4309)  ( 1.00    -0.4130)  ( 1.00    -0.3901)  ( 1.00    -0.3677)
                     ( 1.00    -0.3434)  ( 1.00    -0.3384)  ( 1.00    -0.3328)  ( 1.00    -0.3265)
                     ( 1.00    -0.2625)  ( 1.00    -0.2201)  ( 0.00    -0.0246)  ( 0.00    -0.0118)
                     ( 0.00     0.0051)  ( 0.00     0.0086)  ( 0.00     0.0151)  ( 0.00     0.0532)
                     ( 0.00     0.0593)  ( 0.00     0.0698)  ( 0.00     0.1132)  ( 0.00     0.1183)
 ***** SPIN 2 *****
 orbitals (Q,E):
 ---------------
 A :14...33          ( 1.00    -0.4343)  ( 1.00    -0.4229)  ( 1.00    -0.4089)  ( 1.00    -0.3859)
                     ( 1.00    -0.3616)  ( 1.00    -0.3389)  ( 1.00    -0.3349)  ( 1.00    -0.3254)
                     ( 1.00    -0.3192)  ( 1.00    -0.2551)  ( 0.00    -0.1652)  ( 0.00    -0.0235)
                     ( 0.00     0.0019)  ( 0.00     0.0068)  ( 0.00     0.0111)  ( 0.00     0.0187)
                     ( 0.00     0.0538)  ( 0.00     0.0596)  ( 0.00     0.0705)  ( 0.00     0.1164)
  
 Spin polar: 1 (Spin_A minus Spin_B electrons)

 CYCLE    2
   MIX coefficients:  0.8000  0.2000
 SCF Error: norm([F,P])=      0.000001110246, max([F,P])=      0.000000143856
 ***** SPIN 1 *****
 orbitals (Q,E):
 ---------------
 A :15...25          ( 1.00    -0.4309)  ( 1.00    -0.4130)  ( 1.00    -0.3901)  ( 1.00    -0.3677)
                     ( 1.00    -0.3434)  ( 1.00    -0.3384)  ( 1.00    -0.3328)  ( 1.00    -0.3265)
                     ( 1.00    -0.2625)  ( 1.00    -0.2201)  ( 0.00    -0.0246)
 ***** SPIN 2 *****
 orbitals (Q,E):
 ---------------
 A :14...24          ( 1.00    -0.4343)  ( 1.00    -0.4229)  ( 1.00    -0.4089)  ( 1.00    -0.3859)
                     ( 1.00    -0.3616)  ( 1.00    -0.3389)  ( 1.00    -0.3349)  ( 1.00    -0.3254)
                     ( 1.00    -0.3192)  ( 1.00    -0.2551)  ( 0.00    -0.1652)
  
 Spin polar: 1 (Spin_A minus Spin_B electrons)

 SCF CONVERGED

 CYCLE    3
1
 ***************************************************************************************************



                                                *******************
                                                *  R E S U L T S  *
                                                *******************
  
 *** Using FIT density in Focky
  SDIIS (wt  0.000): -0.9135  1.9135
 A-DIIS (wt  1.000):  0.0000  1.0000
  DIIS coefficients:  0.0000  1.0000
 SCF Error: norm([F,P])=      0.000000540176, max([F,P])=      0.000000069225


                                   ***** SPIN 1 *****

 Scaled ZORA Orbital Energies, per Irrep and Spin:
 =================================================
                        Occup              E (au)              E (eV)       Diff (eV) with prev. cycle
                        -----      --------------------        ------       --------------------------
 A
              15        1.000     -0.43093214557948E+00       -11.726               2.52E-06
              16        1.000     -0.41302968946742E+00       -11.239               9.50E-07
              17        1.000     -0.39008599744374E+00       -10.615               4.09E-07
              18        1.000     -0.36767764689230E+00       -10.005              -8.13E-08
              19        1.000     -0.34340973948314E+00        -9.345               9.72E-07
              20        1.000     -0.33844442278836E+00        -9.210               1.52E-06
              21        1.000     -0.33277798222472E+00        -9.055               2.12E-06
              22        1.000     -0.32645821919895E+00        -8.883              -4.22E-07
              23        1.000     -0.26248964586036E+00        -7.143               2.38E-06
              24        1.000     -0.22007040816353E+00        -5.988               5.41E-07
              25        0.000     -0.24614335876094E-01        -0.670
              26        0.000     -0.11804137849243E-01        -0.321
              27        0.000      0.50550004926349E-02         0.138
              28        0.000      0.85946839025765E-02         0.234
              29        0.000      0.15052261521313E-01         0.410
              30        0.000      0.53162257612686E-01         1.447
              31        0.000      0.59327088284003E-01         1.614
              32        0.000      0.69821556109125E-01         1.900
              33        0.000      0.11320690921713E+00         3.081
              34        0.000      0.11831187582856E+00         3.219
  
 HOMO :       24 A                -0.22007040816353E+00
 LUMO :       25 A                -0.24614335876094E-01
  


                                   ***** SPIN 2 *****

 Scaled ZORA Orbital Energies, per Irrep and Spin:
 =================================================
                        Occup              E (au)              E (eV)       Diff (eV) with prev. cycle
                        -----      --------------------        ------       --------------------------
 A
              14        1.000     -0.43425738869688E+00       -11.817               4.85E-07
              15        1.000     -0.42289518007193E+00       -11.508               2.67E-06
              16        1.000     -0.40891899247122E+00       -11.127               1.03E-06
              17        1.000     -0.38593930919023E+00       -10.502               5.50E-07
              18        1.000     -0.36163892807734E+00        -9.841              -3.15E-07
              19        1.000     -0.33891874211733E+00        -9.222               9.20E-07
              20        1.000     -0.33489963742086E+00        -9.113               1.19E-06
              21        1.000     -0.32542165156540E+00        -8.855              -4.52E-07
              22        1.000     -0.31920683849577E+00        -8.686               2.48E-06
              23        1.000     -0.25513077658159E+00        -6.942               2.44E-06
              24        0.000     -0.16522523089619E+00        -4.496
              25        0.000     -0.23495099001583E-01        -0.639
              26        0.000      0.18610370361877E-02         0.051
              27        0.000      0.67514969256165E-02         0.184
              28        0.000      0.11070709844007E-01         0.301
              29        0.000      0.18718674634531E-01         0.509
              30        0.000      0.53786211933968E-01         1.464
              31        0.000      0.59596431591408E-01         1.622
              32        0.000      0.70530512686099E-01         1.919
              33        0.000      0.11641905015032E+00         3.168
  
 HOMO :       23 A                -0.25513077658159E+00
 LUMO :       24 A                -0.16522523089619E+00
  


 Orbital Energies, both Spins
 ========================================

 Irrep        no.  (spin)   Occup              E (au)                E (eV)
 ---------------------------------------------------------------------------
 A             1     A       1.00       -0.24294432170519E+02      -661.0851
 A             1      B      1.00       -0.24294228094629E+02      -661.0796
 A             2     A       1.00       -0.18790249874839E+02      -511.3087
 A             2      B      1.00       -0.18786005823941E+02      -511.1932
 A             3      B      1.00       -0.10056336086205E+02      -273.6468
 A             3     A       1.00       -0.10055788044873E+02      -273.6319
 A             4     A       1.00       -0.99676571976530E+01      -271.2338
 A             4      B      1.00       -0.99612748020860E+01      -271.0601
 A             5      B      1.00       -0.99403496495636E+01      -270.4907
 A             5     A       1.00       -0.99400945168136E+01      -270.4837
 A             6     A       1.00       -0.99227420491607E+01      -270.0115
 A             6      B      1.00       -0.99221789047776E+01      -269.9962
 A             7     A       1.00       -0.11316602394035E+01       -30.7940
 A             7      B      1.00       -0.11309233242662E+01       -30.7740
 A             8     A       1.00       -0.98238946285172E+00       -26.7322
 A             8      B      1.00       -0.97313970151605E+00       -26.4805
 A             9     A       1.00       -0.76197664092882E+00       -20.7344
 A             9      B      1.00       -0.74922554343707E+00       -20.3875
 A            10     A       1.00       -0.67723980510483E+00       -18.4286
 A            10      B      1.00       -0.66477824239426E+00       -18.0895
 A            11     A       1.00       -0.58423561526626E+00       -15.8979
 A            11      B      1.00       -0.58068027796471E+00       -15.8011
 A            12     A       1.00       -0.53593582566481E+00       -14.5836
 A            12      B      1.00       -0.53038744675756E+00       -14.4326
 A            13     A       1.00       -0.46971698107894E+00       -12.7816
 A            13      B      1.00       -0.46448783871526E+00       -12.6394
 A            14     A       1.00       -0.44224793611813E+00       -12.0342
 A            14      B      1.00       -0.43425738869688E+00       -11.8167
 A            15     A       1.00       -0.43093214557948E+00       -11.7263
 A            15      B      1.00       -0.42289518007193E+00       -11.5076
 A            16     A       1.00       -0.41302968946742E+00       -11.2391
 A            16      B      1.00       -0.40891899247122E+00       -11.1273
 A            17     A       1.00       -0.39008599744374E+00       -10.6148
 A            17      B      1.00       -0.38593930919023E+00       -10.5019
 A            18     A       1.00       -0.36767764689230E+00       -10.0050
 A            18      B      1.00       -0.36163892807734E+00        -9.8407
 A            19     A       1.00       -0.34340973948314E+00        -9.3447
 A            19      B      1.00       -0.33891874211733E+00        -9.2224
 A            20     A       1.00       -0.33844442278836E+00        -9.2095
 A            20      B      1.00       -0.33489963742086E+00        -9.1131
 A            21     A       1.00       -0.33277798222472E+00        -9.0553
 A            22     A       1.00       -0.32645821919895E+00        -8.8834
 A            21      B      1.00       -0.32542165156540E+00        -8.8552
 A            22      B      1.00       -0.31920683849577E+00        -8.6861
 A            23     A       1.00       -0.26248964586036E+00        -7.1427
 A            23      B      1.00       -0.25513077658159E+00        -6.9425
 A            24     A       1.00       -0.22007040816353E+00        -5.9884
 A            24      B      0.00       -0.16522523089619E+00        -4.4960
[...]
                                    4.30%     3 S               0.309  0.00    12 F
                                    4.30%     1 S              -6.484  1.00     6 H
                                    3.85%     1 S              -6.484  1.00     8 H
                                   -3.02%     2 P:y            11.793  0.00    12 F
                                   -2.92%     2 S               2.096  0.00     8 H
                                   -2.53%     1 P:x            -5.135  0.67     1 C
                                    2.38%     1 S              -6.484  1.00     7 H
                                    2.17%     2 P:z             4.559  0.00     3 C
                                   -1.98%     3 S              41.380  0.00     5 H
                                   -1.96%     3 S              21.890  0.00    11 O
                                   -1.89%     2 P:y             4.559  0.00     3 C
                                    1.82%     2 P:x             4.559  0.00     4 C
                                   -1.82%     2 P:z             4.559  0.00     4 C
                                    1.79%     1 S              -6.484  1.00     9 H
                                    1.55%     1 S              -6.484  1.00    10 H
                                   -1.47%     2 P:x             4.559  0.00     3 C
                                    1.33%     1 P:y            -8.949  1.33    11 O
                                   -1.19%     4 S              43.147  0.00    12 F
                                    1.12%     1 P:y           -11.083  1.67    12 F
                                    1.09%     1 P:x            -5.135  0.67     4 C
                                   -1.06%     2 S               2.096  0.00     7 H
                                    1.04%     1 P:y            11.162  0.00     6 H
                                   -1.01%     3 S              41.380  0.00     8 H
       4.750  0.00    39 A         43.56%     2 P:z             4.559  0.00     3 C
                                   15.56%     1 P:z            -5.135  0.67     4 C
                                    9.28%     1 S              -6.484  1.00     8 H
                                    9.09%     2 P:y             4.559  0.00     4 C
                                    8.55%     1 P:z            -5.135  0.67     3 C
                                    8.01%     1 P:y            -5.135  0.67     4 C
                                    6.40%     1 P:z            -5.135  0.67     2 C
                                    5.42%     1 S              -6.484  1.00     9 H
                                    4.72%     2 P:z             4.559  0.00     1 C
                                   -4.55%     2 S               2.096  0.00     8 H
                                   -4.49%     2 P:x             4.559  0.00     1 C
                                    4.45%     1 P:x            -5.135  0.67     1 C
                                   -4.21%     2 S               2.096  0.00     9 H
                                    3.08%     1 S              -6.484  1.00     7 H
                                   -2.99%     2 P:z             9.557  0.00    11 O
                                   -2.73%     1 P:y            -5.135  0.67     2 C
                                    2.45%     1 S              -6.484  1.00    10 H
                                    1.63%     2 P:x             4.559  0.00     3 C
                                   -1.54%     2 P:y             4.559  0.00     2 C
                                   -1.44%     2 P:z             4.559  0.00     4 C
                                   -1.44%     2 S               2.096  0.00    10 H
                                   -1.39%     2 P:z            11.793  0.00    12 F
                                   -1.28%     3 S              10.456  0.00     3 C
                                   -1.20%     3 S              41.380  0.00     7 H
                                    1.18%     1 P:x            -5.135  0.67     4 C
                                    1.11%     2 P:y             4.559  0.00     3 C
                                   -1.11%     2 P:z             4.559  0.00     2 C
                                    1.10%     1 P:y            11.162  0.00     8 H
                                   -1.00%     3 S              41.380  0.00     9 H

 Energy gradients wrt nuclear displacements
 ==========================================

     Atom      Cartesian (a.u./angstrom)
                 X         Y         Z
 ----------------------------------------
     1 C    -0.000109 -0.000020 -0.000065
     2 C     0.000095 -0.000114 -0.000295
     3 H    -0.000025  0.000025  0.000017
     4 C    -0.000103  0.000221  0.000097
     5 H     0.000111  0.000046 -0.000092
     6 O     0.000075  0.000012  0.000045
     7 C    -0.000089 -0.000022  0.000172
     8 H     0.000007 -0.000035  0.000002
     9 H     0.000004  0.000011 -0.000019
    10 H     0.000015 -0.000025 -0.000022
    11 H     0.000000  0.000122  0.000161
    12 F     0.000019 -0.000220 -0.000001
 ----------------------------------------



 =======================================================================
 Electrostatic potential at the Nuclei due to electrons and other nuclei
 =======================================================================
  
         Atom                  Potential
         ----                  ---------
     1)   C                  14.74193435
     2)   C                  14.75966150
     3)   H                   1.10400014
     4)   C                  14.65007113
     5)   H                   1.07714761
     6)   O                  22.39468544
     7)   C                  14.77863770
     8)   H                   1.10699800
     9)   H                   1.10959757
    10)   H                   1.10792138
    11)   H                   1.08916593
    12)   F                  26.64433960

=============================================================
=== CALCULATE ANALYTICAL SECOND DERIVATIVES OF THE ENERGY ===
=============================================================


-----------------------------------------------
*** RESTART ***
*** CHECKING FOR HESSIAN ON RESTART FILE ***
@@@ WARNING: Cannot find section: Hessian                                                                                                                                                         
*** NO HESSIAN EXISTS ON RESTART FILE ***
*** HESSIAN FROM RESTART FILE IS NOT COMPLETE ***
*** FURTHER CALCULATIONS WILL BE DONE         ***
-----------------------------------------------
                  ------------------------------------------------
                  
                  This Analytical Second Derivatives Progam    
                            was written for ADF by             
                  
                                Stephen K. Wolff               
                  
                         Scientific Computing & Modelling      
                  
                                Vrije University
                              Theoretical Chemistry
                                De Boelelaan 1083
                                1081 HV Amsterdam
                                 The Netherlands
                  
                  ------------------------------------------------
                  
                                    References:                
                                    ===========                
                  
                   Attila Berces, Ross M. Dickson, Liangyou Fan
                   Heiko Jacobsen, David Swerhone, Tom Ziegler,
                   Computer Physics Communications 100 (1997) 247.
                  
                   Heiko Jacobsen, Attila Berces
                   David Swerhone, Tom Ziegler,
                   Computer Physics Communications 100 (1997) 263.
                  
                   Stephen K. Wolff
                   Int. J. Quantum Chem. 104 (2005) 645.
                  
                  ------------------------------------------------
                  
              <><><><><><><><><><><><><><><><><><><><><><><><><>
 
                 SECOND DERIVATIVES INFORMATION:
                 -------------------------------
 
                 === PRINT
 
                   EIGS,  lprint_eigbas =  F
                   U1,    lprint_u1     =  F
                   PARTS, lprint_parts  =  F
 
                 === DEBUG
 
                   ALL        =  F
                   B1         =  F
                   DENSITIES  =  F
                   FIT        =  F
                   HESSIAN    =  F
                   NUMBERS    =  F
                   SYMMETRY   =  F
                   U1         =  F
 
                 === CPKS
 
                   MAX_CPKS_ITERATIONS    =    20
                   U1_ACCURACY PARAMETER  =     5.00
                   U1 ACCURACY            =     0.0000100
 

                 Estimated peak private memory usage    112 MB per process
                                 shared memory usage    911 MB per node

              <><><><><><><><><><><><><><><><><><><><><><><><><>

######## LOOPING OVER NUCLEI ########

==========================
###### NUCLEUS:     1  C  
==========================

====================  solving CPKS equations  ====================

NUCLEUS  COORD.    ITERATION   ACCURACY
-------  ------    ---------   --------
    1       1          1       0.33317154D-01
    1       1          2       0.22000970D-01
    1       1          3       0.58379075D-02
    1       1          4       0.37790129D-02
    1       1          5       0.23726449D-02
    1       1          6       0.31132721D-03
    1       1          7       0.15457025D-03
    1       1          8       0.41139110D-04
    1       1          9       0.10154993D-04
    1       1         10       0.44743080D-05
*** CPKS converged.
----------------------------------------------
    1       2          1       0.23423745D-01
    1       2          2       0.80313940D-02
    1       2          3       0.29187369D-02
    1       2          4       0.11958633D-02
    1       2          5       0.59353960D-03
    1       2          6       0.19818233D-03
    1       2          7       0.95733815D-04
    1       2          8       0.37532075D-04
    1       2          9       0.15697978D-04
    1       2         10       0.68632461D-05
*** CPKS converged.
----------------------------------------------
    1       3          1       0.13099408D-01
    1       3          2       0.11001320D-01
    1       3          3       0.41886789D-02
    1       3          4       0.18984622D-02
    1       3          5       0.63553467D-03
    1       3          6       0.25850794D-03
    1       3          7       0.11932794D-03
    1       3          8       0.59913134D-04
    1       3          9       0.11218614D-04
    1       3         10       0.33284337D-05
*** CPKS converged.
----------------------------------------------

====================  end of solving CPKS equations  ====================

==========================
###### NUCLEUS:     2  C  
==========================

====================  solving CPKS equations  ====================

NUCLEUS  COORD.    ITERATION   ACCURACY
-------  ------    ---------   --------
    2       1          1       0.36620364D-01
    2       1          2       0.11571542D-01
    2       1          3       0.19224190D-02
    2       1          4       0.15135360D-02
    2       1          5       0.81702764D-03
    2       1          6       0.21718547D-03
    2       1          7       0.63451601D-04
    2       1          8       0.19966303D-04
    2       1          9       0.77827271D-05
*** CPKS converged.
----------------------------------------------
    2       2          1       0.39913678D-01
    2       2          2       0.96878318D-02
    2       2          3       0.19464233D-02
    2       2          4       0.88443445D-03
    2       2          5       0.37327655D-03
    2       2          6       0.12832141D-03
    2       2          7       0.52828073D-04
    2       2          8       0.13879405D-04
    2       2          9       0.64428594D-05
*** CPKS converged.
----------------------------------------------
    2       3          1       0.36764416D-01
    2       3          2       0.60674959D-02
    2       3          3       0.38893688D-02
    2       3          4       0.19920910D-02
    2       3          5       0.70141316D-03
    2       3          6       0.19656739D-03
    2       3          7       0.33463055D-04
    2       3          8       0.19705485D-04
    2       3          9       0.41434158D-05
*** CPKS converged.
----------------------------------------------

====================  end of solving CPKS equations  ====================

==========================
###### NUCLEUS:     4  C  
==========================

====================  solving CPKS equations  ====================

NUCLEUS  COORD.    ITERATION   ACCURACY
-------  ------    ---------   --------
    4       1          1       0.16493901D+00
    4       1          2       0.28300914D-01
    4       1          3       0.19416187D-01
    4       1          4       0.67271422D-02
    4       1          5       0.15790900D-02
    4       1          6       0.33667722D-03
    4       1          7       0.19405533D-03
    4       1          8       0.48998575D-04
    4       1          9       0.21434713D-04
    4       1         10       0.55212919D-05
*** CPKS converged.
----------------------------------------------
    4       2          1       0.21873887D+00
    4       2          2       0.21109458D-01
    4       2          3       0.17698386D-01
    4       2          4       0.80454250D-02
    4       2          5       0.29410230D-02
    4       2          6       0.62368190D-03
    4       2          7       0.17071756D-03
    4       2          8       0.53316126D-04
    4       2          9       0.19879916D-04
    4       2         10       0.34009514D-05
*** CPKS converged.
----------------------------------------------
    4       3          1       0.46637319D-01
    4       3          2       0.12585201D-01
    4       3          3       0.73902659D-02
    4       3          4       0.50597940D-02
    4       3          5       0.94947931D-03
    4       3          6       0.25959670D-03
    4       3          7       0.17704665D-03
    4       3          8       0.50967093D-04
    4       3          9       0.17299672D-04
    4       3         10       0.72958098D-05
*** CPKS converged.
----------------------------------------------

====================  end of solving CPKS equations  ====================

==========================
###### NUCLEUS:     7  C  
==========================

====================  solving CPKS equations  ====================

NUCLEUS  COORD.    ITERATION   ACCURACY
-------  ------    ---------   --------
    7       1          1       0.12966713D-01
    7       1          2       0.64636832D-02
    7       1          3       0.15534430D-02
    7       1          4       0.49059854D-03
    7       1          5       0.33180813D-03
    7       1          6       0.10440719D-03
    7       1          7       0.56048227D-04
    7       1          8       0.13414693D-04
    7       1          9       0.27129870D-05
*** CPKS converged.
----------------------------------------------
    7       2          1       0.18020366D-01
    7       2          2       0.47179086D-02
    7       2          3       0.11651102D-02
    7       2          4       0.49420171D-03
    7       2          5       0.20400655D-03
    7       2          6       0.10300008D-03
    7       2          7       0.50821585D-04
    7       2          8       0.81554007D-05
*** CPKS converged.
----------------------------------------------
    7       3          1       0.23358344D-01
    7       3          2       0.77813692D-02
    7       3          3       0.26542540D-02
    7       3          4       0.39685932D-03
    7       3          5       0.37444479D-03
    7       3          6       0.11104991D-03
    7       3          7       0.34732147D-04
    7       3          8       0.10246687D-04
    7       3          9       0.45521296D-05
*** CPKS converged.
----------------------------------------------

====================  end of solving CPKS equations  ====================

==========================
###### NUCLEUS:     3  H  
==========================

====================  solving CPKS equations  ====================

NUCLEUS  COORD.    ITERATION   ACCURACY
-------  ------    ---------   --------
    3       1          1       0.41210772D-02
    3       1          2       0.27386139D-02
    3       1          3       0.64211555D-03
    3       1          4       0.18867480D-03
    3       1          5       0.70081339D-04
    3       1          6       0.31385649D-04
    3       1          7       0.95292759D-05
*** CPKS converged.
----------------------------------------------
    3       2          1       0.73339877D-02
    3       2          2       0.28180419D-02
    3       2          3       0.69339483D-03
    3       2          4       0.26527264D-03
    3       2          5       0.11270095D-03
    3       2          6       0.31131526D-04
    3       2          7       0.20710086D-04
    3       2          8       0.91695027D-05
*** CPKS converged.
----------------------------------------------
    3       3          1       0.43096035D-02
    3       3          2       0.16092359D-02
    3       3          3       0.66875528D-03
    3       3          4       0.11928973D-03
    3       3          5       0.55447375D-04
    3       3          6       0.24953268D-04
    3       3          7       0.16129826D-04
    3       3          8       0.27197538D-05
*** CPKS converged.
----------------------------------------------

====================  end of solving CPKS equations  ====================

==========================
###### NUCLEUS:     5  H  
==========================

====================  solving CPKS equations  ====================

NUCLEUS  COORD.    ITERATION   ACCURACY
-------  ------    ---------   --------
    5       1          1       0.18155254D-01
    5       1          2       0.18830843D-02
    5       1          3       0.86865685D-03
    5       1          4       0.47062690D-03
    5       1          5       0.15041607D-03
    5       1          6       0.59875330D-04
    5       1          7       0.18191311D-04
    5       1          8       0.52093660D-05
*** CPKS converged.
----------------------------------------------
    5       2          1       0.20731146D-01
    5       2          2       0.16260110D-02
    5       2          3       0.57629529D-03
    5       2          4       0.37453155D-03
    5       2          5       0.12342303D-03
    5       2          6       0.41155890D-04
    5       2          7       0.25263437D-04
    5       2          8       0.68075935D-05
*** CPKS converged.
----------------------------------------------
    5       3          1       0.10538768D-01
    5       3          2       0.28653658D-02
    5       3          3       0.80062865D-03
    5       3          4       0.46451541D-03
    5       3          5       0.97327019D-04
    5       3          6       0.67323436D-04
    5       3          7       0.27753577D-04
    5       3          8       0.12071009D-04
    5       3          9       0.50649803D-05
*** CPKS converged.
----------------------------------------------

====================  end of solving CPKS equations  ====================

==========================
###### NUCLEUS:     8  H  
==========================

====================  solving CPKS equations  ====================

NUCLEUS  COORD.    ITERATION   ACCURACY
-------  ------    ---------   --------
    8       1          1       0.68377415D-02
    8       1          2       0.22238037D-02
