
 *******************************************************************************
 *                                                                             *
 *  --------------------------------                                           *
 *   Amsterdam Modeling Suite (AMS)              2021.102                      *
 *  --------------------------------                                           *
 *                                               r95042 2021-06-07             *
 *                                                                             *
 *                                                                             *
 *                              =================                              *
 *                              |               |                              *
 *                              |     A M S     |                              *
 *                              |               |                              *
 *                              =================                              *
 *                                                                             *
 *                                                                             *
 *   Online information and documentation:  https://www.scm.com/support/       *
 *   E-mail:  support@scm.com   info@scm.com                                   *
 *                                                                             *
 *   Scientific publications using AMS results must be properly referenced     *
 *   See the User Manuals (or the web site) for recommended citations          *
 *   The terms and conditions of the End User License Agreement apply to       *
 *   the use of AMS, https://www.scm.com/license-terms/                        *
 *                                                                             *
 **********************  x86_64_linux_intel / intelmpi  ************************
 
 Licensed to: VU/FEW (+ SARA) / ALGEMEEN / Amsterdam / THE NETHERLANDS
 SCM User ID: u7668
  
 AMS 2021.102  RunTime: Jan20-2022 13:33:50  ShM Nodes: 1  Procs: 1

 AMS jobname: 15.no_catalyst_H_F.TS
 AMS jobid  : 927217019

 Start   directory: /scistor/tc/yhk800/MasterProject/calculations/no_catalyst_H_F/15.no_catalyst_H_F.TS/
 Results directory: /scistor/tc/yhk800/MasterProject/calculations/no_catalyst_H_F/15.no_catalyst_H_F.TS/
 Scratch directory: /scratch/3515/amstmp_15.no_catalyst_H_F.TS_kid0.927217019/

 RNG seed: 2097003512 997078376 -516807605 1743676868 -1401271564 1723537331 377192770 -1610815399



                      ************************************************************************
                      *  ADF 2021.102  RunTime: Jan20-2022 13:33:51  ShM Nodes: 1  Procs: 1  *
                      ************************************************************************
  
       *****************************
       *  TRANSITION STATE SEARCH  *
       *****************************

Optimization Method                    Quasi Newton
Optimization Coordinates               Delocalized Coordinates
Optimize lattice                       F
 
 ------------------------------------------------------
 Convergence criteria (Hartree,Angstrom)
 ------------------------------------------------------
 Maximum gradient               0.001000000000
 Maximum rms gradient           0.000666666667
 Maximum step allowed           0.010000000000
 Maximum rms step allowed       0.006666666667
 Maximum energy change allowe   0.000120000000
 Maximum stress energy allowe   0.000500000000
 
Initial model Hessian                  Automatic Hessian
 
------------------------------------
Quasi-Newton Optimizer Parameters
------------------------------------
Hessian Update Method                  Bofill
Maximum number of steps                  250
First GDIIS cycle                          0
Maximum GDIIS vectors                      0
Trust radius (bohr)                        0.200000
Trust radius varies                        F
Constraints converged at all steps         T
Use projector                              T
 
 Rigid motions settings for: old optimizer
 Atomic rotations (x,y,z):     T T T
 Atomic translations (x,y,z):  T T T
 Tolerance:                   1.000000000000000E-006
 
           1  TSRC entries:
    i   type      a1    a2    a3    a4    coef
    1 Distance     2     3               -1.000
 
--------
Geometry
--------
Formula: C4H6FO
Atoms
  Index Symbol   x (angstrom)   y (angstrom)   z (angstrom)
      1      C     0.81668000    -0.23471900     0.88197500
      2      C     0.81678400    -0.23413100    -0.47719300
      3      C    -1.53160000    -0.46998000    -1.30857600
      4      H     0.85636200    -1.16386700     1.44859300
      5      C     0.73893400     1.00063500     1.66014300
      6      H    -1.75224300    -1.42324600    -0.84366900
      7      H     0.86540100     0.70149500    -1.02879400
      8      H    -1.29572100    -0.45322200    -2.36675600
      9      H    -1.93437200     0.42729600    -0.85485600
     10      O     0.73088900     1.05622100     2.88164900
     11      F     1.05157196    -1.41471295    -1.21149598
     12      H     0.69350848     1.89581258     1.07576845
 
Total System Charge             0.00000
 
 
----------------
ADF Engine Input
----------------
 
 NumericalQuality VeryGood
 SCF
 Converge 1.0e-6
 Iterations 99
 End
 SYMMETRY NOSYM
 SpinPolarization 1.0
 Unrestricted Yes
 XC
 GGA OLYP
 End
 basis
 core None
 type TZ2P
 End
 

 Title: *** (NO TITLE) ***

 Using automatic Hessian for delocalized coordinates.
 *** GOStep1 ***

 Energy gradients wrt nuclear displacements
 ==========================================

     Atom      Cartesian (a.u./angstrom)
                 X         Y         Z
 ----------------------------------------
     1 C    -0.001486  0.019358  0.006405
     2 C    -0.010149  0.044878 -0.003165
     3 C     0.013236 -0.005252  0.002168
     4 H    -0.000718  0.000636  0.003725
     5 C    -0.001259  0.037647 -0.015180
     6 H    -0.002000  0.000048 -0.000524
     7 H    -0.002203  0.012334  0.017772
     8 H    -0.001140  0.000323 -0.000938
     9 H     0.001787 -0.000448  0.000027
    10 O    -0.000082  0.004174 -0.001130
    11 F     0.001860 -0.066739 -0.036641
    12 H     0.002154 -0.046959  0.027482
 ----------------------------------------
 Mulliken charges used for AMS results%charges...
           Primitive Internal Coordinates (atoms in internal order)
-------------------------------------------------------------------------------
    index    type      i       j       k       l   value(A,deg)     TSRC Vect
-------------------------------------------------------------------------------
       1     bnd       1       5       0       0     1.46208392     0.00000000
       2     bnd       1       2       0       0     1.35916813     0.10315886
       3     bnd       3       9       0       0     1.08313958     0.00000000
       4     bnd       1       4       0       0     1.08901177     0.00000000
       5     bnd       3       6       0       0     1.08329955     0.00000000
       6     bnd       2       7       0       0     1.08720894     0.00000000
       7     bnd       3       8       0       0     1.08428070     0.00000000
       8     bnd       5      10       0       0     1.22279656    -0.00000000
       9     bnd       2      11       0       0     1.41000000     0.03676003
      10     bnd       5      12       0       0     1.07000000    -0.00000000
      11     bnd       2       3       0       0     2.50234487    -0.35887021
      12     bnd       3      11       0       0     2.75222133    -0.15957066
      13     bnd       1       3       0       0     3.21998143    -0.19387568
      14     ang       5       1       2       0   122.13193049     0.00530576
      15     ang       5       1       4       0   116.48149708    -0.01751154
      16     ang       5       1       3       0   112.64562536     0.00890526
      17     ang       2       1       4       0   121.37727346     0.01181694
      18     ang       2       1       3       0    47.13980479    -0.06057879
      19     ang       4       1       3       0   108.55407601     0.03621682
      20     ang       1       2       7       0   120.51279539     0.00310371
      21     ang       1       2      11       0   121.36128198    -0.02631792
      22     ang       1       2       3       0   109.39804563     0.03460659
      23     ang       7       2      11       0   116.67222795     0.00714605
      24     ang       7       2       3       0    87.39281970    -0.02244698
      25     ang      11       2       3       0    84.51010433     0.05535709
      26     ang       9       3       6       0   118.25885447    -0.00057754
      27     ang       9       3       8       0   118.48323850     0.00069000
      28     ang       9       3       2       0    97.56929804    -0.00386000
      29     ang       9       3      11       0   128.21390110     0.02572575
      30     ang       9       3       1       0    85.73843521    -0.01649501
      31     ang       6       3       8       0   118.47247906    -0.00035183
      32     ang       6       3       2       0    97.55621160     0.00784235
      33     ang       6       3      11       0    82.75975470    -0.00909544
      34     ang       6       3       1       0    85.46171991    -0.00608310
      35     ang       8       3       2       0    96.81291220    -0.00342000
      36     ang       8       3      11       0    80.53456734    -0.01606283
      37     ang       8       3       1       0   120.27444570     0.02255234
      38     ang      11       3       1       0    46.88964471     0.04580478
      39     ang       1       5      10       0   124.78014579     0.00000000
      40     ang       1       5      12       0   114.73739870     0.00000000
      41     ang      10       5      12       0   120.48134627    -0.00000000
      42     ang       2      11       3       0    64.82849652    -0.08487942
      43     dih       2       1       5      10   179.74813341    -0.02997891
      44     dih       2       1       5      12    -0.63506965    -0.02997891
      45     dih       4       1       5      10     0.84367616    -0.00719439
      46     dih       4       1       5      12   180.46047311    -0.00719439
      47     dih       3       1       5      10   127.21624574     0.03717330
      48     dih       3       1       5      12   -53.16695732     0.03717330
      49     dih       5       1       2       7     6.57009342     0.02349142
      50     dih       5       1       2      11   172.35502844    -0.05271864
      51     dih       5       1       2       3   267.85385074     0.02752071
      52     dih       4       1       2       7   185.42152053    -0.00071568
      53     dih       4       1       2      11    -8.79354445    -0.07692573
      54     dih       4       1       2       3    86.70527785     0.00331362
      55     dih       3       1       2       7    98.71624268    -0.00402930
      56     dih       3       1       2      11   264.50117770    -0.08023936
      57     dih       1       2      11       3   109.40048400     0.07164399
      58     dih       7       2      11       3   -84.29422319    -0.00209407
      59     dih       1       2       3       9    60.36685908     0.00058381
      60     dih       1       2       3       6   -59.59533627     0.00026548
      61     dih       1       2       3       8   180.39271465    -0.00029465
      62     dih       1       2       3      11   238.63730923     0.00491410
      63     dih       7       2       3       9   -61.15415106     0.00027518
      64     dih       7       2       3       6   178.88365359    -0.00004315
      65     dih       7       2       3       8    58.87170451    -0.00060329
      66     dih       7       2       3      11   117.11629909     0.00460546
      67     dih       7       2       3       1   238.47898986    -0.00030863
      68     dih      11       2       3       9   181.72954985    -0.00433029
      69     dih      11       2       3       6    61.76735450    -0.00464862
      70     dih      11       2       3       8   -58.24459458    -0.00520875
      71     dih      11       2       3       1   121.36269077    -0.00491410
      72     dih       9       3      11       2     2.18228113    -0.00467341
      73     dih       6       3      11       2   241.69106591    -0.00441990
      74     dih       8       3      11       2   121.13490928    -0.01044677
      75     dih       1       3      11       2   -27.75476779    -0.01050167
      76     dih       5       1       3       9    -6.70885435     0.00031044
      77     dih       5       1       3       6   234.46351100    -0.00205957
      78     dih       5       1       3       8   113.97123608    -0.00348105
      79     dih       5       1       3       2   113.51971531    -0.00324925
      80     dih       5       1       3      11   150.13784247     0.00411839
      81     dih       2       1       3       9   239.77143035     0.00355969
      82     dih       2       1       3       6   120.94379569     0.00118967
      83     dih       2       1       3       8     0.45152078    -0.00023181
      84     dih       2       1       3      11    36.61812716     0.00736764
      85     dih       4       1       3       9   123.80841936     0.01411574
      86     dih       4       1       3       6     4.98078471     0.01174572
      87     dih       4       1       3       8   244.48850980     0.01032425
      88     dih       4       1       3       2   244.03698902     0.01055605
      89     dih       4       1       3      11   -79.34488382     0.01792369
Hessian eigenvector     1(     0.006) has overlap with TSRC:    0.97751E-04
Hessian eigenvector     2(     0.009) has overlap with TSRC:    0.39271E-01
Hessian eigenvector     3(     0.010) has overlap with TSRC:    0.48040E-01
Hessian eigenvector     4(     0.012) has overlap with TSRC:    0.77383E-01
Hessian eigenvector     5(     0.012) has overlap with TSRC:    0.16999E-01
Hessian eigenvector     6(     0.014) has overlap with TSRC:    0.34419E+00
Hessian eigenvector     7(     0.024) has overlap with TSRC:    0.11362E+00
Hessian eigenvector     8(     0.039) has overlap with TSRC:    0.11841E+00
Hessian eigenvector     9(     0.051) has overlap with TSRC:    0.61540E-02
Hessian eigenvector    10(     0.062) has overlap with TSRC:    0.90123E-02
Hessian eigenvector    11(     0.072) has overlap with TSRC:    0.25896E-01
Hessian eigenvector    12(     0.080) has overlap with TSRC:    0.26429E-01
Hessian eigenvector    13(     0.084) has overlap with TSRC:    0.18923E-01
Hessian eigenvector    14(     0.086) has overlap with TSRC:    0.21334E-01
Hessian eigenvector    15(     0.093) has overlap with TSRC:    0.14577E-01
Hessian eigenvector    16(     0.104) has overlap with TSRC:    0.21253E+00
Hessian eigenvector    17(     0.121) has overlap with TSRC:    0.16155E+00
Hessian eigenvector    18(     0.161) has overlap with TSRC:    0.12509E+00
Hessian eigenvector    19(     0.226) has overlap with TSRC:    0.17605E-07
Hessian eigenvector    20(     0.249) has overlap with TSRC:    0.42921E-08
Hessian eigenvector    21(     0.457) has overlap with TSRC:    0.30996E-01
Hessian eigenvector    22(     0.466) has overlap with TSRC:    0.88585E-01
Hessian eigenvector    23(     0.500) has overlap with TSRC:    0.16708E-14
Hessian eigenvector    24(     0.501) has overlap with TSRC:    0.17069E-14
Hessian eigenvector    25(     0.503) has overlap with TSRC:    0.57463E-16
Hessian eigenvector    26(     0.503) has overlap with TSRC:    0.16650E-14
Hessian eigenvector    27(     0.503) has overlap with TSRC:    0.13780E-15
Hessian eigenvector    28(     0.509) has overlap with TSRC:    0.58639E-15
Hessian eigenvector    29(     0.526) has overlap with TSRC:    0.24902E-14
Hessian eigenvector    30(     0.601) has overlap with TSRC:    0.89382E-15
Hessian eigenvector     6 has the largest overlap with TSRC:  0.34419
           Primitive Internal Coordinates (atoms in internal order)
-------------------------------------------------------------------------------
    index    type      i       j       k       l   value(A,deg)     Max Ovl Vect
-------------------------------------------------------------------------------
       1     bnd       1       5       0       0     1.46208392    -0.00000000
       2     bnd       1       2       0       0     1.35916813    -0.01226140
       3     bnd       3       9       0       0     1.08313958     0.00000000
       4     bnd       1       4       0       0     1.08901177    -0.00000000
       5     bnd       3       6       0       0     1.08329955    -0.00000000
       6     bnd       2       7       0       0     1.08720894    -0.00000000
       7     bnd       3       8       0       0     1.08428070    -0.00000000
       8     bnd       5      10       0       0     1.22279656    -0.00000000
       9     bnd       2      11       0       0     1.41000000    -0.00217351
      10     bnd       5      12       0       0     1.07000000    -0.00000000
      11     bnd       2       3       0       0     2.50234487     0.48675430
      12     bnd       3      11       0       0     2.75222133     0.04054398
      13     bnd       1       3       0       0     3.21998143     0.07621296
      14     ang       5       1       2       0   122.13193049    -0.00311982
      15     ang       5       1       4       0   116.48149708    -0.01552183
      16     ang       5       1       3       0   112.64562536    -0.01378813
      17     ang       2       1       4       0   121.37727346     0.01906394
      18     ang       2       1       3       0    47.13980479     0.17037923
      19     ang       4       1       3       0   108.55407601    -0.10040904
      20     ang       1       2       7       0   120.51279539     0.03022139
      21     ang       1       2      11       0   121.36128198     0.01807194
      22     ang       1       2       3       0   109.39804563    -0.19225276
      23     ang       7       2      11       0   116.67222795     0.04616697
      24     ang       7       2       3       0    87.39281970    -0.03057505
      25     ang      11       2       3       0    84.51010433    -0.15643273
      26     ang       9       3       6       0   118.25885447     0.00020353
      27     ang       9       3       8       0   118.48323850     0.00123278
      28     ang       9       3       2       0    97.56929804     0.00513380
      29     ang       9       3      11       0   128.21390110    -0.00835873
      30     ang       9       3       1       0    85.73843521     0.00381447
      31     ang       6       3       8       0   118.47247906    -0.00157722
      32     ang       6       3       2       0    97.55621160     0.00751281
      33     ang       6       3      11       0    82.75975470    -0.00000203
      34     ang       6       3       1       0    85.46171991    -0.01306836
      35     ang       8       3       2       0    96.81291220    -0.01231417
      36     ang       8       3      11       0    80.53456734     0.00796458
      37     ang       8       3       1       0   120.27444570     0.00946858
      38     ang      11       3       1       0    46.88964471    -0.00808137
      39     ang       1       5      10       0   124.78014579    -0.00008220
      40     ang       1       5      12       0   114.73739870    -0.00009812
      41     ang      10       5      12       0   120.48134627    -0.00008506
      42     ang       2      11       3       0    64.82849652     0.17045125
      43     dih       2       1       5      10   179.74813341     0.18246375
      44     dih       2       1       5      12    -0.63506965     0.13662353
      45     dih       4       1       5      10     0.84367616     0.15738488
      46     dih       4       1       5      12   180.46047311     0.11154466
      47     dih       3       1       5      10   127.21624574    -0.01223476
      48     dih       3       1       5      12   -53.16695732    -0.05807498
      49     dih       5       1       2       7     6.57009342    -0.23300562
      50     dih       5       1       2      11   172.35502844     0.22753389
      51     dih       5       1       2       3   267.85385074    -0.08347042
      52     dih       4       1       2       7   185.42152053    -0.20710061
      53     dih       4       1       2      11    -8.79354445     0.25343890
      54     dih       4       1       2       3    86.70527785    -0.05756542
      55     dih       3       1       2       7    98.71624268    -0.14953520
      56     dih       3       1       2      11   264.50117770     0.31100431
      57     dih       1       2      11       3   109.40048400    -0.31993600
      58     dih       7       2      11       3   -84.29422319     0.12176147
      59     dih       1       2       3       9    60.36685908     0.02910410
      60     dih       1       2       3       6   -59.59533627     0.02598737
      61     dih       1       2       3       8   180.39271465     0.02873802
      62     dih       1       2       3      11   238.63730923     0.05571757
      63     dih       7       2       3       9   -61.15415106     0.03971362
      64     dih       7       2       3       6   178.88365359     0.03659690
      65     dih       7       2       3       8    58.87170451     0.03934755
      66     dih       7       2       3      11   117.11629909     0.06632709
      67     dih       7       2       3       1   238.47898986     0.01060952
      68     dih      11       2       3       9   181.72954985    -0.02661347
      69     dih      11       2       3       6    61.76735450    -0.02973020
      70     dih      11       2       3       8   -58.24459458    -0.02697955
      71     dih      11       2       3       1   121.36269077    -0.05571757
      72     dih       9       3      11       2     2.18228113    -0.03386269
      73     dih       6       3      11       2   241.69106591    -0.03148513
      74     dih       8       3      11       2   121.13490928    -0.02788135
      75     dih       1       3      11       2   -27.75476779    -0.04837239
      76     dih       5       1       3       9    -6.70885435     0.04265635
      77     dih       5       1       3       6   234.46351100     0.04127009
      78     dih       5       1       3       8   113.97123608     0.04899865
      79     dih       5       1       3       2   113.51971531     0.01590200
      80     dih       5       1       3      11   150.13784247     0.02918918
      81     dih       2       1       3       9   239.77143035     0.02675435
      82     dih       2       1       3       6   120.94379569     0.02536809
      83     dih       2       1       3       8     0.45152078     0.03309665
      84     dih       2       1       3      11    36.61812716     0.01328718
      85     dih       4       1       3       9   123.80841936    -0.07314012
      86     dih       4       1       3       6     4.98078471    -0.07452638
      87     dih       4       1       3       8   244.48850980    -0.06679782
      88     dih       4       1       3       2   244.03698902    -0.09989447
      89     dih       4       1       3      11   -79.34488382    -0.08660730
 
----------------------------------------------------------------------
Geometry Convergence after Step   1       (Hartree/Angstrom,Angstrom)
----------------------------------------------------------------------
current energy                               -2.32899209 Hartree
