

 Parallel Execution: Process Information
 ==============================================================================
 Rank   Node Name                              NodeID   MyNodeRank  NodeMaster
    0   node120                                   0          0          0
    1   node120                                   0          1         -1
    2   node120                                   0          2         -1
    3   node120                                   0          3         -1
 ==============================================================================


May use up to 122928MB of RAM as shared memory on node 0

 *******************************************************************************
 *                                                                             *
 *  --------------------------------                                           *
 *   Amsterdam Modeling Suite (AMS)              2021.102                      *
 *  --------------------------------                                           *
 *                                               r95042 2021-06-07             *
 *                                                                             *
 *                                                                             *
 *                              =================                              *
 *                              |               |                              *
 *                              |     A M S     |                              *
 *                              |               |                              *
 *                              =================                              *
 *                                                                             *
 *                                                                             *
 *   Online information and documentation:  https://www.scm.com/support/       *
 *   E-mail:  support@scm.com   info@scm.com                                   *
 *                                                                             *
 *   Scientific publications using AMS results must be properly referenced     *
 *   See the User Manuals (or the web site) for recommended citations          *
 *   The terms and conditions of the End User License Agreement apply to       *
 *   the use of AMS, https://www.scm.com/license-terms/                        *
 *                                                                             *
 **********************  x86_64_linux_intel / intelmpi  ************************
 
 Licensed to: VU/FEW (+ SARA) / ALGEMEEN / Amsterdam / THE NETHERLANDS
 SCM User ID: u7668
  
 AMS 2021.102  RunTime: Jan28-2022 10:53:00  ShM Nodes: 1  Procs: 4

 AMS jobname: 45.achiral_catalyst.H_tBu_SnCl4.Rsub_cat_complex
 AMS jobid  : 1256247696

 Start   directory: /scistor/tc/yhk800/MasterProject/calculations/achiral_catalyst_H_tBu_SnCl4/45.achiral_catalyst.H_tBu_SnCl4.Rsub_cat_complex/
 Results directory: /scistor/tc/yhk800/MasterProject/calculations/achiral_catalyst_H_tBu_SnCl4/45.achiral_catalyst.H_tBu_SnCl4.Rsub_cat_complex/
 Scratch directory: /scratch/5505/amstmp_45.achiral_catalyst.H_tBu_SnCl4.Rsub_cat_complex_kid0.1256247696/


 Communication costs MPI_COMM_WORLD:      0.921 usec per message,   0.0072 usec per 8-byte item
 Communication costs for intra-node:      0.933 usec per message,   0.0041 usec per 8-byte item

 RNG seed: -1060912095 602246391 -535413165 359263471 -1136895590 123675093 1449416014 1376105972



                      ************************************************************************
                      *  ADF 2021.102  RunTime: Jan28-2022 10:53:00  ShM Nodes: 1  Procs: 4  *
                      ************************************************************************
  
       ***************************
       *  GEOMETRY OPTIMIZATION  *
       ***************************

Optimization Method                    Quasi Newton
Optimization Coordinates               Delocalized Coordinates
Optimize lattice                       F
 
 ------------------------------------------------------
 Convergence criteria (Hartree,Angstrom)
 ------------------------------------------------------
 Maximum gradient               0.001000000000
 Maximum rms gradient           0.000666666667
 Maximum step allowed           0.010000000000
 Maximum rms step allowed       0.006666666667
 Maximum energy change allowe   0.000250000000
 Maximum stress energy allowe   0.000500000000
 
Initial model Hessian                  Automatic Hessian
 
------------------------------------
Quasi-Newton Optimizer Parameters
------------------------------------
Hessian Update Method                  BFGS
Maximum number of steps                  250
First GDIIS cycle                          0
Maximum GDIIS vectors                      0
Trust radius (bohr)                        0.200000
Trust radius varies                        T
Constraints converged at all steps         T
Use projector                              T
 
 Rigid motions settings for: old optimizer
 Atomic rotations (x,y,z):     T T T
 Atomic translations (x,y,z):  T T T
 Tolerance:                   1.000000000000000E-006
 
--------
Geometry
--------
Formula: C7H12Cl4OSn
Atoms
  Index Symbol   x (angstrom)   y (angstrom)   z (angstrom)
      1      H    -0.62056146    -0.03764738    -0.08023722
      2      C    -0.09659473    -2.02948020    -0.54883449
      3      C     0.18266548    -0.75219647    -0.26512258
      4      C     1.55928918    -0.22013974    -0.18291419
      5      O     1.86635738     0.93365884     0.07180470
      6      H     0.69695300    -2.74612423    -0.73626627
      7      C    -1.53512390    -3.98169459    -1.12156823
      8      C    -1.54987465    -2.53359044    -0.62266085
      9      C    -2.32371837    -1.63885453    -1.59566924
     10      C    -2.16108997    -2.45555144     0.77964353
     11      H    -2.14765732    -1.42687928     1.14159999
     12      H    -2.55099094    -4.37493076    -1.18722103
     13      H    -0.96277866    -4.61120054    -0.43929077
     14      H    -1.07715113    -4.03683810    -2.10978859
     15      H    -3.36175531    -1.96622602    -1.67465053
     16      H    -1.87118027    -1.67785219    -2.58715690
     17      H    -2.31140649    -0.60455404    -1.25008242
     18      H    -3.19455491    -2.80588288     0.76743983
     19      H    -1.59305862    -3.07453987     1.47502332
     20      H     2.32514145    -0.94333367    -0.37095895
     21     Sn     1.85103070     2.46611042     0.80757453
     22     Cl     0.20071494     1.71760154     2.33218143
     23     Cl     0.15272687     3.16663123    -0.68683791
     24     Cl     3.50134646     3.21461931    -0.71703237
     25     Cl     3.54933453     1.76558961     2.30198697
 
Total System Charge             0.00000
 
 
----------------
ADF Engine Input
----------------
 
 NumericalQuality VeryGood
 SCF
 Converge 1.0e-6
 Iterations 99
 End
 SYMMETRY NOSYM
 XC
 GGA OLYP
 End
 basis
 core None
 type TZ2P
 End
 

 Title: *** (NO TITLE) ***

 Using automatic Hessian for delocalized coordinates.
 *** GOStep1 ***

 Energy gradients wrt nuclear displacements
 ==========================================

     Atom      Cartesian (a.u./angstrom)
                 X         Y         Z
 ----------------------------------------
     1 H    -0.009551  0.002101  0.000212
     2 C     0.031457  0.018721  0.002832
     3 C    -0.046819 -0.070149 -0.014011
     4 C     0.098123  0.090470  0.020942
     5 O    -0.024149  0.391436  0.195362
     6 H    -0.006757  0.003430 -0.000166
     7 C     0.000851 -0.001165 -0.000411
     8 C    -0.030134  0.005534  0.007337
     9 C     0.000872 -0.006080  0.002764
    10 C    -0.002419 -0.004400 -0.008246
    11 H     0.003257 -0.000211 -0.005619
    12 H     0.001332  0.002928  0.000997
    13 H    -0.000891  0.006515 -0.001349
    14 H    -0.000413  0.004365  0.005136
    15 H     0.002833  0.001277 -0.000281
    16 H     0.001556 -0.002308  0.005412
    17 H     0.006268 -0.002485  0.004873
    18 H     0.002917  0.001752  0.001310
    19 H     0.000811  0.001501 -0.006285
    20 H    -0.037205  0.018767  0.007237
    21 Sn   -0.004665 -0.394405 -0.180439
    22 Cl    0.021645 -0.009249 -0.030486
    23 Cl    0.021588 -0.026364  0.009658
    24 Cl   -0.014641 -0.023662  0.006874
    25 Cl   -0.015867 -0.008319 -0.023654
 ----------------------------------------
 Mulliken charges used for AMS results%charges...
 
----------------------------------------------------------------------
Geometry Convergence after Step   1       (Hartree/Angstrom,Angstrom)
----------------------------------------------------------------------
current energy                               -4.43847882 Hartree
energy change                      -4.43847882     0.00025000    F
constrained gradient max            0.39441757     0.00100000    F
constrained gradient rms            0.07437257     0.00066667    F
gradient max                        0.39441757
gradient rms                        0.07437257
cart. step max                      0.10058687     0.01000000    F
cart. step rms                      0.02752565     0.00666667    F
 
 
--------
Geometry
--------
Formula: C7H12Cl4OSn
Atoms
  Index Symbol   x (angstrom)   y (angstrom)   z (angstrom)
      1      H    -0.61033782    -0.01152265    -0.08442143
      2      C    -0.11580801    -2.02279180    -0.55183978
      3      C     0.17691090    -0.74015784    -0.27092066
      4      C     1.55330469    -0.24422788    -0.19904876
      5      O     1.88448534     0.88406843     0.03965096
      6      H     0.68095874    -2.73903026    -0.73726122
      7      C    -1.52683618    -3.99584590    -1.12235977
      8      C    -1.56064647    -2.54350269    -0.62675002
      9      C    -2.34997565    -1.66215219    -1.60696566
     10      C    -2.17594521    -2.46878885     0.77905947
     11      H    -2.17988975    -1.43999156     1.14239240
     12      H    -2.53780550    -4.40308278    -1.18784058
     13      H    -0.94741387    -4.61935559    -0.43856240
     14      H    -1.06787676    -4.05146850    -2.11143891
     15      H    -3.38298464    -2.00813009    -1.68282211
     16      H    -1.89936180    -1.69762770    -2.60057895
     17      H    -2.35843066    -0.62431901    -1.27144010
     18      H    -3.20502928    -2.83410415     0.76377759
     19      H    -1.60284375    -3.07808461     1.48051071
     20      H     2.31407311    -0.98585319    -0.39192327
     21     Sn     1.88777809     2.48066066     0.81389041
     22     Cl     0.22767658     1.80985952     2.37554325
     23     Cl     0.19238175     3.26721810    -0.65204488
     24     Cl     3.54732820     3.26971317    -0.68842918
     25     Cl     3.58435121     1.80521194     2.33078467
 
Total System Charge             0.00000
 
 *** GOStep2 ***

 Energy gradients wrt nuclear displacements
 ==========================================

     Atom      Cartesian (a.u./angstrom)
                 X         Y         Z
 ----------------------------------------
     1 H    -0.005700  0.001327  0.000108
     2 C     0.027059  0.008020  0.000689
     3 C    -0.031145 -0.042018 -0.008629
     4 C     0.092735  0.140691  0.032209
     5 O    -0.039754  0.182079  0.113069
     6 H    -0.005729  0.001591 -0.000580
     7 C     0.000927 -0.001675 -0.000927
     8 C    -0.027285  0.002572  0.006468
     9 C     0.000317 -0.004090  0.001618
    10 C    -0.002095 -0.003280 -0.006048
    11 H     0.002681 -0.000188 -0.004107
    12 H     0.000878  0.002322  0.000781
    13 H    -0.000342  0.004978 -0.000903
    14 H    -0.000008  0.003384  0.003721
    15 H     0.002006  0.001144 -0.000205
    16 H     0.001482 -0.001498  0.003935
    17 H     0.004941 -0.002095  0.003275
    18 H     0.002054  0.001537  0.001096
    19 H     0.000951  0.001161 -0.004577
    20 H    -0.026474  0.015663  0.005860
    21 Sn   -0.007271 -0.261163 -0.118071
    22 Cl    0.015054 -0.007431 -0.021705
    23 Cl    0.015251 -0.019507  0.005930
    24 Cl   -0.009905 -0.017325  0.003935
    25 Cl   -0.010627 -0.006199 -0.016944
 ----------------------------------------
 Mulliken charges used for AMS results%charges...

 dE(predicted):    -0.35415E-01, dE(actual):    -0.36463E-01, Trust radius:    0.400000, all in a.u.
 
----------------------------------------------------------------------
Geometry Convergence after Step   2       (Hartree/Angstrom,Angstrom)
----------------------------------------------------------------------
current energy                               -4.47494132 Hartree
energy change                      -0.03646250     0.00025000    F
constrained gradient max            0.26117978     0.00100000    F
constrained gradient rms            0.04720255     0.00066667    F
gradient max                        0.26117978
gradient rms                        0.04720255
cart. step max                      0.21186642     0.01000000    F
cart. step rms                      0.06048174     0.00666667    F
 
 
--------
Geometry
--------
Formula: C7H12Cl4OSn
Atoms
  Index Symbol   x (angstrom)   y (angstrom)   z (angstrom)
      1      H    -0.59593455     0.04304199    -0.10138774
      2      C    -0.16365549    -2.00232276    -0.55971803
      3      C     0.15710120    -0.71643545    -0.28927126
      4      C     1.53809666    -0.30273329    -0.24016081
      5      O     1.94795445     0.83172714    -0.02662297
      6      H     0.64472739    -2.71251140    -0.73796710
      7      C    -1.50696784    -4.02398506    -1.12048066
      8      C    -1.58361087    -2.56320454    -0.63568339
      9      C    -2.41249728    -1.71793719    -1.62894481
     10      C    -2.20801142    -2.49857402     0.77683311
     11      H    -2.25609388    -1.47079394     1.14311514
     12      H    -2.50605205    -4.46294408    -1.18258084
     13      H    -0.91140127    -4.63306585    -0.43375450
     14      H    -1.04867394    -4.08317275    -2.11219802
     15      H    -3.43091072    -2.11101184    -1.69372503
     16      H    -1.97030370    -1.74489599    -2.62867076
     17      H    -2.47256201    -0.67406817    -1.31528194
     18      H    -3.22441623    -2.90189793     0.75288107
     19      H    -1.62352564    -3.08435046     1.49192915
     20      H     2.27874475    -1.09115533    -0.44158784
     21     Sn     1.97362993     2.51354805     0.82587122
     22     Cl     0.29203717     1.98813659     2.44193449
     23     Cl     0.29940703     3.47908451    -0.57860068
     24     Cl     3.65988507     3.40332191    -0.60406622
     25     Cl     3.65109651     1.88289445     2.39910016
 
Total System Charge             0.00000
 
 *** GOStep3 ***

 Energy gradients wrt nuclear displacements
 ==========================================

     Atom      Cartesian (a.u./angstrom)
                 X         Y         Z
 ----------------------------------------
     1 H    -0.000758 -0.000275 -0.000198
     2 C     0.017164  0.006283  0.000789
     3 C    -0.012799 -0.018415 -0.005208
     4 C     0.041602  0.070931  0.018305
     5 O    -0.024981  0.103078  0.061167
     6 H    -0.002944 -0.000500 -0.001059
     7 C     0.000735 -0.001540 -0.001177
     8 C    -0.018661 -0.001513  0.004755
     9 C    -0.000127 -0.001646  0.000095
    10 C    -0.001081 -0.001575 -0.003307
    11 H     0.001431 -0.000110 -0.001073
    12 H     0.000077  0.000717  0.000277
    13 H     0.000552  0.001746 -0.000166
    14 H     0.000595  0.001265  0.001091
    15 H     0.000236  0.000761 -0.000132
    16 H     0.000962  0.000018  0.001059
    17 H     0.002332 -0.000857  0.000500
    18 H     0.000254  0.000878  0.000796
    19 H     0.000877  0.000562 -0.001110
    20 H    -0.007005 -0.000994  0.000840
    21 Sn   -0.005224 -0.138099 -0.062081
    22 Cl    0.007223 -0.002775 -0.009459
    23 Cl    0.007160 -0.008441  0.002001
    24 Cl   -0.003595 -0.007440  0.000621
    25 Cl   -0.004026 -0.002059 -0.007325
 ----------------------------------------
 Mulliken charges used for AMS results%charges...

 dE(predicted):    -0.35312E-01, dE(actual):    -0.39280E-01, Trust radius:    0.800000, all in a.u.
 
----------------------------------------------------------------------
Geometry Convergence after Step   3       (Hartree/Angstrom,Angstrom)
----------------------------------------------------------------------
current energy                               -4.51422179 Hartree
energy change                      -0.03928047     0.00025000    F
constrained gradient max            0.13810291     0.00100000    F
constrained gradient rms            0.02498082     0.00066667    F
gradient max                        0.13810291
gradient rms                        0.02498082
cart. step max                      0.18238918     0.01000000    F
cart. step rms                      0.06123003     0.00666667    F
 
 
--------
Geometry
--------
Formula: C7H12Cl4OSn
Atoms
  Index Symbol   x (angstrom)   y (angstrom)   z (angstrom)
      1      H    -0.54517208     0.07817699    -0.15190195
      2      C    -0.17956365    -1.99892757    -0.58843224
      3      C     0.17455470    -0.71244975    -0.33854104
      4      C     1.55781228    -0.37936933    -0.31727407
      5      O     2.04580240     0.75399576    -0.11672959
      6      H     0.63468477    -2.70776130    -0.76087184
      7      C    -1.52176576    -4.03315148    -1.13144083
      8      C    -1.57921392    -2.57125521    -0.63680325
      9      C    -2.46064953    -1.72534594    -1.59264000
     10      C    -2.17285936    -2.52372048     0.79760252
     11      H    -2.23611625    -1.50083243     1.17753531
     12      H    -2.52467743    -4.46825746    -1.16324731
     13      H    -0.91031228    -4.65504331    -0.46843695
     14      H    -1.09991668    -4.09561192    -2.14043166
     15      H    -3.47083703    -2.14537176    -1.62209944
     16      H    -2.06012673    -1.73177059    -2.61117522
     17      H    -2.54040497    -0.68510559    -1.26726254
     18      H    -3.18255707    -2.94659539     0.78414835
     19      H    -1.56962753    -3.10795708     1.49980544
     20      H     2.28319772    -1.20290653    -0.48133930
     21     Sn     1.98851849     2.53449077     0.81460678
     22     Cl     0.17980253     2.08660892     2.33598899
     23     Cl     0.41284536     3.60431200    -0.64975374
     24     Cl     3.77556547     3.53258192    -0.42167704
     25     Cl     3.52907983     1.94796134     2.55133237
 
Total System Charge             0.00000
 
 *** GOStep4 ***

 Energy gradients wrt nuclear displacements
 ==========================================

     Atom      Cartesian (a.u./angstrom)
                 X         Y         Z
 ----------------------------------------
     1 H     0.000109 -0.000068  0.000194
     2 C     0.004579  0.005168 -0.000219
     3 C     0.005349 -0.001615  0.000526
     4 C    -0.006563  0.007323 -0.003071
     5 O    -0.012652  0.065280  0.029830
     6 H     0.000218 -0.000672 -0.001033
     7 C    -0.000702 -0.001557 -0.000314
     8 C    -0.003200 -0.002984  0.003053
     9 C     0.000402  0.000512 -0.000205
    10 C    -0.000188  0.000153 -0.002396
    11 H     0.000176  0.000400  0.000689
    12 H    -0.000284 -0.000499 -0.000079
    13 H     0.000507 -0.000568  0.000313
    14 H     0.000374 -0.000084 -0.000540
    15 H    -0.000558 -0.000137  0.000212
    16 H     0.000274  0.000343 -0.000576
    17 H     0.000423  0.000772 -0.000343
    18 H    -0.000667  0.000184  0.000224
    19 H     0.000447 -0.000088  0.000593
    20 H     0.004626 -0.007382  0.003413
    21 Sn    0.002212 -0.065568 -0.027284
    22 Cl    0.002429  0.000672 -0.002418
    23 Cl    0.001182 -0.000337  0.000622
    24 Cl    0.001267  0.000012 -0.001301
    25 Cl    0.000239  0.000743  0.000108
 ----------------------------------------
 Mulliken charges used for AMS results%charges...

 dE(predicted):    -0.13857E-01, dE(actual):    -0.18248E-01, Trust radius:    0.800000, all in a.u.
 
----------------------------------------------------------------------
Geometry Convergence after Step   4       (Hartree/Angstrom,Angstrom)
----------------------------------------------------------------------
current energy                               -4.53246997 Hartree
energy change                      -0.01824818     0.00025000    F
constrained gradient max            0.06556903     0.00100000    F
constrained gradient rms            0.01194151     0.00066667    F
gradient max                        0.06556903
gradient rms                        0.01194151
cart. step max                      0.13918329     0.01000000    F
cart. step rms                      0.05097052     0.00666667    F
 
 
--------
Geometry
--------
Formula: C7H12Cl4OSn
Atoms
  Index Symbol   x (angstrom)   y (angstrom)   z (angstrom)
      1      H    -0.47650673     0.07644112    -0.18483231
      2      C    -0.17242289    -2.01991657    -0.58790469
      3      C     0.21954466    -0.73833666    -0.35515756
      4      C     1.61025318    -0.45096938    -0.32706510
      5      O     2.14391066     0.67682800    -0.14777737
      6      H     0.63087054    -2.74572411    -0.74357240
      7      C    -1.54842487    -4.01278383    -1.15768610
      8      C    -1.57319692    -2.56255359    -0.62936900
      9      C    -2.47226458    -1.68666792    -1.54386344
     10      C    -2.13983955    -2.54543766     0.82091612
     11      H    -2.19315111    -1.53154965     1.22534921
     12      H    -2.55942090    -4.42930836    -1.17800341
     13      H    -0.93564808    -4.66071996    -0.52141740
     14      H    -1.14979981    -4.06082522    -2.17694438
     15      H    -3.48281242    -2.10626223    -1.56379931
     16      H    -2.09414540    -1.66594697    -2.57067819
     17      H    -2.54640117    -0.65641928    -1.18681682
     18      H    -3.15087205    -2.96529579     0.81199092
     19      H    -1.52868371    -3.15026916     1.49828116
     20      H     2.32618900    -1.27478366    -0.51841814
     21     Sn     1.95244636     2.55018376     0.78928085
     22     Cl     0.05690994     2.09312646     2.21399430
     23     Cl     0.43667595     3.57078135    -0.78095325
     24     Cl     3.78495662     3.61626957    -0.32146502
     25     Cl     3.38989654     2.02683429     2.63687311
 
Total System Charge             0.00000
 
 *** GOStep5 ***

 Energy gradients wrt nuclear displacements
 ==========================================

     Atom      Cartesian (a.u./angstrom)
                 X         Y         Z
 ----------------------------------------
     1 H     0.000129  0.000080 -0.000337
     2 C    -0.005857 -0.002246 -0.001174
     3 C     0.009642  0.005005 -0.001416
     4 C    -0.021380 -0.020400  0.004185
     5 O    -0.003300  0.046199  0.009847
     6 H     0.001460  0.000164 -0.001509
     7 C     0.000323 -0.000128  0.000177
     8 C     0.005390 -0.001525  0.002854
     9 C    -0.000435  0.001394 -0.001641
    10 C    -0.000162  0.000833 -0.000690
    11 H    -0.000337  0.000241  0.000912
    12 H    -0.000246 -0.000152  0.000011
    13 H     0.000207 -0.000789  0.000319
    14 H     0.000086 -0.000383 -0.000764
    15 H    -0.000505 -0.000424  0.000153
    16 H    -0.000170  0.000183 -0.000788
    17 H    -0.000080  0.000695 -0.000169
    18 H    -0.000549 -0.000005 -0.000066
    19 H     0.000078 -0.000291  0.000679
    20 H     0.007583 -0.002670 -0.000195
    21 Sn    0.005059 -0.033117 -0.011605
    22 Cl   -0.000374  0.000670  0.000489
    23 Cl   -0.001655  0.002928 -0.000756
    24 Cl    0.003477  0.002414 -0.001598
    25 Cl    0.001617  0.001326  0.003083
 ----------------------------------------
 Mulliken charges used for AMS results%charges...

 dE(predicted):    -0.40128E-02, dE(actual):    -0.56062E-02, Trust radius:    0.800000, all in a.u.
 
----------------------------------------------------------------------
Geometry Convergence after Step   5       (Hartree/Angstrom,Angstrom)
----------------------------------------------------------------------
current energy                               -4.53807620 Hartree
energy change                      -0.00560623     0.00025000    F
constrained gradient max            0.04619466     0.00100000    F
constrained gradient rms            0.00793124     0.00066667    F
gradient max                        0.04619466
gradient rms                        0.00793124
cart. step max                      0.20816552     0.01000000    F
cart. step rms                      0.06520537     0.00666667    F
 
 
--------
Geometry
--------
Formula: C7H12Cl4OSn
Atoms
  Index Symbol   x (angstrom)   y (angstrom)   z (angstrom)
      1      H    -0.41933253     0.06605171    -0.19427731
      2      C    -0.15558403    -2.03741752    -0.58124230
      3      C     0.26176366    -0.76139675    -0.36290746
      4      C     1.65861225    -0.49439574    -0.34955424
      5      O     2.22218037     0.61834315    -0.15510338
      6      H     0.63445588    -2.77913360    -0.72838474
      7      C    -1.57691418    -3.98112698    -1.19826672
      8      C    -1.56365287    -2.55269571    -0.61453796
      9      C    -2.47489607    -1.62949482    -1.46770586
     10      C    -2.09204500    -2.58606942     0.85148989
     11      H    -2.12339512    -1.58739732     1.29363276
     12      H    -2.59500297    -4.38015562    -1.20884920
     13      H    -0.95966025    -4.66275715    -0.60328007
     14      H    -1.20480238    -3.99585075    -2.22830644
     15      H    -3.48961279    -2.03851349    -1.48184282
     16      H    -2.12046031    -1.56792668    -2.50104885
     17      H    -2.53080277    -0.61574331    -1.06375625
     18      H    -3.10699312    -2.99612481     0.85211645
     19      H    -1.47002379    -3.22270184     1.48826198
     20      H     2.36272607    -1.33109618    -0.51123028
     21     Sn     1.89778063     2.55827217     0.74276541
     22     Cl    -0.10889622     2.09685506     2.01298089
     23     Cl     0.50334483     3.50858675    -0.97996305
     24     Cl     3.79754296     3.64811283    -0.22030410
     25     Cl     3.18173102     2.07047059     2.71027540
 
Total System Charge             0.00000
 
 *** GOStep6 ***

 Energy gradients wrt nuclear displacements
 ==========================================

     Atom      Cartesian (a.u./angstrom)
                 X         Y         Z
 ----------------------------------------
     1 H     0.000024  0.000416  0.000460
     2 C    -0.009250 -0.004267 -0.000452
     3 C     0.008962  0.003691  0.002260
     4 C    -0.023549 -0.023282 -0.008684
     5 O     0.002931  0.032636  0.006382
     6 H     0.001643  0.000753 -0.001119
     7 C     0.000059  0.000190  0.000511
     8 C     0.008418 -0.001467  0.001531
     9 C    -0.000984  0.001964 -0.002323
    10 C    -0.000298  0.001202  0.000291
    11 H    -0.000375  0.000059  0.000720
    12 H    -0.000128 -0.000167 -0.000007
    13 H    -0.000008 -0.000528  0.000220
    14 H    -0.000099 -0.000267 -0.000533
    15 H    -0.000277 -0.000437  0.000158
    16 H    -0.000233  0.000050 -0.000509
    17 H    -0.000024  0.000545  0.000078
    18 H    -0.000327 -0.000030 -0.000221
    19 H    -0.000044 -0.000215  0.000375
    20 H     0.006946 -0.000001  0.004342
    21 Sn    0.004870 -0.018119 -0.004504
    22 Cl   -0.001741 -0.000678  0.000729
    23 Cl   -0.002587  0.004020 -0.002131
    24 Cl    0.004164  0.002712 -0.001697
    25 Cl    0.001905  0.001218  0.004124
 ----------------------------------------
 Mulliken charges used for AMS results%charges...

 dE(predicted):    -0.24989E-02, dE(actual):    -0.22445E-02, Trust radius:    0.800000, all in a.u.
 
----------------------------------------------------------------------
Geometry Convergence after Step   6       (Hartree/Angstrom,Angstrom)
----------------------------------------------------------------------
current energy                               -4.54032065 Hartree
energy change                      -0.00224445     0.00025000    F
constrained gradient max            0.03264650     0.00100000    F
constrained gradient rms            0.00643438     0.00066667    F
gradient max                        0.03264650
gradient rms                        0.00643438
cart. step max                      0.21804146     0.01000000    F
cart. step rms                      0.07124505     0.00666667    F
 
 
--------
Geometry
--------
Formula: C7H12Cl4OSn
Atoms
  Index Symbol   x (angstrom)   y (angstrom)   z (angstrom)
      1      H    -0.36620884     0.05670677    -0.21796649
      2      C    -0.13791672    -2.05454362    -0.56806326
      3      C     0.30200833    -0.78632058    -0.35590161
      4      C     1.70610575    -0.54672979    -0.30256314
      5      O     2.29082154     0.55336538    -0.10904801
      6      H     0.63688008    -2.81553289    -0.69415738
      7      C    -1.60562177    -3.93545038    -1.26079575
      8      C    -1.55592543    -2.54129698    -0.60204848
      9      C    -2.47422170    -1.56149203    -1.37827301
     10      C    -2.04733468    -2.64922475     0.87406222
     11      H    -2.05431647    -1.67459865     1.36734635
     12      H    -2.62994542    -4.31800550    -1.26904924
     13      H    -0.98583191    -4.65679188    -0.71801010
     14      H    -1.25687465    -3.89959117    -2.29820732
     15      H    -3.49344648    -1.95830332    -1.39516408
     16      H    -2.13994250    -1.44282903    -2.41307723
     17      H    -2.51101469    -0.57337542    -0.91389180
     18      H    -3.06642333    -3.04843830     0.87917446
     19      H    -1.41639381    -3.32554698     1.45866531
     20      H     2.39474013    -1.39493822    -0.45353359
     21     Sn     1.84356953     2.57159747     0.68014642
     22     Cl    -0.24671252     2.13862675     1.82435205
     23     Cl     0.56685981     3.38255205    -1.19800451
     24     Cl     3.78619036     3.66462156    -0.18247000
     25     Cl     2.98901866     2.16223408     2.74743992
 
Total System Charge             0.00000
 
 *** GOStep7 ***

 Energy gradients wrt nuclear displacements
 ==========================================

     Atom      Cartesian (a.u./angstrom)
                 X         Y         Z
 ----------------------------------------
     1 H    -0.000058  0.000692 -0.000247
     2 C    -0.008812 -0.003959 -0.002560
     3 C     0.006333  0.002582  0.001944
     4 C    -0.020153 -0.023531 -0.002024
     5 O     0.006735  0.020235  0.000213
     6 H     0.001581  0.001316 -0.001852
     7 C    -0.000123  0.000419  0.000897
     8 C     0.008882 -0.002059  0.002654
     9 C    -0.001342  0.002528 -0.002494
    10 C    -0.001179  0.001088  0.000949
    11 H    -0.000252 -0.000122  0.000368
    12 H     0.000020 -0.000129 -0.000053
    13 H    -0.000126 -0.000194  0.000124
    14 H    -0.000145 -0.000119 -0.000252
    15 H    -0.000010 -0.000483  0.000145
    16 H    -0.000114 -0.000106 -0.000180
    17 H     0.000201  0.000230  0.000163
    18 H    -0.000138  0.000018 -0.000142
    19 H    -0.000062 -0.000055 -0.000044
    20 H     0.005203  0.003070  0.002429
    21 Sn    0.003173 -0.006895 -0.000622
    22 Cl   -0.002719 -0.002075  0.000729
    23 Cl   -0.002985  0.004296 -0.002776
    24 Cl    0.004466  0.002182 -0.001666
    25 Cl    0.001621  0.001072  0.004298
 ----------------------------------------
 Mulliken charges used for AMS results%charges...

 dE(predicted):    -0.20194E-02, dE(actual):    -0.15483E-02, Trust radius:    0.800000, all in a.u.
 
----------------------------------------------------------------------
Geometry Convergence after Step   7       (Hartree/Angstrom,Angstrom)
----------------------------------------------------------------------
current energy                               -4.54186890 Hartree
energy change                      -0.00154825     0.00025000    F
constrained gradient max            0.02353120     0.00100000    F
constrained gradient rms            0.00501308     0.00066667    F
gradient max                        0.02353120
gradient rms                        0.00501308
cart. step max                      0.22130674     0.01000000    F
cart. step rms                      0.07731768     0.00666667    F
 
 
--------
Geometry
--------
Formula: C7H12Cl4OSn
Atoms
  Index Symbol   x (angstrom)   y (angstrom)   z (angstrom)
      1      H    -0.32085324     0.04837883    -0.21207649
      2      C    -0.12428835    -2.07015386    -0.51511078
      3      C     0.33519694    -0.80779844    -0.31996045
      4      C     1.74608797    -0.59035073    -0.24766664
      5      O     2.34944516     0.49481773    -0.05436559
      6      H     0.63391683    -2.85296807    -0.59859922
      7      C    -1.61991981    -3.87182252    -1.33888983
      8      C    -1.55214425    -2.52892809    -0.58267485
      9      C    -2.46730651    -1.48969035    -1.27599436
     10      C    -2.02799862    -2.74108231     0.88739064
     11      H    -2.02146054    -1.80317081     1.44700911
     12      H    -2.64817330    -4.24248994    -1.36774197
     13      H    -1.00383530    -4.63571319    -0.85352003
     14      H    -1.27653984    -3.76466298    -2.37294621
     15      H    -3.48898470    -1.87733052    -1.31999435
     16      H    -2.13548565    -1.29343529    -2.29949881
     17      H    -2.49828231    -0.54038011    -0.73690079
     18      H    -3.04949470    -3.13357321     0.87552936
     19      H    -1.39518278    -3.46131893     1.41453575
     20      H     2.41283025    -1.45658868    -0.38115123
     21     Sn     1.80001977     2.58769795     0.59485212
     22     Cl    -0.35193726     2.21210894     1.64324329
     23     Cl     0.63698784     3.21708130    -1.41931126
     24     Cl     3.76504925     3.68383038    -0.19919622
     25     Cl     2.83041642     2.26423748     2.73400057
 
Total System Charge             0.00000
 
 *** GOStep8 ***

 Energy gradients wrt nuclear displacements
 ==========================================

     Atom      Cartesian (a.u./angstrom)
                 X         Y         Z
 ----------------------------------------
     1 H     0.000094  0.000614  0.000486
     2 C    -0.005739 -0.003561 -0.000953
     3 C     0.003113  0.001293  0.002459
     4 C    -0.013679 -0.016997 -0.002680
     5 O     0.008444  0.006990 -0.000999
     6 H     0.001367  0.001390 -0.001383
     7 C    -0.000618  0.000764  0.001311
     8 C     0.006903 -0.002343  0.000772
     9 C    -0.002169  0.002633 -0.002539
    10 C    -0.001112  0.001226  0.001527
    11 H    -0.000046 -0.000279 -0.000067
    12 H     0.000195 -0.000163 -0.000133
    13 H    -0.000138  0.000105  0.000096
    14 H    -0.000138 -0.000028  0.000000
    15 H     0.000115 -0.000252  0.000071
    16 H     0.000004 -0.000291  0.000101
    17 H     0.000231 -0.000181  0.000072
    18 H     0.000144  0.000016 -0.000366
    19 H    -0.000044  0.000098 -0.000295
    20 H     0.002659  0.004450  0.001849
    21 Sn    0.001437  0.001691  0.000524
    22 Cl   -0.003466 -0.003683  0.000842
    23 Cl   -0.002848  0.004283 -0.003008
    24 Cl    0.004377  0.001028 -0.001543
    25 Cl    0.000911  0.001195  0.003857
 ----------------------------------------
 Mulliken charges used for AMS results%charges...
 Rebuilding optimization coordinates

 dE(predicted):    -0.16931E-02, dE(actual):    -0.12982E-02, Trust radius:    1.000000, all in a.u.
 
----------------------------------------------------------------------
Geometry Convergence after Step   8       (Hartree/Angstrom,Angstrom)
----------------------------------------------------------------------
current energy                               -4.54316715 Hartree
energy change                      -0.00129825     0.00025000    F
constrained gradient max            0.01699236     0.00100000    F
constrained gradient rms            0.00344858     0.00066667    F
gradient max                        0.01699236
gradient rms                        0.00344858
cart. step max                      0.21873918     0.01000000    F
cart. step rms                      0.08592999     0.00666667    F
 
 
--------
Geometry
--------
Formula: C7H12Cl4OSn
Atoms
  Index Symbol   x (angstrom)   y (angstrom)   z (angstrom)
      1      H    -0.28662510     0.04549014    -0.22850314
      2      C    -0.11659893    -2.08061394    -0.46552902
      3      C     0.35828046    -0.82341208    -0.28459622
      4      C     1.77257557    -0.62764491    -0.16133433
      5      O     2.38720294     0.44605198     0.02753712
      6      H     0.62557084    -2.88156322    -0.50741310
      7      C    -1.62839180    -3.79542745    -1.42622614
      8      C    -1.55099332    -2.51882700    -0.56307363
      9      C    -2.46854684    -1.42586487    -1.15701416
     10      C    -2.00852815    -2.85283902     0.89003971
     11      H    -1.99314591    -1.96298079     1.52308184
     12      H    -2.65819118    -4.15943089    -1.47667541
     13      H    -1.01043861    -4.59778170    -1.01059397
     14      H    -1.29268542    -3.60418042    -2.45045585
     15      H    -3.49077385    -1.80719239    -1.22959088
     16      H    -2.14195346    -1.14072253    -2.16098724
     17      H    -2.49767205    -0.52723412    -0.53724774
     18      H    -3.03038375    -3.24325619     0.85962475
     19      H    -1.36971320    -3.61370528     1.34834459
     20      H     2.41820684    -1.51415815    -0.25284053
     21     Sn     1.77019512     2.60529430     0.49738094
     22     Cl    -0.44203219     2.33270310     1.44661395
     23     Cl     0.74159103     3.02250598    -1.63805044
     24     Cl     3.75887274     3.68840456    -0.24080333
     25     Cl     2.68224146     2.38307948     2.69927398
 
Total System Charge             0.00000
 
 *** GOStep9 ***

 Energy gradients wrt nuclear displacements
 ==========================================

     Atom      Cartesian (a.u./angstrom)
                 X         Y         Z
 ----------------------------------------
     1 H     0.000316  0.000483 -0.000129
     2 C    -0.002249 -0.002628 -0.001367
     3 C     0.000325  0.000303  0.002675
     4 C    -0.006344 -0.009185  0.000763
     5 O     0.007518 -0.004040 -0.001684
     6 H     0.001090  0.001452 -0.001860
     7 C    -0.000782  0.000994  0.001764
     8 C     0.004131 -0.002676  0.000155
     9 C    -0.002166  0.002725 -0.002047
    10 C    -0.001282  0.001064  0.002060
    11 H     0.000144 -0.000302 -0.000446
    12 H     0.000328 -0.000124 -0.000230
    13 H    -0.000115  0.000279  0.000095
    14 H    -0.000086  0.000011  0.000137
    15 H     0.000244 -0.000111  0.000135
    16 H     0.000229 -0.000420  0.000275
    17 H     0.000132 -0.000407 -0.000159
    18 H     0.000279 -0.000019 -0.000381
    19 H    -0.000006  0.000223 -0.000400
    20 H     0.000442  0.004926  0.000542
    21 Sn    0.000096  0.006819 -0.000135
    22 Cl   -0.004336 -0.004725  0.001186
    23 Cl   -0.002512  0.004203 -0.002687
    24 Cl    0.004193 -0.000365 -0.001312
    25 Cl    0.000411  0.001521  0.003049
 ----------------------------------------
 Mulliken charges used for AMS results%charges...

 dE(predicted):    -0.19402E-02, dE(actual):    -0.11542E-02, Trust radius:    1.000000, all in a.u.
 
----------------------------------------------------------------------
Geometry Convergence after Step   9       (Hartree/Angstrom,Angstrom)
----------------------------------------------------------------------
current energy                               -4.54432132 Hartree
energy change                      -0.00115417     0.00025000    F
constrained gradient max            0.00918242     0.00100000    F
constrained gradient rms            0.00247472     0.00066667    F
gradient max                        0.00918242
gradient rms                        0.00247472
cart. step max                      0.20268731     0.01000000    F
cart. step rms                      0.08430934     0.00666667    F
 
 
--------
Geometry
--------
Formula: C7H12Cl4OSn
Atoms
  Index Symbol   x (angstrom)   y (angstrom)   z (angstrom)
      1      H    -0.25941944     0.04392371    -0.23370081
      2      C    -0.11372379    -2.08715520    -0.40983931
      3      C     0.37426924    -0.83443891    -0.24262750
      4      C     1.78954729    -0.65612573    -0.07301530
      5      O     2.41384968     0.40742758     0.11190847
      6      H     0.61283630    -2.90309432    -0.40896982
      7      C    -1.62849779    -3.71076324    -1.50783888
      8      C    -1.55167519    -2.50916457    -0.54227377
      9      C    -2.47350453    -1.37528769    -1.03738308
     10      C    -1.99748636    -2.96650028     0.88048856
     11      H    -1.98076978    -2.13121462     1.58395903
     12      H    -2.65793071    -4.07125940    -1.58459036
     13      H    -1.00716446    -4.54303193    -1.16227086
     14      H    -1.29641595    -3.43430118    -2.51347515
     15      H    -3.49420886    -1.75242995    -1.14334833
     16      H    -2.14875608    -1.00131089    -2.01227693
     17      H    -2.50767490    -0.53463030    -0.34134257
     18      H    -3.01780716    -3.35812172     0.82528027
     19      H    -1.35221859    -3.75961549     1.26989762
     20      H     2.41465799    -1.55983514    -0.12479735
     21     Sn     1.75193378     2.61939308     0.39689427
     22     Cl    -0.50921743     2.45609700     1.24913194
     23     Cl     0.85246796     2.81981868    -1.82344654
     24     Cl     3.75712176     3.69017117    -0.30023843
     25     Cl     2.55785029     2.49814395     2.64483658
 
Total System Charge             0.00000
 
 *** GOStep10 ***

 Energy gradients wrt nuclear displacements
 ==========================================

     Atom      Cartesian (a.u./angstrom)
                 X         Y         Z
 ----------------------------------------
     1 H     0.000652  0.000242 -0.000510
     2 C     0.000920 -0.002046 -0.001184
     3 C    -0.002108 -0.000498  0.002505
     4 C    -0.000080 -0.001977  0.003279
     5 O     0.006466 -0.013003 -0.000839
     6 H     0.000815  0.001369 -0.001717
     7 C    -0.001193  0.001236  0.002367
     8 C     0.001517 -0.002232 -0.001581
     9 C    -0.002242  0.002461 -0.001404
    10 C    -0.001020  0.000771  0.002706
    11 H     0.000340 -0.000229 -0.000842
    12 H     0.000450 -0.000094 -0.000386
    13 H    -0.000093  0.000395  0.000143
    14 H    -0.000053 -0.000015  0.000216
    15 H     0.000306  0.000076  0.000249
    16 H     0.000489 -0.000571  0.000419
    17 H    -0.000233 -0.000665 -0.000441
    18 H     0.000404 -0.000108 -0.000535
    19 H     0.000022  0.000290 -0.000403
    20 H    -0.001320  0.005244 -0.000762
    21 Sn   -0.000521  0.010547 -0.001886
    22 Cl   -0.005264 -0.005531  0.001871
    23 Cl   -0.002178  0.004212 -0.002474
    24 Cl    0.004047 -0.001711 -0.001100
    25 Cl   -0.000121  0.001837  0.002311
 ----------------------------------------
 Mulliken charges used for AMS results%charges...

 dE(predicted):    -0.13787E-02, dE(actual):    -0.98814E-03, Trust radius:    1.000000, all in a.u.
 
----------------------------------------------------------------------
Geometry Convergence after Step  10       (Hartree/Angstrom,Angstrom)
----------------------------------------------------------------------
current energy                               -4.54530946 Hartree
energy change                      -0.00098814     0.00025000    F
constrained gradient max            0.01299704     0.00100000    F
constrained gradient rms            0.00272897     0.00066667    F
gradient max                        0.01299704
gradient rms                        0.00272897
cart. step max                      0.20552184     0.01000000    F
cart. step rms                      0.07649279     0.00666667    F
 
 
--------
Geometry
--------
Formula: C7H12Cl4OSn
Atoms
  Index Symbol   x (angstrom)   y (angstrom)   z (angstrom)
      1      H    -0.24444338     0.04391790    -0.22561461
      2      C    -0.11685792    -2.08947143    -0.34957745
      3      C     0.38084494    -0.83979196    -0.19808506
      4      C     1.79632896    -0.67300528     0.00545331
      5      O     2.42610935     0.38309005     0.18339013
      6      H     0.59536911    -2.91680203    -0.30937076
      7      C    -1.61708261    -3.62724895    -1.57668185
      8      C    -1.55464036    -2.50196971    -0.52087426
      9      C    -2.48153860    -1.34206294    -0.92909733
     10      C    -1.99803541    -3.07280187     0.86057368
     11      H    -1.98853358    -2.29371595     1.62615846
     12      H    -2.64372466    -3.98812734    -1.68416649
     13      H    -0.99002578    -4.47863630    -1.29401645
     14      H    -1.28373092    -3.27124954    -2.55641458
     15      H    -3.49892743    -1.71607645    -1.07110070
     16      H    -2.15551090    -0.88788477    -1.86884633
     17      H    -2.52633342    -0.56016787    -0.16802273
     18      H    -3.01520756    -3.46715317     0.77500236
     19      H    -1.34687615    -3.88848707     1.18879244
     20      H     2.40256398    -1.59120618    -0.01086901
     21     Sn     1.74695627     2.63010564     0.30488803
     22     Cl    -0.54624277     2.59724714     1.07603507
     23     Cl     0.95403036     2.61429683    -1.96102223
     24     Cl     3.75369416     3.70056222    -0.37306876
     25     Cl     2.47987759     2.58333359     2.57749690
 
Total System Charge             0.00000
 
 *** GOStep11 ***

 Energy gradients wrt nuclear displacements
 ==========================================

     Atom      Cartesian (a.u./angstrom)
                 X         Y         Z
 ----------------------------------------
     1 H     0.000803 -0.000126 -0.000374
     2 C     0.003372 -0.001381  0.000093
     3 C    -0.003847 -0.000784  0.001379
     4 C     0.006496  0.005715  0.004500
     5 O     0.003488 -0.020075  0.000465
     6 H     0.000238  0.000916 -0.001182
     7 C    -0.001426  0.001123  0.002670
     8 C    -0.000981 -0.000921 -0.004084
     9 C    -0.001931  0.001586 -0.000534
    10 C    -0.000238  0.000414  0.003182
    11 H     0.000451 -0.000032 -0.001055
    12 H     0.000489 -0.000019 -0.000449
    13 H    -0.000050  0.000410  0.000151
    14 H    -0.000001 -0.000052  0.000248
    15 H     0.000359  0.000192  0.000327
    16 H     0.000698 -0.000614  0.000468
    17 H    -0.000540 -0.000822 -0.000621
    18 H     0.000487 -0.000151 -0.000702
    19 H     0.000034  0.000289 -0.000296
    20 H    -0.002655  0.004663 -0.001670
    21 Sn   -0.000573  0.012197 -0.003773
    22 Cl   -0.006404 -0.005877  0.002457
    23 Cl   -0.001881  0.004247 -0.001747
    24 Cl    0.004011 -0.003079 -0.000908
    25 Cl   -0.000398  0.002181  0.001454
 ----------------------------------------
 Mulliken charges used for AMS results%charges...

 dE(predicted):    -0.29343E-02, dE(actual):    -0.12049E-02, Trust radius:    1.000000, all in a.u.
 
----------------------------------------------------------------------
Geometry Convergence after Step  11       (Hartree/Angstrom,Angstrom)
----------------------------------------------------------------------
current energy                               -4.54651432 Hartree
energy change                      -0.00120487     0.00025000    F
constrained gradient max            0.02007592     0.00100000    F
constrained gradient rms            0.00352167     0.00066667    F
gradient max                        0.02007592
gradient rms                        0.00352167
cart. step max                      0.21168745     0.01000000    F
cart. step rms                      0.06889397     0.00666667    F
 
 
--------
Geometry
--------
Formula: C7H12Cl4OSn
Atoms
  Index Symbol   x (angstrom)   y (angstrom)   z (angstrom)
      1      H    -0.23950031     0.04626814    -0.20863859
      2      C    -0.12402061    -2.08709044    -0.29403728
      3      C     0.38009575    -0.84001228    -0.15330945
      4      C     1.79618167    -0.68072127     0.07573245
      5      O     2.42784524     0.36922988     0.24384302
      6      H     0.57579604    -2.92298103    -0.22590238
      7      C    -1.59937237    -3.54917262    -1.63207423
      8      C    -1.55963132    -2.49637903    -0.50111749
      9      C    -2.49522947    -1.32447393    -0.83519911
     10      C    -2.00172913    -3.16662462     0.83434651
     11      H    -2.00398998    -2.44160292     1.65170742
     12      H    -2.62117665    -3.91400125    -1.76960346
     13      H    -0.96288853    -4.40979260    -1.40399517
     14      H    -1.26470594    -3.12273834    -2.58265500
     15      H    -3.50787372    -1.69736042    -1.01008224
     16      H    -2.16984442    -0.80146789    -1.73871257
     17      H    -2.55340477    -0.59772313    -0.02181751
     18      H    -3.01421125    -3.56563957     0.71941550
     19      H    -1.34267741    -3.99566125     1.10915327
     20      H     2.38347160    -1.61231421     0.08971248
     21     Sn     1.75142015     2.63830204     0.22537482
     22     Cl    -0.55816776     2.76068017     0.92160901
     23     Cl     1.04947656     2.40260939    -2.05378392
     24     Cl     3.74637398     3.72140140    -0.44891361
     25     Cl     2.43582590     2.63396036     2.50990930
 
Total System Charge             0.00000
 
 *** GOStep12 ***

 Energy gradients wrt nuclear displacements
 ==========================================

     Atom      Cartesian (a.u./angstrom)
                 X         Y         Z
 ----------------------------------------
     1 H     0.000813 -0.000592 -0.000330
     2 C     0.005747 -0.000329  0.001521
     3 C    -0.005270 -0.000879  0.000021
     4 C     0.014943  0.015333  0.006030
     5 O    -0.002256 -0.026728  0.000973
     6 H    -0.000693  0.000196 -0.000866
     7 C    -0.001257  0.000709  0.002669
     8 C    -0.004109  0.001340 -0.005954
     9 C    -0.001026 -0.000122  0.000254
    10 C     0.000690 -0.000120  0.003202
    11 H     0.000483  0.000210 -0.001143
    12 H     0.000427  0.000127 -0.000387
    13 H    -0.000004  0.000376  0.000081
    14 H     0.000073 -0.000099  0.000275
    15 H     0.000394  0.000312  0.000350
    16 H     0.000794 -0.000518  0.000514
    17 H    -0.000764 -0.000906 -0.000742
    18 H     0.000536 -0.000163 -0.000738
    19 H     0.000024  0.000224 -0.000146
    20 H    -0.004075  0.003301 -0.002397
    21 Sn    0.000009  0.012421 -0.005493
    22 Cl   -0.007750 -0.005897  0.003256
    23 Cl   -0.001312  0.003911 -0.000742
    24 Cl    0.004031 -0.004508 -0.000700
    25 Cl   -0.000446  0.002398  0.000491
 ----------------------------------------
 Mulliken charges used for AMS results%charges...

 dE(predicted):    -0.48852E-02, dE(actual):    -0.15892E-02, Trust radius:    1.000000, all in a.u.
 
----------------------------------------------------------------------
Geometry Convergence after Step  12       (Hartree/Angstrom,Angstrom)
----------------------------------------------------------------------
current energy                               -4.54810356 Hartree
energy change                      -0.00158923     0.00025000    F
constrained gradient max            0.02672915     0.00100000    F
constrained gradient rms            0.00482676     0.00066667    F
gradient max                        0.02672915
gradient rms                        0.00482676
cart. step max                      0.22383433     0.01000000    F
cart. step rms                      0.05924532     0.00666667    F
 
 
--------
Geometry
--------
Formula: C7H12Cl4OSn
Atoms
  Index Symbol   x (angstrom)   y (angstrom)   z (angstrom)
      1      H    -0.24634773     0.05129952    -0.18555732
      2      C    -0.13398274    -2.07960481    -0.25020038
      3      C     0.37270392    -0.83446906    -0.11745806
      4      C     1.79207476    -0.67840823     0.12417876
      5      O     2.41915952     0.36570433     0.28275018
      6      H     0.55458188    -2.92289870    -0.16311876
      7      C    -1.57799138    -3.48979175    -1.67049125
      8      C    -1.56689295    -2.49355060    -0.48582961
      9      C    -2.51404696    -1.32382049    -0.76787017
     10      C    -2.00598135    -3.23778917     0.80866476
     11      H    -2.02237601    -2.55565220     1.66260990
     12      H    -2.59339660    -3.86286457    -1.83307067
     13      H    -0.92882027    -4.35033315    -1.48149388
     14      H    -1.24316461    -3.00947838    -2.59479439
     15      H    -3.52113159    -1.69915145    -0.96813925
     16      H    -2.19294306    -0.74950054    -1.64139164
     17      H    -2.58657062    -0.63974382     0.08123419
     18      H    -3.01267799    -3.64460109     0.67143440
     19      H    -1.33703412    -4.07086514     1.04512542
     20      H     2.35852352    -1.62498696     0.15612259
     21     Sn     1.76395039     2.64658069     0.17222543
     22     Cl    -0.53551255     2.98283660     0.79805457
     23     Cl     1.13488211     2.17877506    -2.08482182
     24     Cl     3.71951872     3.77631745    -0.51290008
     25     Cl     2.43153899     2.61269105     2.45569884
 
Total System Charge             0.00000
 
 *** GOStep13 ***

 Energy gradients wrt nuclear displacements
 ==========================================

     Atom      Cartesian (a.u./angstrom)
                 X         Y         Z
 ----------------------------------------
     1 H     0.000498 -0.001039  0.000230
     2 C     0.009058  0.002010  0.002911
     3 C    -0.006571 -0.000755 -0.002103
     4 C     0.028770  0.030846  0.007935
     5 O    -0.013809 -0.034755 -0.000668
     6 H    -0.002330 -0.001047 -0.000440
     7 C    -0.000549 -0.000213  0.001921
     8 C    -0.008962  0.004462 -0.006619
     9 C     0.000984 -0.003441  0.000860
    10 C     0.001775 -0.000274  0.002285
    11 H     0.000385  0.000524 -0.000982
    12 H     0.000177  0.000302 -0.000125
    13 H     0.000084  0.000274 -0.000120
    14 H     0.000186 -0.000151  0.000315
    15 H     0.000429  0.000447  0.000248
    16 H     0.000671 -0.000283  0.000511
    17 H    -0.000741 -0.000919 -0.000661
    18 H     0.000513 -0.000160 -0.000557
    19 H     0.000011  0.000060  0.000015
    20 H    -0.006171  0.000271 -0.002824
    21 Sn    0.001266  0.010700 -0.006371
    22 Cl   -0.009144 -0.005324  0.004017
    23 Cl   -0.000202  0.002474  0.001647
    24 Cl    0.003944 -0.006040 -0.000606
    25 Cl   -0.000273  0.002031 -0.000818
 ----------------------------------------
 Mulliken charges used for AMS results%charges...

 dE(predicted):    -0.74585E-02, dE(actual):    -0.24021E-02, Trust radius:    1.000000, all in a.u.
 
----------------------------------------------------------------------
Geometry Convergence after Step  13       (Hartree/Angstrom,Angstrom)
----------------------------------------------------------------------
current energy                               -4.55050562 Hartree
energy change                      -0.00240207     0.00025000    F
constrained gradient max            0.03475133     0.00100000    F
constrained gradient rms            0.00727059     0.00066667    F
gradient max                        0.03475133
gradient rms                        0.00727059
cart. step max                      0.21787245     0.01000000    F
cart. step rms                      0.06355861     0.00666667    F
 
 
--------
Geometry
--------
Formula: C7H12Cl4OSn
Atoms
  Index Symbol   x (angstrom)   y (angstrom)   z (angstrom)
      1      H    -0.25096457     0.05280404    -0.16888562
      2      C    -0.14271352    -2.07566639    -0.21296896
      3      C     0.36642023    -0.83264726    -0.08436273
      4      C     1.78743382    -0.67929299     0.17473110
      5      O     2.41335214     0.36019587     0.33134846
      6      H     0.53728421    -2.92483566    -0.11662074
      7      C    -1.56734019    -3.42344664    -1.70808604
      8      C    -1.57380834    -2.49238053    -0.46894310
      9      C    -2.53421099    -1.32513300    -0.68778502
     10      C    -2.00083678    -3.31279125     0.78094219
     11      H    -2.02481831    -2.67907661     1.67176820
     12      H    -2.57764651    -3.80167235    -1.89081028
     13      H    -0.90523537    -4.28311133    -1.56610021
     14      H    -1.23922952    -2.88741110    -2.60360838
     15      H    -3.53730197    -1.70023534    -0.90805678
     16      H    -2.22334230    -0.69821482    -1.52838539
     17      H    -2.61486184    -0.68899050     0.19767646
     18      H    -3.00269104    -3.72528533     0.62540795
     19      H    -1.32086887    -4.14890149     0.97130575
     20      H     2.33364947    -1.63901906     0.23125338
     21     Sn     1.77781843     2.65018900     0.11243837
     22     Cl    -0.50279442     3.20070905     0.60711468
     23     Cl     1.25268139     1.96637052    -2.10896519
     24     Cl     3.69629823     3.83496229    -0.55719201
     25     Cl     2.38178988     2.59957546     2.40774565
 
Total System Charge             0.00000
 
 *** GOStep14 ***

 Energy gradients wrt nuclear displacements
 ==========================================

     Atom      Cartesian (a.u./angstrom)
                 X         Y         Z
 ----------------------------------------
     1 H     0.000504 -0.001516 -0.000129
     2 C     0.011533  0.004058  0.003893
     3 C    -0.008273 -0.001459 -0.002993
     4 C     0.036910  0.040204  0.007443
     5 O    -0.019878 -0.035512 -0.000837
     6 H    -0.003501 -0.002028 -0.000609
     7 C    -0.000009 -0.000964  0.001222
     8 C    -0.012895  0.007097 -0.006391
     9 C     0.002870 -0.006348  0.001068
    10 C     0.002734 -0.000353  0.001574
    11 H     0.000304  0.000768 -0.000790
    12 H    -0.000025  0.000418  0.000051
    13 H     0.000140  0.000209 -0.000244
    14 H     0.000283 -0.000166  0.000284
    15 H     0.000367  0.000588  0.000256
    16 H     0.000661 -0.000020  0.000550
    17 H    -0.000890 -0.000821 -0.000622
    18 H     0.000434 -0.000227 -0.000436
    19 H     0.000004 -0.000121  0.000209
    20 H    -0.007916 -0.002516 -0.002742
    21 Sn    0.002248  0.007721 -0.006842
    22 Cl   -0.010072 -0.003661  0.004149
    23 Cl    0.000822  0.000323  0.004194
    24 Cl    0.003404 -0.006512 -0.000286
    25 Cl    0.000243  0.000836 -0.001972
 ----------------------------------------
 Mulliken charges used for AMS results%charges...

 dE(predicted):    -0.61283E-02, dE(actual):    -0.19740E-02, Trust radius:    1.000000, all in a.u.
 
----------------------------------------------------------------------
Geometry Convergence after Step  14       (Hartree/Angstrom,Angstrom)
----------------------------------------------------------------------
current energy                               -4.55247960 Hartree
energy change                      -0.00197398     0.00025000    F
constrained gradient max            0.04020623     0.00100000    F
constrained gradient rms            0.00869999     0.00066667    F
gradient max                        0.04020623
gradient rms                        0.00869999
cart. step max                      0.20501159     0.01000000    F
cart. step rms                      0.05786689     0.00666667    F
 
 
--------
Geometry
--------
Formula: C7H12Cl4OSn
Atoms
  Index Symbol   x (angstrom)   y (angstrom)   z (angstrom)
      1      H    -0.25658001     0.04982594    -0.14749181
      2      C    -0.15050204    -2.07697581    -0.17757731
      3      C     0.36061224    -0.83509185    -0.05474013
      4      C     1.78227895    -0.68298632     0.21570289
      5      O     2.40830393     0.35465875     0.37056352
      6      H     0.52380967    -2.92924051    -0.06900621
      7      C    -1.56148303    -3.36054682    -1.73859272
      8      C    -1.57924950    -2.49491838    -0.45110047
      9      C    -2.54960624    -1.32899725    -0.60991225
     10      C    -1.99772888    -3.38329129     0.75299008
     11      H    -2.02591681    -2.79785858     1.67653512
     12      H    -2.56785851    -3.74047799    -1.93961008
     13      H    -0.88908401    -4.21848758    -1.64200440
     14      H    -1.24044814    -2.77401527    -2.60446927
     15      H    -3.55051569    -1.70059401    -0.84609241
     16      H    -2.24869062    -0.65692152    -1.41879345
     17      H    -2.63300064    -0.73835407     0.30678057
     18      H    -2.99657378    -3.79607203     0.57915201
     19      H    -1.31060306    -4.22256168     0.89898359
     20      H     2.31488315    -1.65070934     0.29432899
     21     Sn     1.79323568     2.64957529     0.05509960
     22     Cl    -0.45553874     3.37858758     0.40210309
     23     Cl     1.36695564     1.81495293    -2.13063124
     24     Cl     3.67888745     3.88772247    -0.58802014
     25     Cl     2.31247624     2.59947190     2.36676418
 
Total System Charge             0.00000
 
 *** GOStep15 ***

 Energy gradients wrt nuclear displacements
 ==========================================

     Atom      Cartesian (a.u./angstrom)
                 X         Y         Z
 ----------------------------------------
     1 H     0.000265 -0.001738  0.000188
     2 C     0.012651  0.005481  0.004221
     3 C    -0.009224 -0.002088 -0.003682
     4 C     0.039790  0.043542  0.005061
     5 O    -0.021856 -0.032335 -0.000019
     6 H    -0.004214 -0.002611 -0.000127
     7 C     0.000151 -0.001311  0.000634
     8 C    -0.014705  0.008255 -0.006112
     9 C     0.004292 -0.008039  0.001021
    10 C     0.003299 -0.000440  0.001195
    11 H     0.000227  0.000876 -0.000578
    12 H    -0.000155  0.000420  0.000098
    13 H     0.000149  0.000160 -0.000289
    14 H     0.000325 -0.000143  0.000196
    15 H     0.000260  0.000628  0.000256
    16 H     0.000653  0.000198  0.000585
    17 H    -0.000987 -0.000655 -0.000501
    18 H     0.000300 -0.000309 -0.000359
    19 H    -0.000015 -0.000238  0.000332
    20 H    -0.008824 -0.004532 -0.002314
    21 Sn    0.003093  0.003864 -0.006401
    22 Cl   -0.009622 -0.001623  0.003387
    23 Cl    0.001480 -0.000991  0.006036
    24 Cl    0.002043 -0.006083 -0.000047
    25 Cl    0.000626 -0.000285 -0.002782
 ----------------------------------------
 Mulliken charges used for AMS results%charges...
 Rebuilding optimization coordinates

 dE(predicted):    -0.24757E-02, dE(actual):    -0.13435E-02, Trust radius:    1.000000, all in a.u.
 
----------------------------------------------------------------------
Geometry Convergence after Step  15       (Hartree/Angstrom,Angstrom)
----------------------------------------------------------------------
current energy                               -4.55382310 Hartree
energy change                      -0.00134350     0.00025000    F
constrained gradient max            0.04354049     0.00100000    F
constrained gradient rms            0.00906059     0.00066667    F
gradient max                        0.04354049
gradient rms                        0.00906059
cart. step max                      0.21348964     0.01000000    F
cart. step rms                      0.03907607     0.00666667    F
 
 
--------
Geometry
--------
Formula: C7H12Cl4OSn
Atoms
  Index Symbol   x (angstrom)   y (angstrom)   z (angstrom)
      1      H    -0.27095028     0.03870061    -0.12912098
      2      C    -0.15725260    -2.08689262    -0.15399720
      3      C     0.35192374    -0.84339997    -0.04132760
      4      C     1.77678583    -0.68519138     0.21036936
      5      O     2.39726708     0.35874758     0.34631898
      6      H     0.52126941    -2.93667376    -0.04990962
      7      C    -1.55479880    -3.34742590    -1.74359020
      8      C    -1.58357945    -2.50990172    -0.43553107
      9      C    -2.55352601    -1.34152036    -0.57821479
     10      C    -2.01223653    -3.42218097     0.74436370
     11      H    -2.04289876    -2.85977398     1.68258714
     12      H    -2.55874674    -3.72820826    -1.95599919
     13      H    -0.87838555    -4.20395044    -1.66285016
     14      H    -1.23328539    -2.73970153    -2.59453400
     15      H    -3.55609100    -1.70879890    -0.81556046
     16      H    -2.25766283    -0.65878245    -1.38032789
     17      H    -2.63213164    -0.76146209     0.34637929
     18      H    -3.01253017    -3.82670343     0.55893521
     19      H    -1.32969751    -4.26790986     0.87476643
     20      H     2.31048056    -1.65492318     0.29556134
     21     Sn     1.81317257     2.65204957     0.03946968
     22     Cl    -0.35341209     3.59207722     0.29131174
     23     Cl     1.42996685     1.77168251    -2.13053569
     24     Cl     3.63535022     3.98382390    -0.57256626
     25     Cl     2.27903235     2.53301400     2.35496397
 
Total System Charge             0.00000
 
 *** GOStep16 ***

 Energy gradients wrt nuclear displacements
 ==========================================

     Atom      Cartesian (a.u./angstrom)
                 X         Y         Z
 ----------------------------------------
     1 H    -0.000395 -0.001763  0.000720
     2 C     0.012202  0.007213  0.005472
     3 C    -0.008423 -0.001858 -0.004198
     4 C     0.038916  0.042659  0.002257
     5 O    -0.023475 -0.023983 -0.000835
     6 H    -0.004035 -0.002743 -0.000544
     7 C     0.000405 -0.001497 -0.000569
     8 C    -0.014276  0.006253 -0.004215
     9 C     0.005724 -0.008527  0.000777
    10 C     0.002528  0.000099 -0.000220
    11 H     0.000001  0.000730 -0.000027
    12 H    -0.000367  0.000265  0.000198
    13 H     0.000210  0.000046 -0.000350
    14 H     0.000395 -0.000036  0.000068
    15 H     0.000018  0.000580 -0.000053
    16 H     0.000217  0.000591  0.000388
    17 H    -0.000641 -0.000163 -0.000042
    18 H    -0.000033 -0.000408  0.000108
    19 H    -0.000077 -0.000310  0.000343
    20 H    -0.008509 -0.007867 -0.001439
    21 Sn    0.003108 -0.002976 -0.003658
    22 Cl   -0.005309  0.000714  0.001838
    23 Cl    0.002478 -0.001520  0.008155
    24 Cl   -0.001384 -0.004750 -0.000122
    25 Cl    0.000723 -0.000749 -0.004054
 ----------------------------------------
 Mulliken charges used for AMS results%charges...

 dE(predicted):    -0.14835E-02, dE(actual):    -0.14561E-02, Trust radius:    1.000000, all in a.u.
 
----------------------------------------------------------------------
Geometry Convergence after Step  16       (Hartree/Angstrom,Angstrom)
----------------------------------------------------------------------
current energy                               -4.55527925 Hartree
energy change                      -0.00145614     0.00025000    F
constrained gradient max            0.04265451     0.00100000    F
constrained gradient rms            0.00857369     0.00066667    F
gradient max                        0.04265451
gradient rms                        0.00857369
cart. step max                      0.16425065     0.01000000    F
cart. step rms                      0.04029020     0.00666667    F
 
 
--------
Geometry
--------
Formula: C7H12Cl4OSn
Atoms
  Index Symbol   x (angstrom)   y (angstrom)   z (angstrom)
      1      H    -0.26119545     0.03626822    -0.15595811
      2      C    -0.15986618    -2.09193392    -0.14825503
      3      C     0.35366584    -0.84863990    -0.04120131
      4      C     1.77066396    -0.69297986     0.23952652
      5      O     2.39831717     0.35376941     0.38010462
      6      H     0.51795508    -2.93959337    -0.02236502
      7      C    -1.56903575    -3.30420950    -1.76042317
      8      C    -1.58544924    -2.51102275    -0.42517364
      9      C    -2.56512764    -1.34216528    -0.51817475
     10      C    -1.99725878    -3.46549802     0.72746584
     11      H    -2.01849709    -2.93734243     1.68551527
     12      H    -2.57319314    -3.68452965    -1.97231016
     13      H    -0.88667032    -4.15873057    -1.71660341
     14      H    -1.26287658    -2.66676459    -2.59511558
     15      H    -3.56909556    -1.70893214    -0.75042108
     16      H    -2.28547549    -0.63541569    -1.30509761
     17      H    -2.63197388    -0.78993286     0.42413413
     18      H    -2.99841685    -3.86606408     0.53861369
     19      H    -1.31058135    -4.31294993     0.81933171
     20      H     2.30635375    -1.65715129     0.35785924
     21     Sn     1.82582955     2.64815816    -0.00070681
     22     Cl    -0.34287165     3.60604782     0.12706109
     23     Cl     1.53179430     1.75568561    -2.18236184
     24     Cl     3.67222297     3.97863242    -0.54402421
     25     Cl     2.16884560     2.58198876     2.33954136
 
Total System Charge             0.00000
 
 *** GOStep17 ***

 Energy gradients wrt nuclear displacements
 ==========================================

     Atom      Cartesian (a.u./angstrom)
                 X         Y         Z
 ----------------------------------------
     1 H    -0.000045 -0.001587 -0.000103
     2 C     0.009863  0.004936  0.001349
     3 C    -0.007611 -0.002194 -0.002142
     4 C     0.026649  0.029062 -0.000081
     5 O    -0.013181 -0.013978  0.002843
     6 H    -0.003092 -0.002283  0.000294
     7 C     0.000307 -0.000811  0.000211
     8 C    -0.011503  0.005641 -0.002786
     9 C     0.004148 -0.006750  0.000600
    10 C     0.002455 -0.000377  0.000284
    11 H     0.000057  0.000549 -0.000121
    12 H    -0.000183  0.000289  0.000091
    13 H     0.000142 -0.000017 -0.000211
    14 H     0.000275 -0.000008 -0.000076
    15 H    -0.000138  0.000545  0.000113
    16 H     0.000425  0.000505  0.000386
    17 H    -0.000914 -0.000140 -0.000099
    18 H    -0.000043 -0.000390 -0.000126
    19 H     0.000010 -0.000329  0.000378
    20 H    -0.006620 -0.006533 -0.000885
    21 Sn    0.002857 -0.003549 -0.003032
    22 Cl   -0.004371  0.000687  0.001195
    23 Cl    0.001275  0.000534  0.005633
    24 Cl   -0.001328 -0.003863 -0.000237
    25 Cl    0.000566  0.000060 -0.003478
 ----------------------------------------
 Mulliken charges used for AMS results%charges...

 dE(predicted):    -0.49849E-03, dE(actual):    -0.76137E-03, Trust radius:    1.000000, all in a.u.
 
----------------------------------------------------------------------
Geometry Convergence after Step  17       (Hartree/Angstrom,Angstrom)
----------------------------------------------------------------------
current energy                               -4.55604062 Hartree
energy change                      -0.00076137     0.00025000    F
constrained gradient max            0.02905009     0.00100000    F
constrained gradient rms            0.00587203     0.00066667    F
gradient max                        0.02905009
gradient rms                        0.00587203
cart. step max                      0.17316650     0.01000000    F
cart. step rms                      0.04917870     0.00666667    F
 
 
--------
Geometry
--------
Formula: C7H12Cl4OSn
Atoms
  Index Symbol   x (angstrom)   y (angstrom)   z (angstrom)
      1      H    -0.26291673     0.01980832    -0.18142222
      2      C    -0.16204983    -2.11442965    -0.15156691
      3      C     0.35302953    -0.86660546    -0.07056977
      4      C     1.76694468    -0.70153027     0.16597296
      5      O     2.39143448     0.36547732     0.26494940
      6      H     0.53455279    -2.94713410    -0.02338328
      7      C    -1.57571165    -3.36077358    -1.73049960
      8      C    -1.58329463    -2.53448191    -0.41462531
      9      C    -2.55300113    -1.34972118    -0.54770796
     10      C    -2.02223790    -3.45065565     0.75697841
     11      H    -2.03336875    -2.90637760     1.70621665
     12      H    -2.58238436    -3.74072873    -1.93080496
     13      H    -0.89970296    -4.21917771    -1.66518808
     14      H    -1.26770792    -2.74686637    -2.58192601
     15      H    -3.56515931    -1.71653403    -0.74244676
     16      H    -2.28115273    -0.68877884    -1.37609920
     17      H    -2.59144487    -0.75100893     0.36759005
     18      H    -3.03283300    -3.82809378     0.57204637
     19      H    -1.35719011    -4.31318093     0.86693558
     20      H     2.34735003    -1.63936474     0.27815876
     21     Sn     1.84396853     2.65516556     0.02692525
     22     Cl    -0.25537559     3.72806779     0.15846453
     23     Cl     1.53666967     1.92885210    -2.21795550
     24     Cl     3.66715354     4.06068825    -0.40095072
     25     Cl     2.11249149     2.46407870     2.37187007
 
Total System Charge             0.00000
 
 *** GOStep18 ***

 Energy gradients wrt nuclear displacements
 ==========================================

     Atom      Cartesian (a.u./angstrom)
                 X         Y         Z
 ----------------------------------------
     1 H    -0.000637 -0.000028  0.000546
     2 C     0.001525  0.001211  0.000927
     3 C     0.000321  0.000235 -0.001324
     4 C     0.001903  0.003144 -0.002235
     5 O    -0.002091  0.005574  0.002645
     6 H     0.000061 -0.000206  0.000447
     7 C    -0.000368  0.000006 -0.000264
     8 C    -0.001581 -0.001289  0.000145
     9 C     0.001371 -0.001089  0.000116
    10 C     0.000344  0.000708 -0.000857
    11 H    -0.000153 -0.000159  0.000407
    12 H    -0.000094 -0.000149 -0.000164
    13 H     0.000057 -0.000169 -0.000013
    14 H     0.000025  0.000102 -0.000233
    15 H    -0.000450  0.000072 -0.000322
    16 H    -0.000357  0.000501 -0.000159
    17 H    -0.000160  0.000367  0.000228
    18 H    -0.000272 -0.000103  0.000084
    19 H     0.000063 -0.000159  0.000095
    20 H    -0.000591 -0.004416  0.000067
    21 Sn    0.001799 -0.008869  0.000619
    22 Cl    0.002786 -0.000204  0.000023
    23 Cl   -0.000033  0.003026  0.003019
    24 Cl   -0.002767 -0.000640 -0.000645
    25 Cl   -0.000700  0.002532 -0.003152
 ----------------------------------------
 Mulliken charges used for AMS results%charges...

 dE(predicted):    -0.11668E-02, dE(actual):    -0.11472E-02, Trust radius:    1.000000, all in a.u.
 
----------------------------------------------------------------------
Geometry Convergence after Step  18       (Hartree/Angstrom,Angstrom)
----------------------------------------------------------------------
current energy                               -4.55718778 Hartree
energy change                      -0.00114716     0.00025000    F
constrained gradient max            0.00886934     0.00100000    F
constrained gradient rms            0.00175961     0.00066667    F
gradient max                        0.00886934
gradient rms                        0.00175961
cart. step max                      0.08327200     0.01000000    F
cart. step rms                      0.02064831     0.00666667    F
 
 
--------
Geometry
--------
Formula: C7H12Cl4OSn
Atoms
  Index Symbol   x (angstrom)   y (angstrom)   z (angstrom)
      1      H    -0.25052782     0.01746660    -0.21144437
      2      C    -0.15911746    -2.11748314    -0.16277240
      3      C     0.36042337    -0.87066401    -0.08823097
      4      C     1.77068655    -0.70486298     0.15692364
      5      O     2.39318145     0.36427360     0.25965020
      6      H     0.53709899    -2.95030730    -0.03349157
      7      C    -1.59005991    -3.35353413    -1.72938713
      8      C    -1.58222697    -2.53144836    -0.41130877
      9      C    -2.55254369    -1.34361387    -0.52954066
     10      C    -2.01022476    -3.45131042     0.76204550
     11      H    -2.00875446    -2.91022033     1.71296533
     12      H    -2.59931830    -3.73167875    -1.91930619
     13      H    -0.91442623    -4.21288865    -1.67409335
     14      H    -1.29099445    -2.73752532    -2.58233255
     15      H    -3.56758394    -1.70960495    -0.70887732
     16      H    -2.29070878    -0.68438549    -1.36226768
     17      H    -2.57577459    -0.74543125     0.38630276
     18      H    -3.02374027    -3.82485560     0.58648987
     19      H    -1.34621615    -4.31590144     0.86080630
     20      H     2.35945058    -1.63359319     0.28078127
     21     Sn     1.83578395     2.65767367     0.01824000
     22     Cl    -0.28070671     3.70555682     0.08942507
     23     Cl     1.60816052     1.93023300    -2.23937625
     24     Cl     3.67698285     4.06528688    -0.33086547
     25     Cl     2.02921949     2.43551319     2.37062652
 
Total System Charge             0.00000
 
 *** GOStep19 ***

 Energy gradients wrt nuclear displacements
 ==========================================

     Atom      Cartesian (a.u./angstrom)
                 X         Y         Z
 ----------------------------------------
     1 H    -0.000078  0.000007 -0.000269
     2 C    -0.000634 -0.000933 -0.000599
     3 C     0.001728  0.001087  0.000089
     4 C    -0.002778 -0.001250 -0.003122
     5 O    -0.000174  0.005826  0.003430
     6 H     0.000515  0.000107  0.000173
     7 C     0.000181  0.000276  0.000008
     8 C     0.000168 -0.000814  0.000708
     9 C     0.000016  0.000387  0.000174
    10 C     0.000272  0.000311 -0.000385
    11 H    -0.000071 -0.000154  0.000187
    12 H     0.000019 -0.000013  0.000006
    13 H     0.000034 -0.000150 -0.000002
    14 H    -0.000036  0.000035 -0.000142
    15 H    -0.000241  0.000012 -0.000112
    16 H    -0.000140  0.000192 -0.000098
    17 H    -0.000196  0.000195  0.000098
    18 H    -0.000095  0.000005 -0.000036
    19 H     0.000053 -0.000131  0.000074
    20 H     0.000443 -0.001237  0.000466
    21 Sn    0.001029 -0.006623  0.000634
    22 Cl    0.001553 -0.000245  0.000185
    23 Cl   -0.000254  0.001747  0.001514
    24 Cl   -0.001120 -0.000146 -0.000579
    25 Cl   -0.000193  0.001509 -0.002401
 ----------------------------------------
 Mulliken charges used for AMS results%charges...

 dE(predicted):    -0.16851E-03, dE(actual):    -0.25622E-03, Trust radius:    1.000000, all in a.u.
 
----------------------------------------------------------------------
Geometry Convergence after Step  19       (Hartree/Angstrom,Angstrom)
----------------------------------------------------------------------
current energy                               -4.55744399 Hartree
energy change                      -0.00025622     0.00025000    F
constrained gradient max            0.00662483     0.00100000    F
constrained gradient rms            0.00135644     0.00066667    F
gradient max                        0.00662483
gradient rms                        0.00135644
cart. step max                      0.15602759     0.01000000    F
cart. step rms                      0.03693501     0.00666667    F
 
 
--------
Geometry
--------
Formula: C7H12Cl4OSn
Atoms
  Index Symbol   x (angstrom)   y (angstrom)   z (angstrom)
      1      H    -0.23655839     0.01368957    -0.24717309
      2      C    -0.15386462    -2.12140085    -0.18729839
      3      C     0.37235602    -0.87639222    -0.12889538
      4      C     1.78318550    -0.70793048     0.10275011
      5      O     2.40062389     0.36446054     0.20922873
      6      H     0.53996942    -2.95492641    -0.05108543
      7      C    -1.61317746    -3.37552744    -1.71174549
      8      C    -1.58019555    -2.52930649    -0.40958628
      9      C    -2.54661119    -1.33751710    -0.53490696
     10      C    -1.99745994    -3.42542934     0.78664380
     11      H    -1.97725280    -2.86626705     1.72662253
     12      H    -2.62741402    -3.75088330    -1.87911654
     13      H    -0.94184364    -4.23771783    -1.65054826
     14      H    -1.32348055    -2.77734737    -2.58024960
     15      H    -3.56653543    -1.70248761    -0.68374829
     16      H    -2.29684758    -0.70104972    -1.38845147
     17      H    -2.54573307    -0.71913526     0.36727652
     18      H    -3.01600013    -3.79414398     0.63259173
     19      H    -1.33796341    -4.29265000     0.89095918
     20      H     2.38706706    -1.62524882     0.21626709
     21     Sn     1.82138835     2.66732328     0.02936758
     22     Cl    -0.30907282     3.69204199     0.04382589
     23     Cl     1.70439357     1.98375755    -2.25580324
[...]
    11     H       0.034242  -0.263239  -0.262196
    12     H      -0.374579  -0.204966  -0.033655
    13     H       0.303323  -0.272599   0.110215
    14     H       0.089394   0.166120  -0.336380
    15     H       0.002483   0.001432   0.000079
    16     H      -0.001518  -0.005664   0.010210
    17     H      -0.001589   0.004660   0.003496
    18     H       0.365589   0.205253   0.046188
    19     H      -0.296968   0.265028  -0.106085
    20     H       0.000013  -0.000019   0.000110
    21    Sn      -0.000000  -0.000000   0.000001
    22    Cl       0.000000   0.000000  -0.000001
    23    Cl      -0.000000  -0.000000  -0.000001
    24    Cl       0.000001  -0.000000  -0.000001
    25    Cl       0.000001   0.000001  -0.000002
 
 Mode:    66      Frequency (cm-1):     2994.3977     Intensity (km/mol):       27.5352
 Index  Atom      ---- Displacements (x/y/z) ----
     1     H       0.004382  -0.003974   0.001564
     2     C      -0.001293   0.001916  -0.000587
     3     C      -0.000792   0.000142  -0.000185
     4     C       0.000306  -0.000091   0.000076
     5     O      -0.000053  -0.000059  -0.000001
     6     H       0.021871  -0.019937   0.007806
     7     C       0.000943  -0.021905  -0.020328
     8     C      -0.000561   0.000478  -0.000201
     9     C       0.017127  -0.014084   0.006127
    10     C      -0.008765  -0.014741   0.025560
    11     H       0.032332  -0.244209  -0.246411
    12     H       0.321228   0.176771   0.029536
    13     H      -0.251998   0.226303  -0.091625
    14     H      -0.079332  -0.145177   0.298979
    15     H      -0.235150  -0.140933  -0.024317
    16     H       0.062181   0.117204  -0.238905
    17     H      -0.026649   0.189076   0.191515
    18     H       0.331247   0.186528   0.040894
    19     H      -0.260338   0.232166  -0.092892
    20     H      -0.001867   0.002008  -0.000718
    21    Sn       0.000002   0.000002   0.000001
    22    Cl      -0.000001  -0.000003  -0.000001
    23    Cl      -0.000002  -0.000001  -0.000002
    24    Cl      -0.000002  -0.000001  -0.000000
    25    Cl      -0.000001  -0.000001  -0.000001
 
 Mode:    67      Frequency (cm-1):     3002.9875     Intensity (km/mol):       13.0762
 Index  Atom      ---- Displacements (x/y/z) ----
     1     H       0.010914  -0.011320   0.004122
     2     C       0.001861  -0.003388   0.000950
     3     C      -0.000547   0.001375  -0.000344
     4     C      -0.000157   0.000118  -0.000051
     5     O       0.000056   0.000064   0.000001
     6     H      -0.032035   0.030988  -0.011745
     7     C      -0.001385   0.012769   0.010693
     8     C      -0.000315   0.000426  -0.000128
     9     C       0.031357  -0.028443   0.011748
    10     C       0.003806   0.008676  -0.013866
    11     H      -0.016977   0.124770   0.127015
    12     H      -0.169710  -0.093624  -0.016237
    13     H       0.143939  -0.131075   0.050298
    14     H       0.041519   0.075586  -0.157590
    15     H      -0.422626  -0.251385  -0.044019
    16     H       0.113590   0.223942  -0.452508
    17     H      -0.054045   0.359029   0.359911
    18     H      -0.171328  -0.096346  -0.020489
    19     H       0.143967  -0.130226   0.054034
    20     H      -0.000274  -0.000471   0.000027
    21    Sn       0.000000  -0.000003   0.000000
    22    Cl       0.000000   0.000003   0.000000
    23    Cl      -0.000001   0.000002  -0.000001
    24    Cl      -0.000001   0.000002   0.000000
    25    Cl       0.000000   0.000002  -0.000000
 
 Mode:    68      Frequency (cm-1):     3064.7877     Intensity (km/mol):        2.5903
 Index  Atom      ---- Displacements (x/y/z) ----
     1     H       0.009910  -0.010200   0.003730
     2     C       0.056246  -0.052848   0.020360
     3     C       0.000795   0.003662  -0.000457
     4     C       0.001938   0.000112   0.000371
     5     O      -0.000380  -0.000494   0.000007
     6     H      -0.682436   0.600148  -0.240094
     7     C      -0.017378   0.005680  -0.010150
     8     C      -0.000571  -0.001271   0.000093
     9     C       0.002606   0.006148  -0.000580
    10     C      -0.020123   0.006746  -0.000266
    11     H       0.002466  -0.049163  -0.052615
    12     H       0.116372   0.071753   0.010717
    13     H       0.114072  -0.104497   0.040051
    14     H      -0.022944  -0.032533   0.069883
    15     H      -0.031915  -0.019469  -0.003260
    16     H      -0.008592  -0.019564   0.040215
    17     H       0.006157  -0.031178  -0.031212
    18     H       0.122820   0.076128   0.012425
    19     H       0.114926  -0.104972   0.043085
    20     H      -0.014750   0.009634  -0.004620
    21    Sn       0.000002   0.000002   0.000001
    22    Cl      -0.000001  -0.000002  -0.000001
    23    Cl      -0.000002  -0.000001  -0.000002
    24    Cl      -0.000002  -0.000001  -0.000000
    25    Cl      -0.000001  -0.000001  -0.000001
 
 Mode:    69      Frequency (cm-1):     3068.1545     Intensity (km/mol):        0.0604
 Index  Atom      ---- Displacements (x/y/z) ----
     1     H       0.000135  -0.000142   0.000698
     2     C       0.000520  -0.000480   0.000172
     3     C       0.000015   0.000018  -0.000134
     4     C       0.000025  -0.000004  -0.000031
     5     O      -0.000006  -0.000003   0.000009
     6     H      -0.006490   0.005663  -0.001252
     7     C      -0.062667   0.007036  -0.013673
     8     C       0.000017   0.000013   0.000059
     9     C      -0.000007  -0.000576  -0.001483
    10     C       0.064336  -0.005361   0.015840
    11     H       0.018807  -0.013219  -0.008187
    12     H       0.417688   0.244950   0.039001
    13     H       0.347183  -0.329094   0.124573
    14     H      -0.017407   0.000532  -0.001165
    15     H       0.003839   0.001766  -0.001140
    16     H      -0.002900  -0.006008   0.009520
    17     H      -0.001137   0.011272   0.010009
    18     H      -0.432775  -0.257110  -0.047393
    19     H      -0.353359   0.333649  -0.133726
    20     H      -0.000149   0.000096   0.000009
    21    Sn      -0.000000  -0.000000   0.000000
    22    Cl       0.000000   0.000000  -0.000000
    23    Cl       0.000000  -0.000000  -0.000001
    24    Cl       0.000000   0.000000  -0.000000
    25    Cl       0.000000   0.000000  -0.000000
 
 Mode:    70      Frequency (cm-1):     3072.0413     Intensity (km/mol):       13.6370
 Index  Atom      ---- Displacements (x/y/z) ----
     1     H       0.017657  -0.016732   0.006394
     2     C       0.013299  -0.012392   0.004793
     3     C      -0.001189   0.002020  -0.000579
     4     C       0.000530   0.000112   0.000088
     5     O      -0.000089  -0.000139   0.000005
     6     H      -0.162931   0.141010  -0.056983
     7     C       0.051531   0.013447  -0.010046
     8     C       0.001115  -0.000559   0.000326
     9     C      -0.035031  -0.038800   0.002473
    10     C       0.042082   0.015155   0.021158
    11     H       0.030553  -0.147820  -0.151090
    12     H      -0.397692  -0.226393  -0.043976
    13     H      -0.170721   0.172849  -0.066308
    14     H      -0.049065  -0.106242   0.229192
    15     H       0.399453   0.228393   0.044050
    16     H       0.044942   0.100665  -0.221005
    17     H      -0.032273   0.136326   0.145837
    18     H      -0.360461  -0.206360  -0.036232
    19     H      -0.174986   0.174017  -0.065472
    20     H      -0.004377   0.002725  -0.001342
    21    Sn       0.000002  -0.000000   0.000001
    22    Cl      -0.000001   0.000000  -0.000000
    23    Cl      -0.000002   0.000000  -0.000002
    24    Cl      -0.000002   0.000001  -0.000000
    25    Cl      -0.000001   0.000000  -0.000001
 
 Mode:    71      Frequency (cm-1):     3074.4154     Intensity (km/mol):        4.3042
 Index  Atom      ---- Displacements (x/y/z) ----
     1     H       0.001353  -0.001279   0.000510
     2     C       0.003451  -0.003213   0.001242
     3     C      -0.000020   0.000279  -0.000102
     4     C       0.000118  -0.000001   0.000049
     5     O      -0.000020  -0.000023  -0.000002
     6     H      -0.042838   0.036930  -0.014401
     7     C      -0.004976  -0.045634   0.047241
     8     C       0.000278  -0.000240   0.000495
     9     C       0.009781  -0.004512  -0.038523
    10     C       0.006367   0.044441   0.025769
    11     H       0.047277  -0.319189  -0.333823
    12     H       0.174413   0.087123   0.028347
    13     H      -0.253386   0.218841  -0.077330
    14     H       0.137501   0.237871  -0.515588
    15     H      -0.021432  -0.014740  -0.012053
    16     H      -0.066487  -0.140689   0.269723
    17     H      -0.030082   0.210138   0.199720
    18     H      -0.233086  -0.123074  -0.020843
    19     H       0.109471  -0.086515   0.045438
    20     H      -0.000980   0.000670  -0.000369
    21    Sn       0.000000  -0.000000   0.000001
    22    Cl       0.000000   0.000000  -0.000000
    23    Cl      -0.000001   0.000000  -0.000001
    24    Cl      -0.000000   0.000000  -0.000000
    25    Cl       0.000000   0.000001  -0.000001
 
 Mode:    72      Frequency (cm-1):     3076.2002     Intensity (km/mol):       40.6520
 Index  Atom      ---- Displacements (x/y/z) ----
     1     H       0.000224  -0.000332   0.000104
     2     C      -0.013435   0.012506  -0.004840
     3     C      -0.000333  -0.000650   0.000036
     4     C      -0.000436   0.000083  -0.000098
     5     O       0.000067   0.000057   0.000004
     6     H       0.167987  -0.144166   0.058582
     7     C      -0.030825   0.025186  -0.028802
     8     C      -0.001928   0.001242  -0.000567
     9     C      -0.023627  -0.031013  -0.008042
    10     C      -0.038577   0.048575   0.014175
    11     H       0.034584  -0.305954  -0.323503
    12     H       0.134961   0.087502   0.007281
    13     H       0.308539  -0.282539   0.101947
    14     H      -0.070998  -0.108111   0.234215
    15     H       0.305409   0.171812   0.031472
    16     H       0.016290   0.037435  -0.093831
    17     H      -0.031723   0.155459   0.160608
    18     H       0.063066   0.054176   0.010851
    19     H       0.366766  -0.329588   0.146098
    20     H       0.003593  -0.002548   0.001151
    21    Sn      -0.000001   0.000001  -0.000000
    22    Cl       0.000000  -0.000001  -0.000000
    23    Cl       0.000001  -0.000001   0.000001
    24    Cl       0.000002  -0.000002  -0.000000
    25    Cl       0.000001  -0.000001  -0.000000
 
 Mode:    73      Frequency (cm-1):     3079.4544     Intensity (km/mol):       45.3703
 Index  Atom      ---- Displacements (x/y/z) ----
     1     H      -0.011699   0.011207  -0.004380
     2     C      -0.002697   0.002455  -0.000860
     3     C       0.000810  -0.001361   0.000497
     4     C      -0.000222  -0.000123  -0.000044
     5     O       0.000052   0.000087   0.000006
     6     H       0.029462  -0.026069   0.010119
     7     C       0.024449   0.033455  -0.032569
     8     C       0.001526   0.001501  -0.001140
     9     C       0.044651   0.032863  -0.045089
    10     C       0.010662   0.018018   0.012378
    11     H       0.021048  -0.129158  -0.133930
    12     H      -0.276012  -0.151264  -0.037738
    13     H       0.084833  -0.065043   0.020589
    14     H      -0.104132  -0.186462   0.407571
    15     H      -0.414832  -0.237177  -0.057086
    16     H      -0.116518  -0.258177   0.517570
    17     H      -0.003665   0.099002   0.080110
    18     H      -0.161650  -0.090002  -0.013068
    19     H       0.008171  -0.000982   0.005489
    20     H       0.001429  -0.000825   0.000364
    21    Sn      -0.000001  -0.000003  -0.000002
    22    Cl       0.000001   0.000003   0.000001
    23    Cl       0.000002   0.000002   0.000003
    24    Cl       0.000001   0.000001   0.000001
    25    Cl       0.000000   0.000001   0.000002
 
 Mode:    74      Frequency (cm-1):     3080.0149     Intensity (km/mol):       39.3195
 Index  Atom      ---- Displacements (x/y/z) ----
     1     H       0.008368  -0.008025   0.002884
     2     C       0.001929  -0.001769   0.000843
     3     C      -0.000622   0.000996  -0.000140
     4     C       0.000164   0.000076  -0.000011
     5     O      -0.000039  -0.000056   0.000016
     6     H      -0.021764   0.019163  -0.008080
     7     C      -0.006317   0.000417  -0.001456
     8     C      -0.000486  -0.001439  -0.001638
     9     C      -0.009926  -0.038821  -0.066195
    10     C      -0.006356  -0.042680  -0.024668
    11     H      -0.045189   0.307235   0.324100
    12     H       0.051387   0.031644   0.006296
    13     H       0.029271  -0.028123   0.011177
    14     H      -0.003799  -0.002074   0.006770
    15     H       0.281180   0.153761   0.013960
    16     H      -0.080853  -0.171526   0.308220
    17     H      -0.081468   0.484625   0.470679
    18     H       0.227213   0.119552   0.018822
    19     H      -0.105376   0.084939  -0.044200
    20     H      -0.000999   0.000578  -0.000394
    21    Sn       0.000002   0.000002  -0.000001
    22    Cl      -0.000001  -0.000003   0.000000
    23    Cl      -0.000001  -0.000001   0.000001
    24    Cl      -0.000002  -0.000000   0.000001
    25    Cl      -0.000002  -0.000002   0.000003
 
 Mode:    75      Frequency (cm-1):     3143.9775     Intensity (km/mol):        3.1228
 Index  Atom      ---- Displacements (x/y/z) ----
     1     H       0.659663  -0.701422   0.252046
     2     C      -0.002972  -0.003561   0.000001
     3     C      -0.055018   0.063024  -0.021790
     4     C       0.001405   0.002335  -0.000114
     5     O      -0.000225  -0.000732   0.000079
     6     H       0.016245  -0.017000   0.006176
     7     C      -0.000391   0.000195  -0.000243
     8     C      -0.000363   0.000179  -0.000102
     9     C       0.000916   0.002267  -0.000172
    10     C      -0.000437   0.000236  -0.000002
    11     H       0.000069  -0.001199  -0.001412
    12     H       0.003152   0.002029   0.000488
    13     H       0.003089  -0.003000   0.001081
    14     H      -0.000560  -0.000669   0.001644
    15     H      -0.010477  -0.007542  -0.000858
    16     H      -0.004642  -0.009140   0.018751
    17     H       0.002372  -0.015219  -0.015386
    18     H       0.003183   0.001955   0.000123
    19     H       0.003048  -0.002947   0.001212
    20     H       0.005418  -0.004370   0.001842
    21    Sn      -0.000003   0.000000  -0.000000
    22    Cl       0.000001   0.000001   0.000000
    23    Cl       0.000004   0.000002   0.000002
    24    Cl       0.000003  -0.000002  -0.000000
    25    Cl       0.000002   0.000000  -0.000001

PES point character: Geometry corresponds to a transition state.
                     (Hint: Very small negative frequencies do not count towards being a
                     transition state, as they usually indicate noise on a very flat PES. See
                     the PESPointCharacter%NegativeFrequenciesTolerance keyword documentation.)




 ============================
 Statistical Thermal Analysis  ***  ideal gas assumed  ***
 ============================
  
 Pressure:                  1.000000 atm.
 Temperature:             298.150000 K



 Moments of Inertia [amu*bohr^2] and principal axis
 ==================================================

        2427.6792      18879.9046      19075.8296
 ------------------------------------------------
           0.4673          0.8825          0.0536
           0.8795         -0.4578         -0.1302
           0.0903         -0.1080          0.9900


 The rotational contribution to the molecular entropy includes
 a term, dependent on the symmetry number sigma. The results 
 reported below were computed using sigma = 1, determined from
 the point group symmetry of the input geometry (NOSYM). 
 If this is not the correct symmetry, try symmetrizing the molecule before
 running the calculation (note: linear molecules should be aligned along one
 of the Cartesian axes).
 Contributions from frequencies below 20 1/cm are not included in vibrational sums.
 Their contributions, if any, are reported separately.


     Temp                                                        Transl      Rotat     Vibrat     Total
     ----                                                        ------      -----     ------     -----

     298.15   Entropy (cal/mol-K):                               43.633     35.124     58.869    137.625
              Nuclear Internal Energy (kcal/mol):                 0.889      0.889    118.605    120.382
              Constant Volume Heat Capacity (cal/mol-K):          2.981      2.981     49.713     55.675
          (c) Constant Volume Heat Capacity (cal/mol-K):          2.981      2.981     44.415     50.377

       Summary of energy terms
                                                   hartree              eV         kcal/mol           kJ/mol
                                      --------------------     -----------       ----------      -----------
      Energy from Engine:               -4.572432229272841       -124.4222         -2869.24        -12004.92
      Nuclear Internal Energy:           0.191840868968225          5.2203           120.38           503.68
  (c) Nuclear Internal Energy:           0.189135324513394          5.1466           118.68           496.57
      Internal Energy U:                -4.380591360304616       -119.2020         -2748.86        -11501.24
      pV/n = RT:                         0.000944186013486          0.0257             0.59             2.48
      Enthalpy H:                       -4.379647174291130       -119.1763         -2748.27        -11498.76
      -T*S:                             -0.065390305514010         -1.7794           -41.03          -171.68
  (c) -T*S:                             -0.062556301377495         -1.7022           -39.25          -164.24
      Gibbs free energy:                -4.445037479805140       -120.9556         -2789.30        -11670.44
 
 
 
  (c) The properties marked with this symbol have been corrected using 'low vibrational frequency free rotor
      interpolation corrections'. For those terms all positive frequencies are used (also ones below 20 1/cm),
      but the contribution to the partition function of small vibrational frequencies is modified as described
      in the following paper:
      S. Grimme, 'Supramolecular Binding Thermodynamics by Dispersion-Corrected Density Functional Theory'
      (Chem. Eur. J. 2012, 18, 9955-9964)
      Configuration: Dampener Frequency          :   100.000 1/cm
                     Dampener Alpha              :     4.000
                     Averaging Moment of Inertia : 1.000E-44 kg m2

--------------
Atomic charges
--------------
  Index   Atom    Charge
      1      H   -0.2036
      2      C    0.3691
      3      C    0.1804
      4      C    0.6579
      5      O   -0.5156
      6      H   -0.2064
      7      C    0.7234
      8      C   -0.0378
      9      C    0.7338
     10      C    0.7228
     11      H   -0.2307
     12      H   -0.2285
     13      H   -0.2429
     14      H   -0.2310
     15      H   -0.2522
     16      H   -0.2368
     17      H   -0.2367
     18      H   -0.2284
     19      H   -0.2428
     20      H   -0.2919
     21     Sn    1.0247
     22     Cl   -0.2633
     23     Cl   -0.2538
     24     Cl   -0.2499
     25     Cl   -0.2596


Dipole moment vector    (Debye):    -2.70652246   -4.45337840   -0.08311886
              magnitude (Debye):     5.21198155


ERROR: Geometry optimization failed! (Converged, but did not find a minimum on the PES.)


AMS application finished. Exiting.
NORMAL TERMINATION
     Total cpu time:   91185.93
  Total system time:     596.38
 Total elapsed time:  184546.67
 WARNING: total elapsed time is much higher than the (CPU+system) time. 
 Make sure the machine is not oversubscribed and has enough memory, SCM_TMPDIR p
 oints to a fast file system, and the network is fast enough.
