

 Parallel Execution: Process Information
 ==============================================================================
 Rank   Node Name                              NodeID   MyNodeRank  NodeMaster
    0   node115                                   0          0          0
    1   node115                                   0          1         -1
    2   node115                                   0          2         -1
    3   node115                                   0          3         -1
 ==============================================================================


May use up to 122928MB of RAM as shared memory on node 0

 *******************************************************************************
 *                                                                             *
 *  --------------------------------                                           *
 *   Amsterdam Modeling Suite (AMS)              2021.102                      *
 *  --------------------------------                                           *
 *                                               r95042 2021-06-07             *
 *                                                                             *
 *                                                                             *
 *                              =================                              *
 *                              |               |                              *
 *                              |     A M S     |                              *
 *                              |               |                              *
 *                              =================                              *
 *                                                                             *
 *                                                                             *
 *   Online information and documentation:  https://www.scm.com/support/       *
 *   E-mail:  support@scm.com   info@scm.com                                   *
 *                                                                             *
 *   Scientific publications using AMS results must be properly referenced     *
 *   See the User Manuals (or the web site) for recommended citations          *
 *   The terms and conditions of the End User License Agreement apply to       *
 *   the use of AMS, https://www.scm.com/license-terms/                        *
 *                                                                             *
 **********************  x86_64_linux_intel / intelmpi  ************************
 
 Licensed to: VU/FEW (+ SARA) / ALGEMEEN / Amsterdam / THE NETHERLANDS
 SCM User ID: u7668
  
 AMS 2021.102  RunTime: Jan22-2022 23:29:48  ShM Nodes: 1  Procs: 4

 AMS jobname: 11.achiral_catalyst.H_H_I2.Rsub_cat_complex
 AMS jobid  : 956722523

 Start   directory: /scistor/tc/yhk800/MasterProject/calculations/achiral_catalyst_H_H_I2/11.achiral_catalyst.H_H_I2.Rsub_cat_complex/
 Results directory: /scistor/tc/yhk800/MasterProject/calculations/achiral_catalyst_H_H_I2/11.achiral_catalyst.H_H_I2.Rsub_cat_complex/
 Scratch directory: /scratch/3976/amstmp_11.achiral_catalyst.H_H_I2.Rsub_cat_complex_kid0.956722523/


 Communication costs MPI_COMM_WORLD:      1.598 usec per message,   0.0063 usec per 8-byte item
 Communication costs for intra-node:      0.230 usec per message,   0.0077 usec per 8-byte item

 RNG seed: 298867019 766626112 1615196989 987707298 2054230136 1179609486 160542541 -600657100



                      ************************************************************************
                      *  ADF 2021.102  RunTime: Jan22-2022 23:29:49  ShM Nodes: 1  Procs: 4  *
                      ************************************************************************
  
       ***************************
       *  GEOMETRY OPTIMIZATION  *
       ***************************

Optimization Method                    Quasi Newton
Optimization Coordinates               Delocalized Coordinates
Optimize lattice                       F
 
 ------------------------------------------------------
 Convergence criteria (Hartree,Angstrom)
 ------------------------------------------------------
 Maximum gradient               0.001000000000
 Maximum rms gradient           0.000666666667
 Maximum step allowed           0.010000000000
 Maximum rms step allowed       0.006666666667
 Maximum energy change allowe   0.000100000000
 Maximum stress energy allowe   0.000500000000
 
Initial model Hessian                  Automatic Hessian
 
------------------------------------
Quasi-Newton Optimizer Parameters
------------------------------------
Hessian Update Method                  BFGS
Maximum number of steps                  250
First GDIIS cycle                          0
Maximum GDIIS vectors                      0
Trust radius (bohr)                        0.200000
Trust radius varies                        T
Constraints converged at all steps         T
Use projector                              T
 
 Rigid motions settings for: old optimizer
 Atomic rotations (x,y,z):     T T T
 Atomic translations (x,y,z):  T T T
 Tolerance:                   1.000000000000000E-006
 
--------
Geometry
--------
Formula: C3H4I2O
Atoms
  Index Symbol   x (angstrom)   y (angstrom)   z (angstrom)
      1      H     0.09039378    -1.80988465    -0.51555853
      2      C    -0.90781845    -0.00771283    -0.04943451
      3      C     0.18266548    -0.75219647    -0.26512258
      4      C     1.55928918    -0.22013974    -0.18291419
      5      O     1.86635738     0.93365884     0.07180470
      6      H    -0.82431619     1.04491294     0.20242594
      7      H    -1.88982657    -0.42714089    -0.11755322
      8      H     2.32514145    -0.94333367    -0.37095895
      9      I     2.11649976     4.00970191     1.24030281
     10      I     2.32639196     6.59078168     2.22077896
 
Total System Charge             0.00000
 
 
----------------
ADF Engine Input
----------------
 
 NumericalQuality VeryGood
 SCF
 Converge 1.0e-6
 Iterations 99
 End
 SYMMETRY NOSYM
 XC
 GGA OLYP
 End
 basis
 core None
 type TZ2P
 End
 

 Title: *** (NO TITLE) ***

Bad geometry: could not add a dihedral for atom   10
 Using automatic Hessian for delocalized coordinates.
 *** GOStep1 ***

 Energy gradients wrt nuclear displacements
 ==========================================

     Atom      Cartesian (a.u./angstrom)
                 X         Y         Z
 ----------------------------------------
     1 H    -0.000819 -0.000964 -0.000233
     2 C    -0.013495 -0.008866 -0.001739
     3 C     0.002010  0.002457  0.000520
     4 C     0.029592 -0.032318 -0.008074
     5 O     0.001214 -0.000358 -0.000390
     6 H    -0.000662 -0.001816 -0.000309
     7 H     0.020311  0.008008  0.001201
     8 H    -0.038305  0.034843  0.009250
     9 I    -0.001712 -0.023504 -0.008665
    10 I     0.001865  0.022519  0.008439
 ----------------------------------------
 Mulliken charges used for AMS results%charges...
 
----------------------------------------------------------------------
Geometry Convergence after Step   1       (Hartree/Angstrom,Angstrom)
----------------------------------------------------------------------
current energy                               -1.76970116 Hartree
energy change                      -1.76970116     0.00010000    F
constrained gradient max            0.03831573     0.00100000    F
constrained gradient rms            0.01497097     0.00066667    F
gradient max                        0.03831573
gradient rms                        0.01497097
cart. step max                      0.03714755     0.01000000    F
cart. step rms                      0.01522913     0.00666667    F
 
 
--------
Geometry
--------
Formula: C3H4I2O
Atoms
  Index Symbol   x (angstrom)   y (angstrom)   z (angstrom)
      1      H     0.07967180    -1.80341255    -0.50521462
      2      C    -0.90332784     0.01138027    -0.04322562
      3      C     0.18196893    -0.74576703    -0.26115028
      4      C     1.56833654    -0.22831227    -0.18839961
      5      O     1.87806903     0.92580054     0.06403083
      6      H    -0.80636474     1.06615794     0.19914032
      7      H    -1.90155573    -0.40181674    -0.10298874
      8      H     2.35118887    -0.97472254    -0.38240542
      9      I     2.10754651     4.00448967     1.23359779
     10      I     2.28924441     6.56484983     2.22038577
 
Total System Charge             0.00000
 
 *** GOStep2 ***

 Energy gradients wrt nuclear displacements
 ==========================================

     Atom      Cartesian (a.u./angstrom)
                 X         Y         Z
 ----------------------------------------
     1 H    -0.000149 -0.000224 -0.000180
     2 C    -0.006436 -0.001601  0.000204
     3 C     0.002929  0.001587  0.000120
     4 C     0.010364 -0.016758 -0.004131
     5 O    -0.000481  0.005050  0.001088
     6 H    -0.000023 -0.000454 -0.000306
     7 H     0.005204  0.002181  0.000322
     8 H    -0.011538  0.011291  0.003171
     9 I    -0.001151 -0.018586 -0.006947
    10 I     0.001281  0.017513  0.006660
 ----------------------------------------
 Mulliken charges used for AMS results%charges...

 dE(predicted):    -0.11768E-02, dE(actual):    -0.16137E-02, Trust radius:    0.200000, all in a.u.
 
----------------------------------------------------------------------
Geometry Convergence after Step   2       (Hartree/Angstrom,Angstrom)
----------------------------------------------------------------------
current energy                               -1.77131491 Hartree
energy change                      -0.00161375     0.00010000    F
constrained gradient max            0.01859368     0.00100000    F
constrained gradient rms            0.00716031     0.00066667    F
gradient max                        0.01859368
gradient rms                        0.00716031
cart. step max                      0.03798414     0.01000000    F
cart. step rms                      0.01348315     0.00666667    F
 
 
--------
Geometry
--------
Formula: C3H4I2O
Atoms
  Index Symbol   x (angstrom)   y (angstrom)   z (angstrom)
      1      H     0.06979815    -1.79751851    -0.49717193
      2      C    -0.89618272     0.02830037    -0.04044121
      3      C     0.18079378    -0.74018381    -0.25705513
      4      C     1.57306693    -0.23190334    -0.18843798
      5      O     1.89273577     0.91778490     0.05808351
      6      H    -0.78780210     1.08108570     0.20835296
      7      H    -1.90481249    -0.37758053    -0.09743777
      8      H     2.36189380    -0.99670456    -0.39308471
      9      I     2.10402641     4.00154512     1.22506176
     10      I     2.25126027     6.53382177     2.21590091
 
Total System Charge             0.00000
 
 *** GOStep3 ***

 Energy gradients wrt nuclear displacements
 ==========================================

     Atom      Cartesian (a.u./angstrom)
                 X         Y         Z
 ----------------------------------------
     1 H    -0.000154 -0.000113  0.000296
     2 C     0.001393  0.000969 -0.001114
     3 C     0.000697  0.001150 -0.000167
     4 C    -0.000931  0.000873  0.001770
     5 O    -0.001599  0.000839 -0.000375
     6 H     0.000347  0.000080  0.000730
     7 H    -0.002552 -0.001114  0.000077
     8 H     0.002662 -0.001529 -0.000865
     9 I    -0.000438 -0.010923 -0.004119
    10 I     0.000576  0.009767  0.003766
 ----------------------------------------
 Mulliken charges used for AMS results%charges...

 dE(predicted):    -0.44546E-03, dE(actual):    -0.55020E-03, Trust radius:    0.200000, all in a.u.
 
----------------------------------------------------------------------
Geometry Convergence after Step   3       (Hartree/Angstrom,Angstrom)
----------------------------------------------------------------------
current energy                               -1.77186510 Hartree
energy change                      -0.00055020     0.00010000    F
constrained gradient max            0.01093217     0.00100000    F
constrained gradient rms            0.00305078     0.00066667    F
gradient max                        0.01093217
gradient rms                        0.00305078
cart. step max                      0.03489538     0.01000000    F
cart. step rms                      0.01542828     0.00666667    F
 
 
--------
Geometry
--------
Formula: C3H4I2O
Atoms
  Index Symbol   x (angstrom)   y (angstrom)   z (angstrom)
      1      H     0.06211531    -1.79595591    -0.47530578
      2      C    -0.88818665     0.04099302    -0.02715160
      3      C     0.18092062    -0.73685907    -0.24783711
      4      C     1.57688639    -0.23314510    -0.20671872
      5      O     1.90866585     0.91252817     0.04156655
      6      H    -0.77260810     1.10293857     0.17531207
      7      H    -1.90098188    -0.35749806    -0.07684159
      8      H     2.36108572    -1.01459176    -0.39365308
      9      I     2.10051563     3.99622142     1.22032797
     10      I     2.21636489     6.50401585     2.22407172
 
Total System Charge             0.00000
 
 *** GOStep4 ***

 Energy gradients wrt nuclear displacements
 ==========================================

     Atom      Cartesian (a.u./angstrom)
                 X         Y         Z
 ----------------------------------------
     1 H    -0.000131  0.000213 -0.000770
     2 C     0.003231  0.000086  0.004786
     3 C    -0.000368 -0.000582  0.001635
     4 C    -0.004418  0.006977 -0.005751
     5 O    -0.001020  0.000771  0.002765
     6 H     0.000101  0.000733 -0.001954
     7 H    -0.003425 -0.001061 -0.001678
     8 H     0.005870 -0.005956  0.001350
     9 I     0.000021 -0.004715 -0.001761
    10 I     0.000140  0.003535  0.001379
 ----------------------------------------
 Mulliken charges used for AMS results%charges...

 dE(predicted):    -0.13074E-03, dE(actual):    -0.54772E-04, Trust radius:    0.200000, all in a.u.
 
----------------------------------------------------------------------
Geometry Convergence after Step   4       (Hartree/Angstrom,Angstrom)
----------------------------------------------------------------------
current energy                               -1.77191988 Hartree
energy change                      -0.00005477     0.00010000    T
constrained gradient max            0.00697292     0.00100000    F
constrained gradient rms            0.00305089     0.00066667    F
gradient max                        0.00697292
gradient rms                        0.00305089
cart. step max                      0.03913824     0.01000000    F
cart. step rms                      0.01473564     0.00666667    F
 
 
--------
Geometry
--------
Formula: C3H4I2O
Atoms
  Index Symbol   x (angstrom)   y (angstrom)   z (angstrom)
      1      H     0.05163985    -1.78759776    -0.48574979
      2      C    -0.87971702     0.05806430    -0.02999589
      3      C     0.18067282    -0.73159676    -0.25030117
      4      C     1.58283233    -0.24598548    -0.18960798
      5      O     1.92865951     0.89788266     0.04920807
      6      H    -0.75271848     1.11357164     0.19700841
      7      H    -1.89533483    -0.33160921    -0.06755319
      8      H     2.35518649    -1.03036221    -0.41426875
      9      I     2.09633047     3.99207671     1.21463528
     10      I     2.17722665     6.48420323     2.21039543
 
Total System Charge             0.00000
 
 *** GOStep5 ***

 Energy gradients wrt nuclear displacements
 ==========================================

     Atom      Cartesian (a.u./angstrom)
                 X         Y         Z
 ----------------------------------------
     1 H     0.000043  0.000259 -0.000622
     2 C     0.002475  0.001043 -0.000327
     3 C    -0.001232 -0.001183 -0.002128
     4 C    -0.004346  0.004540  0.008094
     5 O    -0.000558  0.003059 -0.001367
     6 H    -0.000109  0.000379 -0.000605
     7 H    -0.002065 -0.001083  0.001008
     8 H     0.005594 -0.005854 -0.003651
     9 I     0.000354  0.001793  0.000778
    10 I    -0.000157 -0.002953 -0.001180
 ----------------------------------------
 Mulliken charges used for AMS results%charges...

 dE(predicted):    -0.16337E-03, dE(actual):    -0.66523E-04, Trust radius:    0.200000, all in a.u.
 
----------------------------------------------------------------------
Geometry Convergence after Step   5       (Hartree/Angstrom,Angstrom)
----------------------------------------------------------------------
current energy                               -1.77198640 Hartree
energy change                      -0.00006652     0.00010000    T
constrained gradient max            0.00809277     0.00100000    F
constrained gradient rms            0.00277917     0.00066667    F
gradient max                        0.00809277
gradient rms                        0.00277917
cart. step max                      0.02446476     0.01000000    F
cart. step rms                      0.00682029     0.00666667    F
 
 
--------
Geometry
--------
Formula: C3H4I2O
Atoms
  Index Symbol   x (angstrom)   y (angstrom)   z (angstrom)
      1      H     0.04944510    -1.78769826    -0.47952578
      2      C    -0.87786049     0.06245798    -0.03581972
      3      C     0.18119907    -0.72979492    -0.25385036
      4      C     1.58395487    -0.24718849    -0.20294606
      5      O     1.93222453     0.89483863     0.04026029
      6      H    -0.74731726     1.11039104     0.22147317
      7      H    -1.89278115    -0.32410910    -0.07580408
      8      H     2.35193682    -1.03397493    -0.40300545
      9      I     2.09224773     3.98775369     1.21180451
     10      I     2.17172855     6.48597149     2.21118391
 
Total System Charge             0.00000
 
 *** GOStep6 ***

 Energy gradients wrt nuclear displacements
 ==========================================

     Atom      Cartesian (a.u./angstrom)
                 X         Y         Z
 ----------------------------------------
     1 H     0.000178 -0.000198  0.001362
     2 C     0.000165  0.001390 -0.004497
     3 C    -0.000260 -0.000898  0.000732
     4 C    -0.000813  0.003013 -0.001843
     5 O    -0.001125  0.000957  0.001044
     6 H     0.000015 -0.000647  0.002648
     7 H    -0.000178 -0.000236  0.000684
     8 H     0.001814 -0.002268  0.000234
     9 I     0.000272 -0.000608 -0.000135
    10 I    -0.000068 -0.000505 -0.000229
 ----------------------------------------
 Mulliken charges used for AMS results%charges...

 dE(predicted):    -0.98219E-04, dE(actual):    -0.43048E-04, Trust radius:    0.200000, all in a.u.
 
----------------------------------------------------------------------
Geometry Convergence after Step   6       (Hartree/Angstrom,Angstrom)
----------------------------------------------------------------------
current energy                               -1.77202945 Hartree
energy change                      -0.00004305     0.00010000    T
constrained gradient max            0.00449315     0.00100000    F
constrained gradient rms            0.00140447     0.00066667    F
gradient max                        0.00449315
gradient rms                        0.00140447
cart. step max                      0.01653134     0.01000000    F
cart. step rms                      0.00552337     0.00666667    T
 
 
--------
Geometry
--------
Formula: C3H4I2O
Atoms
  Index Symbol   x (angstrom)   y (angstrom)   z (angstrom)
      1      H     0.04702354    -1.78692022    -0.48003295
      2      C    -0.87550119     0.06077935    -0.01928838
      3      C     0.18208203    -0.73140589    -0.24472078
      4      C     1.58543438    -0.25187318    -0.20018032
      5      O     1.93519778     0.89016851     0.04003553
      6      H    -0.74387492     1.11549702     0.20762726
      7      H    -1.89111346    -0.31864746    -0.08088775
      8      H     2.34905438    -1.03270655    -0.41397186
      9      I     2.08815267     3.98402690     1.21237507
     10      I     2.16832258     6.48972865     2.21281462
 
Total System Charge             0.00000
 
 *** GOStep7 ***

 Energy gradients wrt nuclear displacements
 ==========================================

     Atom      Cartesian (a.u./angstrom)
                 X         Y         Z
 ----------------------------------------
     1 H     0.000112  0.000039  0.000039
     2 C    -0.000809 -0.000948  0.003289
     3 C     0.000401  0.000490 -0.000512
     4 C     0.002451 -0.000505 -0.000184
     5 O    -0.001809 -0.000171 -0.000217
     6 H    -0.000047  0.000092 -0.000879
     7 H     0.000698  0.000680 -0.001576
     8 H    -0.001206  0.001373  0.000378
     9 I     0.000189 -0.003043 -0.001117
    10 I     0.000019  0.001993  0.000777
 ----------------------------------------
 Mulliken charges used for AMS results%charges...

 dE(predicted):    -0.77241E-04, dE(actual):    -0.27683E-04, Trust radius:    0.200000, all in a.u.
 
----------------------------------------------------------------------
Geometry Convergence after Step   7       (Hartree/Angstrom,Angstrom)
----------------------------------------------------------------------
current energy                               -1.77205713 Hartree
energy change                      -0.00002768     0.00010000    T
constrained gradient max            0.00329267     0.00100000    F
constrained gradient rms            0.00123155     0.00066667    F
gradient max                        0.00329267
gradient rms                        0.00123155
cart. step max                      0.02729201     0.01000000    F
cart. step rms                      0.01079200     0.00666667    F
 
 
--------
Geometry
--------
Formula: C3H4I2O
Atoms
  Index Symbol   x (angstrom)   y (angstrom)   z (angstrom)
      1      H     0.03864364    -1.78248457    -0.47798619
      2      C    -0.86897799     0.07420595    -0.02341966
      3      C     0.18191058    -0.72691799    -0.24791188
      4      C     1.58927398    -0.25799576    -0.20496316
      5      O     1.94944893     0.88094649     0.03666801
      6      H    -0.72928547     1.12942005     0.19642514
      7      H    -1.88692092    -0.30409216    -0.05359574
      8      H     2.34712868    -1.04793911    -0.41450939
      9      I     2.08250767     3.97765254     1.21047602
     10      I     2.14104869     6.47585169     2.21258729
 
Total System Charge             0.00000
 
 *** GOStep8 ***

 Energy gradients wrt nuclear displacements
 ==========================================

     Atom      Cartesian (a.u./angstrom)
                 X         Y         Z
 ----------------------------------------
     1 H     0.000042  0.000180 -0.000676
     2 C    -0.000136 -0.000112  0.000006
     3 C    -0.000114 -0.000119  0.000319
     4 C     0.001145 -0.000132  0.000016
     5 O    -0.001248  0.001131  0.000428
     6 H    -0.000050  0.000120 -0.000632
     7 H     0.000251 -0.000028  0.000603
     8 H    -0.000110 -0.000016  0.000272
     9 I     0.000290 -0.000637 -0.000169
    10 I    -0.000069 -0.000386 -0.000168
 ----------------------------------------
 Mulliken charges used for AMS results%charges...

 dE(predicted):    -0.42677E-04, dE(actual):    -0.36404E-04, Trust radius:    0.200000, all in a.u.
 
----------------------------------------------------------------------
Geometry Convergence after Step   8       (Hartree/Angstrom,Angstrom)
----------------------------------------------------------------------
current energy                               -1.77209353 Hartree
energy change                      -0.00003640     0.00010000    T
constrained gradient max            0.00124837     0.00100000    F
constrained gradient rms            0.00046993     0.00066667    T
gradient max                        0.00124837
gradient rms                        0.00046993
cart. step max                      0.03371367     0.01000000    F
cart. step rms                      0.01246772     0.00666667    F
 
 
--------
Geometry
--------
Formula: C3H4I2O
Atoms
  Index Symbol   x (angstrom)   y (angstrom)   z (angstrom)
      1      H     0.02780766    -1.77667298    -0.47642019
      2      C    -0.86005777     0.08858668    -0.01781213
      3      C     0.18206834    -0.72244053    -0.24733761
      4      C     1.59431135    -0.26758383    -0.20743394
      5      O     1.96747711     0.86765630     0.03339200
      6      H    -0.70884394     1.13908298     0.21651755
      7      H    -1.88233993    -0.27774450    -0.05441997
      8      H     2.34333458    -1.06483733    -0.42429872
      9      I     2.07368535     3.96939689     1.20529385
     10      I     2.10733503     6.46320343     2.20628959
 
Total System Charge             0.00000
 
 *** GOStep9 ***

 Energy gradients wrt nuclear displacements
 ==========================================

     Atom      Cartesian (a.u./angstrom)
                 X         Y         Z
 ----------------------------------------
     1 H     0.000060 -0.000068  0.000318
     2 C     0.000135  0.000067 -0.000553
     3 C    -0.000407 -0.000211 -0.000429
     4 C     0.000605 -0.000273  0.000324
     5 O    -0.000923  0.002006  0.000365
     6 H     0.000002 -0.000060  0.000386
     7 H     0.000039  0.000005  0.000067
     8 H     0.000256 -0.000495 -0.000157
     9 I     0.000336  0.001175  0.000547
    10 I    -0.000102 -0.002145 -0.000868
 ----------------------------------------
 Mulliken charges used for AMS results%charges...

 dE(predicted):    -0.19182E-04, dE(actual):    -0.16612E-04, Trust radius:    0.200000, all in a.u.
 
----------------------------------------------------------------------
Geometry Convergence after Step   9       (Hartree/Angstrom,Angstrom)
----------------------------------------------------------------------
current energy                               -1.77211014 Hartree
energy change                      -0.00001661     0.00010000    T
constrained gradient max            0.00215571     0.00100000    F
constrained gradient rms            0.00068399     0.00066667    F
gradient max                        0.00215571
gradient rms                        0.00068399
cart. step max                      0.05830121     0.01000000    F
cart. step rms                      0.02145476     0.00666667    F
 
 
--------
Geometry
--------
Formula: C3H4I2O
Atoms
  Index Symbol   x (angstrom)   y (angstrom)   z (angstrom)
      1      H     0.00795012    -1.76469914    -0.47823709
      2      C    -0.84346450     0.11396198    -0.00694163
      3      C     0.18286280    -0.71443607    -0.24549051
      4      C     1.60326428    -0.28574406    -0.21371482
      5      O     1.99946555     0.84127372     0.02919838
      6      H    -0.67233088     1.15980576     0.23415960
      7      H    -1.87216792    -0.23369572    -0.04156709
      8      H     2.33537439    -1.09429617    -0.43930631
      9      I     2.05479014     3.95105325     1.19829693
     10      I     2.04903381     6.44542357     2.19737298
 
Total System Charge             0.00000
 
 *** GOStep10 ***

 Energy gradients wrt nuclear displacements
 ==========================================

     Atom      Cartesian (a.u./angstrom)
                 X         Y         Z
 ----------------------------------------
     1 H     0.000011 -0.000151  0.000468
     2 C    -0.000126  0.000008 -0.000809
     3 C    -0.000221  0.000035 -0.000201
     4 C     0.001414 -0.001204 -0.000217
     5 O    -0.001009  0.001640  0.000304
     6 H     0.000087 -0.000133  0.000657
     7 H     0.000195  0.000081 -0.000080
     8 H    -0.000580  0.000561  0.000148
     9 I     0.000307  0.001535  0.000674
    10 I    -0.000078 -0.002372 -0.000945
 ----------------------------------------
 Mulliken charges used for AMS results%charges...

 dE(predicted):    -0.20585E-04, dE(actual):    -0.27942E-04, Trust radius:    0.200000, all in a.u.
 
----------------------------------------------------------------------
Geometry Convergence after Step  10       (Hartree/Angstrom,Angstrom)
----------------------------------------------------------------------
current energy                               -1.77213809 Hartree
energy change                      -0.00002794     0.00010000    T
constrained gradient max            0.00238142     0.00100000    F
constrained gradient rms            0.00079385     0.00066667    F
gradient max                        0.00238142
gradient rms                        0.00079385
cart. step max                      0.14000270     0.01000000    F
cart. step rms                      0.05221003     0.00666667    F
 
 
--------
Geometry
--------
Formula: C3H4I2O
Atoms
  Index Symbol   x (angstrom)   y (angstrom)   z (angstrom)
      1      H    -0.03936541    -1.73140225    -0.48581041
      2      C    -0.80140775     0.17510245     0.02117033
      3      C     0.18533910    -0.69291963    -0.24258386
      4      C     1.62341902    -0.32892169    -0.22825033
      5      O     2.07610761     0.77492041     0.02320051
      6      H    -0.58324531     1.21004964     0.27055527
      7      H    -1.84415609    -0.12835623    -0.00477970
      8      H     2.31381504    -1.16430707    -0.47524143
      9      I     2.00524048     3.90258948     1.18130544
     10      I     1.90903111     6.40189201     2.17420461
 
Total System Charge             0.00000
 
 *** GOStep11 ***

 Energy gradients wrt nuclear displacements
 ==========================================

     Atom      Cartesian (a.u./angstrom)
                 X         Y         Z
 ----------------------------------------
     1 H    -0.000155 -0.000225  0.000402
     2 C    -0.000590 -0.000308 -0.000303
     3 C     0.000378  0.000588 -0.000045
     4 C     0.002197 -0.002888 -0.001039
     5 O    -0.000801  0.000785  0.000191
     6 H     0.000278 -0.000072  0.000456
     7 H     0.000305  0.000109 -0.000296
     8 H    -0.001761  0.002482  0.000784
     9 I     0.000172  0.000766  0.000288
    10 I    -0.000023 -0.001236 -0.000439
 ----------------------------------------
 Mulliken charges used for AMS results%charges...

 dE(predicted):    -0.82407E-04, dE(actual):    -0.67103E-04, Trust radius:    0.400000, all in a.u.
 
----------------------------------------------------------------------
Geometry Convergence after Step  11       (Hartree/Angstrom,Angstrom)
----------------------------------------------------------------------
current energy                               -1.77220519 Hartree
energy change                      -0.00006710     0.00010000    T
constrained gradient max            0.00289575     0.00100000    F
constrained gradient rms            0.00099290     0.00066667    F
gradient max                        0.00289575
gradient rms                        0.00099290
cart. step max                      0.21412964     0.01000000    F
cart. step rms                      0.08257650     0.00666667    F
 
 
--------
Geometry
--------
Formula: C3H4I2O
Atoms
  Index Symbol   x (angstrom)   y (angstrom)   z (angstrom)
      1      H    -0.10874799    -1.66096739    -0.53670520
      2      C    -0.73336055     0.26513861     0.07075689
      3      C     0.18980790    -0.65337442    -0.24724107
      4      C     1.64958653    -0.39127080    -0.24062382
      5      O     2.18663285     0.66292216     0.05510091
      6      H    -0.44543996     1.27121715     0.36270626
      7      H    -1.79429204     0.03184223     0.04611314
      8      H     2.27505490    -1.26003476    -0.54003224
      9      I     1.93063465     3.82223442     1.15714966
     10      I     1.69490148     6.33093992     2.10654592
 
Total System Charge             0.00000
 
 *** GOStep12 ***

 Energy gradients wrt nuclear displacements
 ==========================================

     Atom      Cartesian (a.u./angstrom)
                 X         Y         Z
 ----------------------------------------
     1 H    -0.000288 -0.000157  0.000138
     2 C    -0.000638 -0.000131 -0.000133
     3 C     0.000728  0.000462  0.000354
     4 C     0.001388 -0.002666 -0.000992
     5 O    -0.000029 -0.000185 -0.000040
     6 H     0.000504  0.000176  0.000311
     7 H     0.000079  0.000033 -0.000296
     8 H    -0.001389  0.002617  0.000809
     9 I    -0.000464  0.000958  0.000118
    10 I     0.000108 -0.001107 -0.000270
 ----------------------------------------
 Mulliken charges used for AMS results%charges...
 
----------------------------------------------------------------------
Geometry Convergence after Step  12       (Hartree/Angstrom,Angstrom)
----------------------------------------------------------------------
current energy                               -1.77220480 Hartree
energy change                       0.00000039     0.00010000    T
constrained gradient max            0.00267240     0.00100000    F
constrained gradient rms            0.00089163     0.00066667    F
gradient max                        0.00267240
gradient rms                        0.00089163
cart. step max                      0.09473102     0.01000000    F
cart. step rms                      0.03724645     0.00666667    F
 
 
--------
Geometry
--------
Formula: C3H4I2O
Atoms
  Index Symbol   x (angstrom)   y (angstrom)   z (angstrom)
      1      H    -0.07773852    -1.69368616    -0.51326268
      2      C    -0.76504609     0.22523637     0.04829080
      3      C     0.18750780    -0.67097517    -0.24551494
      4      C     1.63868389    -0.36373534    -0.23637691
      5      O     2.14136737     0.71279168     0.03817532
      6      H    -0.50993536     1.24655198     0.31679281
      7      H    -1.81811042    -0.04168333     0.02651839
      8      H     2.29248731    -1.22142623    -0.51111884
      9      I     1.96592930     3.85776785     1.17297905
     10      I     1.78963250     6.36780547     2.13728742
 
Total System Charge             0.00000
 
 *** GOStep13 ***

 Energy gradients wrt nuclear displacements
 ==========================================

     Atom      Cartesian (a.u./angstrom)
                 X         Y         Z
 ----------------------------------------
     1 H    -0.000176 -0.000078  0.000062
     2 C    -0.000377 -0.000107  0.000001
     3 C     0.000411  0.000193  0.000112
     4 C     0.000600 -0.001544 -0.000643
     5 O     0.000159  0.000369  0.000096
     6 H     0.000180 -0.000072  0.000061
     7 H     0.000056 -0.000015 -0.000140
     8 H    -0.000793  0.001481  0.000542
     9 I    -0.000034 -0.000004 -0.000081
    10 I    -0.000027 -0.000224 -0.000010
 ----------------------------------------
 Mulliken charges used for AMS results%charges...

 dE(predicted):    -0.26150E-04, dE(actual):    -0.35433E-04, Trust radius:    0.400000, all in a.u.
 
----------------------------------------------------------------------
Geometry Convergence after Step  13       (Hartree/Angstrom,Angstrom)
----------------------------------------------------------------------
current energy                               -1.77224023 Hartree
energy change                      -0.00003543     0.00010000    T
constrained gradient max            0.00155283     0.00100000    F
constrained gradient rms            0.00048213     0.00066667    T
gradient max                        0.00155283
gradient rms                        0.00048213
cart. step max                      0.01643482     0.01000000    F
cart. step rms                      0.00693226     0.00666667    F
 
 
--------
Geometry
--------
Formula: C3H4I2O
Atoms
  Index Symbol   x (angstrom)   y (angstrom)   z (angstrom)
      1      H    -0.08257596    -1.68691208    -0.52249807
      2      C    -0.76016615     0.23146696     0.05295642
      3      C     0.18766575    -0.66739744    -0.24785783
      4      C     1.64054264    -0.36832813    -0.23674716
      5      O     2.14982957     0.70308336     0.04512649
      6      H    -0.50053879     1.24983449     0.32806418
      7      H    -1.81452930    -0.03051273     0.03068090
      8      H     2.28934106    -1.22893322    -0.51812660
      9      I     1.96201129     3.85110095     1.17525238
     10      I     1.77319768     6.36524497     2.12691973
 
Total System Charge             0.00000
 
 *** GOStep14 ***

 Energy gradients wrt nuclear displacements
 ==========================================

     Atom      Cartesian (a.u./angstrom)
                 X         Y         Z
 ----------------------------------------
     1 H    -0.000079 -0.000039  0.000052
     2 C    -0.000166 -0.000023  0.000010
     3 C     0.000256  0.000110 -0.000017
     4 C     0.000163 -0.000666 -0.000195
     5 O     0.000131  0.000239  0.000019
     6 H     0.000091 -0.000058  0.000022
     7 H     0.000000 -0.000039 -0.000067
     8 H    -0.000308  0.000674  0.000251
     9 I    -0.000061 -0.000017 -0.000074
    10 I    -0.000026 -0.000182 -0.000001
 ----------------------------------------
 Mulliken charges used for AMS results%charges...

 dE(predicted):    -0.25926E-05, dE(actual):    -0.24709E-05, Trust radius:    0.400000, all in a.u.
 
----------------------------------------------------------------------
Geometry Convergence after Step  14       (Hartree/Angstrom,Angstrom)
----------------------------------------------------------------------
current energy                               -1.77224270 Hartree
energy change                      -0.00000247     0.00010000    T
constrained gradient max            0.00067444     0.00100000    T
constrained gradient rms            0.00021340     0.00066667    T
gradient max                        0.00067444
gradient rms                        0.00021340
cart. step max                      0.02265756     0.01000000    F
cart. step rms                      0.01120843     0.00666667    F
 
 
--------
Geometry
--------
Formula: C3H4I2O
Atoms
  Index Symbol   x (angstrom)   y (angstrom)   z (angstrom)
      1      H    -0.08939256    -1.67551681    -0.54266224
      2      C    -0.75355356     0.23911014     0.06094773
      3      C     0.18774689    -0.66222324    -0.25256903
      4      C     1.64300220    -0.37489550    -0.23648813
      5      O     2.16147061     0.68788451     0.06064458
      6      H    -0.48772266     1.25175556     0.35067610
      7      H    -1.80971263    -0.01539359     0.03531005
      8      H     2.28467005    -1.23829674    -0.53041540
      9      I     1.95772933     3.84138626     1.18210179
     10      I     1.75054012     6.36483653     2.10622498
 
Total System Charge             0.00000
 
 *** GOStep15 ***

 Energy gradients wrt nuclear displacements
 ==========================================

     Atom      Cartesian (a.u./angstrom)
                 X         Y         Z
 ----------------------------------------
     1 H     0.000063  0.000020 -0.000027
     2 C     0.000093  0.000070 -0.000068
     3 C    -0.000020 -0.000079  0.000007
     4 C    -0.000387  0.000370  0.000282
     5 O     0.000168  0.000251 -0.000038
     6 H    -0.000048 -0.000018 -0.000006
     7 H    -0.000014 -0.000045  0.000031
     8 H     0.000267 -0.000406 -0.000135
     9 I    -0.000085 -0.000122 -0.000072
    10 I    -0.000036 -0.000042  0.000025
 ----------------------------------------
 Mulliken charges used for AMS results%charges...
 
----------------------------------------------------------------------
Geometry Convergence after Step  15       (Hartree/Angstrom,Angstrom)
----------------------------------------------------------------------
current energy                               -1.77224328 Hartree
energy change                      -0.00000057     0.00010000    T
constrained gradient max            0.00041950     0.00100000    T
constrained gradient rms            0.00016049     0.00066667    T
gradient max                        0.00041950
gradient rms                        0.00016049
cart. step max                      0.01515703     0.01000000    F
cart. step rms                      0.00612305     0.00666667    T
 
 
--------
Geometry
--------
Formula: C3H4I2O
Atoms
  Index Symbol   x (angstrom)   y (angstrom)   z (angstrom)
      1      H    -0.09170408    -1.66972475    -0.55731897
      2      C    -0.75172231     0.24033515     0.06525099
      3      C     0.18754568    -0.66004175    -0.25690263
      4      C     1.64365117    -0.37714650    -0.23556541
      5      O     2.16493806     0.68097011     0.07283362
      6      H    -0.48391786     1.24928109     0.36583312
      7      H    -1.80848045    -0.01124564     0.03600555
      8      H     2.28309152    -1.23997503    -0.53701004
      9      I     1.95770891     3.83810080     1.18808015
     10      I     1.74366714     6.36809363     2.09256404
 
Total System Charge             0.00000
 
 *** GOStep16 ***

 Energy gradients wrt nuclear displacements
 ==========================================

     Atom      Cartesian (a.u./angstrom)
                 X         Y         Z
 ----------------------------------------
     1 H     0.000113  0.000009  0.000026
     2 C     0.000160  0.000055 -0.000043
     3 C    -0.000134 -0.000076 -0.000145
     4 C    -0.000427  0.000678  0.000449
     5 O     0.000138  0.000166 -0.000061
     6 H    -0.000098 -0.000004  0.000000
     7 H     0.000003 -0.000028  0.000044
     8 H     0.000373 -0.000643 -0.000237
     9 I    -0.000086 -0.000125 -0.000038
    10 I    -0.000042 -0.000032  0.000005
 ----------------------------------------
 Mulliken charges used for AMS results%charges...
 
----------------------------------------------------------------------
Geometry Convergence after Step  16       (Hartree/Angstrom,Angstrom)
----------------------------------------------------------------------
current energy                               -1.77224373 Hartree
energy change                      -0.00000045     0.00010000    T
constrained gradient max            0.00067057     0.00100000    T
constrained gradient rms            0.00023284     0.00066667    T
gradient max                        0.00067057
gradient rms                        0.00023284
cart. step max                      0.02402571     0.01000000    F
cart. step rms                      0.00896848     0.00666667    F
 
 
--------
Geometry
--------
Formula: C3H4I2O
Atoms
  Index Symbol   x (angstrom)   y (angstrom)   z (angstrom)
      1      H    -0.09224555    -1.66332246    -0.58134468
      2      C    -0.75235995     0.23702822     0.07037216
      3      C     0.18695980    -0.65899003    -0.26344542
      4      C     1.64332218    -0.37787814    -0.23305212
      5      O     2.16443855     0.67504732     0.09276585
      6      H    -0.48447238     1.24065727     0.38823697
      7      H    -1.80928803    -0.01275614     0.03366724
      8      H     2.28285664    -1.23682804    -0.54493960
      9      I     1.96110650     3.83764320     1.19871319
     10      I     1.74446002     6.37804591     2.07279684
 
Total System Charge             0.00000
 
 *** GOStep17 ***

 Energy gradients wrt nuclear displacements
 ==========================================

     Atom      Cartesian (a.u./angstrom)
                 X         Y         Z
 ----------------------------------------
     1 H     0.000134  0.000009 -0.000007
     2 C     0.000186  0.000010 -0.000068
     3 C    -0.000218 -0.000088 -0.000061
     4 C    -0.000286  0.000691  0.000374
     5 O     0.000083  0.000133 -0.000069
     6 H    -0.000124  0.000003  0.000009
     7 H     0.000028 -0.000003  0.000043
     8 H     0.000310 -0.000595 -0.000216
     9 I    -0.000058 -0.000152  0.000015
    10 I    -0.000055 -0.000008 -0.000020
 ----------------------------------------
 Mulliken charges used for AMS results%charges...

 dE(predicted):    -0.14519E-05, dE(actual):    -0.26268E-05, Trust radius:    0.400000, all in a.u.
 
----------------------------------------------------------------------
Geometry Convergence after Step  17       (Hartree/Angstrom,Angstrom)
----------------------------------------------------------------------
current energy                               -1.77224636 Hartree
energy change                      -0.00000263     0.00010000    T
constrained gradient max            0.00068204     0.00100000    T
constrained gradient rms            0.00021471     0.00066667    T
gradient max                        0.00068204
gradient rms                        0.00021471
cart. step max                      0.02691183     0.01000000    F
cart. step rms                      0.01029621     0.00666667    F
 
 
--------
Geometry
--------
Formula: C3H4I2O
Atoms
  Index Symbol   x (angstrom)   y (angstrom)   z (angstrom)
      1      H    -0.09139188    -1.65738629    -0.60825652
      2      C    -0.75479826     0.23058593     0.07523557
      3      C     0.18619896    -0.65875996    -0.27142233
      4      C     1.64226606    -0.37739410    -0.22959501
      5      O     2.16069945     0.67047146     0.11628717
      6      H    -0.48808703     1.22821862     0.41248619
      7      H    -1.81151582    -0.01849918     0.02953007
      8      H     2.28392915    -1.22996706    -0.55237439
      9      I     1.96555975     3.84026563     1.20921985
     10      I     1.75191741     6.39111207     2.05265983
 
Total System Charge             0.00000
 
 *** GOStep18 ***

 Energy gradients wrt nuclear displacements
 ==========================================

     Atom      Cartesian (a.u./angstrom)
                 X         Y         Z
 ----------------------------------------
     1 H     0.000089 -0.000029  0.000044
     2 C     0.000105 -0.000073 -0.000009
     3 C    -0.000166  0.000020 -0.000114
     4 C     0.000013  0.000198  0.000121
     5 O     0.000050  0.000154 -0.000032
     6 H    -0.000076 -0.000002  0.000014
     7 H     0.000038  0.000015  0.000008
     8 H     0.000037 -0.000117 -0.000047
     9 I    -0.000031 -0.000155  0.000061
    10 I    -0.000060 -0.000011 -0.000047
 ----------------------------------------
 Mulliken charges used for AMS results%charges...

 dE(predicted):    -0.13693E-05, dE(actual):    -0.36638E-05, Trust radius:    0.400000, all in a.u.
 
----------------------------------------------------------------------
Geometry Convergence after Step  18       (Hartree/Angstrom,Angstrom)
----------------------------------------------------------------------
current energy                               -1.77225002 Hartree
energy change                      -0.00000366     0.00010000    T
constrained gradient max            0.00018846     0.00100000    T
constrained gradient rms            0.00008204     0.00066667    T
gradient max                        0.00018846
gradient rms                        0.00008204
cart. step max                      0.01332946     0.01000000    F
cart. step rms                      0.00496646     0.00666667    T
 
 
--------
Geometry
--------
Formula: C3H4I2O
Atoms
  Index Symbol   x (angstrom)   y (angstrom)   z (angstrom)
      1      H    -0.09077562    -1.65457193    -0.62158598
      2      C    -0.75628397     0.22690767     0.07742802
      3      C     0.18585553    -0.65910242    -0.27470353
      4      C     1.64161384    -0.37709172    -0.22742874
      5      O     2.15819951     0.66859973     0.12777800
      6      H    -0.49028268     1.22145461     0.42427191
      7      H    -1.81284851    -0.02191872     0.02682568
      8      H     2.28482332    -1.22616874    -0.55524621
      9      I     1.96738304     3.84314050     1.21144442
     10      I     1.75709333     6.39739815     2.04498686
 
Total System Charge             0.00000
 
 *** GOStep19 ***

 Energy gradients wrt nuclear displacements
 ==========================================

     Atom      Cartesian (a.u./angstrom)
                 X         Y         Z
 ----------------------------------------
     1 H     0.000035 -0.000017 -0.000017
     2 C     0.000026 -0.000053 -0.000049
     3 C    -0.000049  0.000005  0.000062
     4 C     0.000107 -0.000089 -0.000055
     5 O     0.000049  0.000177 -0.000003
     6 H    -0.000021 -0.000011  0.000017
     7 H     0.000017 -0.000001 -0.000007
     8 H    -0.000082  0.000151  0.000047
     9 I    -0.000025 -0.000133  0.000056
    10 I    -0.000056 -0.000030 -0.000050
 ----------------------------------------
 Mulliken charges used for AMS results%charges...

 dE(predicted):    -0.49756E-06, dE(actual):    -0.17192E-05, Trust radius:    0.400000, all in a.u.
 
---------------------------------------------------------
Geometry Convergence after Step  19       ** CONVERGED **
---------------------------------------------------------
current energy                               -1.77225174 Hartree
energy change                      -0.00000172     0.00010000    T
constrained gradient max            0.00016285     0.00100000    T
constrained gradient rms            0.00006428     0.00066667    T
gradient max                        0.00016285
gradient rms                        0.00006428
cart. step max                      0.00568349     0.01000000    T
cart. step rms                      0.00256648     0.00666667    T
 
Geometry optimization converged

Optimized geometry:
 
--------
Geometry
--------
Formula: C3H4I2O
Atoms
  Index Symbol   x (angstrom)   y (angstrom)   z (angstrom)
      1      H    -0.09077562    -1.65457193    -0.62158598
      2      C    -0.75628397     0.22690767     0.07742802
      3      C     0.18585553    -0.65910242    -0.27470353
      4      C     1.64161384    -0.37709172    -0.22742874
      5      O     2.15819951     0.66859973     0.12777800
      6      H    -0.49028268     1.22145461     0.42427191
      7      H    -1.81284851    -0.02191872     0.02682568
      8      H     2.28482332    -1.22616874    -0.55524621
      9      I     1.96738304     3.84314050     1.21144442
     10      I     1.75709333     6.39739815     2.04498686
 
Total System Charge             0.00000
 
Performing a single point calculation on the final geometry ...

 *** adf ***



 ===========================
 A T T A C H E D   F I L E S
 ===========================
  
 Restart
 /scratch/3976/amstmp_11.achiral_catalyst.H_H_I2.Rsub_cat_complex_kid0.956722523
 /GOStep19.rkf*** GOStep19 ***



 ===============================
 M O D E L   P A R A M E T E R S
 ===============================
  
 DENSITY FUNCTIONAL POTENTIAL (scf)
    LDA:                               Exchange only                           == Not Default ==
    Gradient Corrections:              OPTX LYP                                == Not Default ==

 SPIN  (restricted / unrestr.)
    Molecule:                          Restricted                               
    Fragments:                         Restricted                               

 OTHER ASPECTS
    Relativistic Corrections:          scalar (ZORA,MAPA)                       

    Nuclear Charge Density Model:      Point Charge Nuclei                      
    Core Treatment:                    Frozen Orbital(s)                        

    Hyperfine or Zeeman Interaction:   ---                                      



 ===============
 G E O M E T R Y  ***  3D  Molecule  ***
 ===============
  

 ATOMS
 =====                            X Y Z                    CHARGE
                                (Angstrom)             Nucl     +Core       At.Mass
                       --------------------------    ----------------       -------
    1  H              -0.0908   -1.6546   -0.6216      1.00      1.00        1.0078
    2  C              -0.7563    0.2269    0.0774      6.00      6.00       12.0000
    3  C               0.1859   -0.6591   -0.2747      6.00      6.00       12.0000
    4  C               1.6416   -0.3771   -0.2274      6.00      6.00       12.0000
    5  O               2.1582    0.6686    0.1278      8.00      8.00       15.9949
    6  H              -0.4903    1.2215    0.4243      1.00      1.00        1.0078
    7  H              -1.8128   -0.0219    0.0268      1.00      1.00        1.0078
    8  H               2.2848   -1.2262   -0.5552      1.00      1.00        1.0078
    9  I               1.9674    3.8431    1.2114     53.00     53.00      126.9045
   10  I               1.7571    6.3974    2.0450     53.00     53.00      126.9045


 FRAGMENTS
 =========                                     Atoms in this Fragment     Cart. coord.s (Angstrom)
                                               -------------------------------------------------------
    1  H                                                 1  H           -0.0908   -1.6546   -0.6216
    2  H                                                 6  H           -0.4903    1.2215    0.4243
    3  H                                                 7  H           -1.8128   -0.0219    0.0268
    4  H                                                 8  H            2.2848   -1.2262   -0.5552
    5  C                                                 2  C           -0.7563    0.2269    0.0774
    6  C                                                 3  C            0.1859   -0.6591   -0.2747
    7  C                                                 4  C            1.6416   -0.3771   -0.2274
    8  O                                                 5  O            2.1582    0.6686    0.1278
    9  I                                                 9  I            1.9674    3.8431    1.2114
   10  I                                                10  I            1.7571    6.3974    2.0450


 Interatomic Distance Matrix (Angstrom)
 --------------------------------------

   1)     0.000
   2)     2.115   0.000
   3)     1.090   1.340   0.000
   4)     2.188   2.492   1.484   0.000
   5)     3.319   2.948   2.411   1.219   0.000
   6)     3.086   1.086   2.117   2.743   2.722   0.000
   7)     2.460   1.087   2.119   3.482   4.032   1.858   0.000
   8)     2.415   3.429   2.192   1.115   2.018   3.828   4.310   0.000
   9)     6.150   4.667   5.065   4.471   3.360   3.679   5.535   5.378   0.000
  10)     8.681   6.947   7.592   7.146   6.054   5.871   7.617   8.072   2.695   0.000

 Min. Distance =    1.0864
 Max. Distance =    8.6810



 =====================================
 S Y M M E T R Y ,   E L E C T R O N S
 =====================================
  
 Symmetry: NOSYM

 Irreducible Representations, including subspecies
 -------------------------------------------------
 A


 Configuration of Valence Electrons
 ==================================
 ( determined in the SCF procedure )

 Total:   136

 Net Charge: 0 (Nuclei minus Electrons)

 Aufbau principle for MO occupations will be applied through SCF cycle no.      49
 Thereafter, the program will assign electrons to MOs that are spatially
 similar to the occupied MOs in a "reference" cycle ("KeepOrbitals").
 The reference cycle is always the PREVIOUS cycle: it will evolve with
 the SCF procedure.
1
 ***************************************************************************************************



                                      ****************************************
                                      *  B U I L D : (Fragments, Functions)  *
                                      ****************************************
  



 =======
 S F O s  ***  (Symmetrized Fragment Orbitals)  ***
 =======
  
 SFOs are linear combinations of (valence) Fragment Orbitals (FOs), such that the SFOs transform as the
 irreducible representations of the (molecular) symmetry group. Each SFO is therefore characterized by
 an irrep of the molecule and by a few (or only one) generating FOs.
 The SFOs constitute a symmetry-adapted basis for the Fock matrix. The MO eigenvector coefficients in
 this basis provide a direct interpretation of the MOs in terms of Frontier Orbital Theory.

 The SFOs are combined with auxiliary Core Functions (CFs) to ensure orthogonalization on the (frozen)
 Core Orbitals (COs). The Core-orthogonalized SFOs (CSFOs) constitute the true Fock basis.

 The FOs, and hence also the (C)SFOs are combinations of the elementary basis functions (BAS). The basis
 functions that participate in the description of the SFOs depend on the irrep. The indices of the
 involved functions are printed below for each irrep.
 (The complete list of primitive basis functions is printed in another section)

 Total nr. of (C)SFOs (summation over all irreps) :   316

 NOTE: a (C)SFO that is defined as a combination of more than one FO is usually NOT normalized.



                                       === A ===
 Nr. of SFOs :  316
 Cartesian basis functions that participate in this irrep (total number =   356) :
      1     2     3     4     5     6     7     8     9    10
     11    12    13    14    15    16    17    18    19    20
     21    22    23    24    25    26    27    28    29    30
     31    32    33    34    35    36    37    38    39    40
     41    42    43    44    45    46    47    48    49    50
     51    52    53    54    57    60    55    58    61    56
     59    62    63    64    65    66    67    68    69    70
     71    72    73    74    75    76    77    78    79    80
     81    82    83    84    87    90    85    88    91    86
     89    92    93    94    95    96    97    98    99   100
    101   102   103   104   105   106   107   108   109   110
    111   112   113   114   117   120   115   118   121   116
    119   122   123   124   125   126   127   128   129   130
    131   132   133   134   135   136   137   138   139   140
    141   142   143   144   147   150   145   148   151   146
    149   152   153   154   155   156   157   158   159   160
    161   162   163   164   165   166   167   168   169   170
    171   172   173   174   175   176   177   178   179   180
    181   184   187   190   193   196   199   202   205   208
    182   185   188   191   194   197   200   203   206   209
    183   186   189   192   195   198   201   204   207   210
    211   217   223   229   235   241   247   212   218   224
    230   236   242   248   213   219   225   231   237   243
    249   214   220   226   232   238   244   250   215   221
    227   233   239   245   251   216   222   228   234   240
    246   252   253   254   255   256   257   258   259   260
    261   262   263   264   265   266   267   268   269   270
    271   272   273   274   275   278   281   284   287   290
    293   296   299   302   276   279   282   285   288   291
    294   297   300   303   277   280   283   286   289   292
    295   298   301   304   305   311   317   323   329   335
    341   306   312   318   324   330   336   342   307   313
    319   325   331   337   343   308   314   320   326   332
    338   344   309   315   321   327   333   339   345   310
    316   322   328   334   340   346   347   348   349   350
    351   352   353   354   355   356

    SFO  (index         Fragment          Generating    Expansion in Fragment Orbitals
  indx  incl.CFs)   Occup   Orb.Energy   FragmentType  Coeff.   Orbital     on Fragment
 --------------------------------------------------------------------------------------
     1       1      1.000      -0.238 au  H             1.00      1 S               1
                        (      -6.484 eV)
     2       2       --         0.077 au  H             1.00      2 S               1
                        (       2.096 eV)
     3       3       --         1.521 au  H             1.00      3 S               1
                        (      41.380 eV)
     4       4       --         0.410 au  H             1.00      1 P:x             1
                        (      11.162 eV)
     5       5       --         0.410 au  H             1.00      1 P:y             1
                        (      11.162 eV)
     6       6       --         0.410 au  H             1.00      1 P:z             1
                        (      11.162 eV)
     7       7       --         2.567 au  H             1.00      1 D:z2            1
                        (      69.838 eV)
     8       8       --         2.567 au  H             1.00      1 D:x2-y2         1
                        (      69.838 eV)
     9       9       --         2.567 au  H             1.00      1 D:xy            1
                        (      69.838 eV)
    10      10       --         2.567 au  H             1.00      1 D:xz            1
                        (      69.838 eV)
    11      11       --         2.567 au  H             1.00      1 D:yz            1
                        (      69.838 eV)
    12      12      1.000      -0.238 au  H             1.00      1 S               2
                        (      -6.484 eV)
    13      13       --         0.077 au  H             1.00      2 S               2
                        (       2.096 eV)
    14      14       --         1.521 au  H             1.00      3 S               2
                        (      41.380 eV)
    15      15       --         0.410 au  H             1.00      1 P:x             2
                        (      11.162 eV)
    16      16       --         0.410 au  H             1.00      1 P:y             2
                        (      11.162 eV)
    17      17       --         0.410 au  H             1.00      1 P:z             2
                        (      11.162 eV)
    18      18       --         2.567 au  H             1.00      1 D:z2            2
                        (      69.838 eV)
    19      19       --         2.567 au  H             1.00      1 D:x2-y2         2
                        (      69.838 eV)
    20      20       --         2.567 au  H             1.00      1 D:xy            2
                        (      69.838 eV)
    21      21       --         2.567 au  H             1.00      1 D:xz            2
                        (      69.838 eV)
    22      22       --         2.567 au  H             1.00      1 D:yz            2
                        (      69.838 eV)
    23      23      1.000      -0.238 au  H             1.00      1 S               3
                        (      -6.484 eV)
    24      24       --         0.077 au  H             1.00      2 S               3
                        (       2.096 eV)
    25      25       --         1.521 au  H             1.00      3 S               3
                        (      41.380 eV)
    26      26       --         0.410 au  H             1.00      1 P:x             3
                        (      11.162 eV)
    27      27       --         0.410 au  H             1.00      1 P:y             3
                        (      11.162 eV)
    28      28       --         0.410 au  H             1.00      1 P:z             3
                        (      11.162 eV)
    29      29       --         2.567 au  H             1.00      1 D:z2            3
                        (      69.838 eV)
    30      30       --         2.567 au  H             1.00      1 D:x2-y2         3
                        (      69.838 eV)
    31      31       --         2.567 au  H             1.00      1 D:xy            3
                        (      69.838 eV)
    32      32       --         2.567 au  H             1.00      1 D:xz            3
                        (      69.838 eV)
    33      33       --         2.567 au  H             1.00      1 D:yz            3
                        (      69.838 eV)
    34      34      1.000      -0.238 au  H             1.00      1 S               4
                        (      -6.484 eV)
    35      35       --         0.077 au  H             1.00      2 S               4
                        (       2.096 eV)
    36      36       --         1.521 au  H             1.00      3 S               4
                        (      41.380 eV)
    37      37       --         0.410 au  H             1.00      1 P:x             4
                        (      11.162 eV)
    38      38       --         0.410 au  H             1.00      1 P:y             4
                        (      11.162 eV)
    39      39       --         0.410 au  H             1.00      1 P:z             4
                        (      11.162 eV)
    40      40       --         2.567 au  H             1.00      1 D:z2            4
                        (      69.838 eV)
    41      41       --         2.567 au  H             1.00      1 D:x2-y2         4
                        (      69.838 eV)
    42      42       --         2.567 au  H             1.00      1 D:xy            4
                        (      69.838 eV)
    43      43       --         2.567 au  H             1.00      1 D:xz            4
                        (      69.838 eV)
    44      44       --         2.567 au  H             1.00      1 D:yz            4
                        (      69.838 eV)
    45      45      2.000     -10.064 au  C             1.00      1 S               5
                        (    -273.865 eV)
    46      46      2.000      -0.507 au  C             1.00      2 S               5
                        (     -13.802 eV)
    47      47       --         0.384 au  C             1.00      3 S               5
                        (      10.456 eV)
    48      48       --         5.458 au  C             1.00      4 S               5
                        (     148.511 eV)
    49      49       --        49.970 au  C             1.00      5 S               5
                        (    1359.766 eV)
    50      50      0.667      -0.189 au  C             1.00      1 P:x             5
                        (      -5.135 eV)
    51      51       --         0.168 au  C             1.00      2 P:x             5
                        (       4.559 eV)
    52      52       --         2.056 au  C             1.00      3 P:x             5
                        (      55.959 eV)
    53      53      0.667      -0.189 au  C             1.00      1 P:y             5
                        (      -5.135 eV)
    54      54       --         0.168 au  C             1.00      2 P:y             5
                        (       4.559 eV)
    55      55       --         2.056 au  C             1.00      3 P:y             5
                        (      55.959 eV)
    56      56      0.667      -0.189 au  C             1.00      1 P:z             5
                        (      -5.135 eV)
    57      57       --         0.168 au  C             1.00      2 P:z             5
                        (       4.559 eV)
    58      58       --         2.056 au  C             1.00      3 P:z             5
                        (      55.959 eV)
    59      59       --         1.235 au  C             1.00      1 D:z2            5
                        (      33.605 eV)
    60      60       --         1.235 au  C             1.00      1 D:x2-y2         5
                        (      33.605 eV)
    61      61       --         1.235 au  C             1.00      1 D:xy            5
                        (      33.605 eV)
    62      62       --         1.235 au  C             1.00      1 D:xz            5
                        (      33.605 eV)
    63      63       --         1.235 au  C             1.00      1 D:yz            5
                        (      33.605 eV)
    64      64       --         4.005 au  C             1.00      1 F:z3            5
                        (     108.969 eV)
    65      65       --         4.005 au  C             1.00      1 F:z             5
                        (     108.969 eV)
    66      66       --         4.005 au  C             1.00      1 F:xyz           5
                        (     108.969 eV)
    67      67       --         4.005 au  C             1.00      1 F:z2x           5
                        (     108.969 eV)
    68      68       --         4.005 au  C             1.00      1 F:z2y           5
                        (     108.969 eV)
    69      69       --         4.005 au  C             1.00      1 F:x             5
                        (     108.969 eV)
    70      70       --         4.005 au  C             1.00      1 F:y             5
                        (     108.969 eV)
    71      71      2.000     -10.064 au  C             1.00      1 S               6
                        (    -273.865 eV)
    72      72      2.000      -0.507 au  C             1.00      2 S               6
                        (     -13.802 eV)
    73      73       --         0.384 au  C             1.00      3 S               6
                        (      10.456 eV)
    74      74       --         5.458 au  C             1.00      4 S               6
                        (     148.511 eV)
    75      75       --        49.970 au  C             1.00      5 S               6
                        (    1359.766 eV)
    76      76      0.667      -0.189 au  C             1.00      1 P:x             6
                        (      -5.135 eV)
    77      77       --         0.168 au  C             1.00      2 P:x             6
                        (       4.559 eV)
    78      78       --         2.056 au  C             1.00      3 P:x             6
                        (      55.959 eV)
    79      79      0.667      -0.189 au  C             1.00      1 P:y             6
                        (      -5.135 eV)
    80      80       --         0.168 au  C             1.00      2 P:y             6
                        (       4.559 eV)
    81      81       --         2.056 au  C             1.00      3 P:y             6
                        (      55.959 eV)
    82      82      0.667      -0.189 au  C             1.00      1 P:z             6
                        (      -5.135 eV)
    83      83       --         0.168 au  C             1.00      2 P:z             6
                        (       4.559 eV)
    84      84       --         2.056 au  C             1.00      3 P:z             6
                        (      55.959 eV)
    85      85       --         1.235 au  C             1.00      1 D:z2            6
                        (      33.605 eV)
    86      86       --         1.235 au  C             1.00      1 D:x2-y2         6
                        (      33.605 eV)
    87      87       --         1.235 au  C             1.00      1 D:xy            6
                        (      33.605 eV)
    88      88       --         1.235 au  C             1.00      1 D:xz            6
                        (      33.605 eV)
    89      89       --         1.235 au  C             1.00      1 D:yz            6
                        (      33.605 eV)
    90      90       --         4.005 au  C             1.00      1 F:z3            6
                        (     108.969 eV)
    91      91       --         4.005 au  C             1.00      1 F:z             6
                        (     108.969 eV)
    92      92       --         4.005 au  C             1.00      1 F:xyz           6
                        (     108.969 eV)
    93      93       --         4.005 au  C             1.00      1 F:z2x           6
                        (     108.969 eV)
    94      94       --         4.005 au  C             1.00      1 F:z2y           6
                        (     108.969 eV)
    95      95       --         4.005 au  C             1.00      1 F:x             6
                        (     108.969 eV)
    96      96       --         4.005 au  C             1.00      1 F:y             6
                        (     108.969 eV)
    97      97      2.000     -10.064 au  C             1.00      1 S               7
                        (    -273.865 eV)
    98      98      2.000      -0.507 au  C             1.00      2 S               7
                        (     -13.802 eV)
    99      99       --         0.384 au  C             1.00      3 S               7
                        (      10.456 eV)
   100     100       --         5.458 au  C             1.00      4 S               7
                        (     148.511 eV)
   101     101       --        49.970 au  C             1.00      5 S               7
                        (    1359.766 eV)
   102     102      0.667      -0.189 au  C             1.00      1 P:x             7
                        (      -5.135 eV)
   103     103       --         0.168 au  C             1.00      2 P:x             7
                        (       4.559 eV)
   104     104       --         2.056 au  C             1.00      3 P:x             7
                        (      55.959 eV)
   105     105      0.667      -0.189 au  C             1.00      1 P:y             7
                        (      -5.135 eV)
   106     106       --         0.168 au  C             1.00      2 P:y             7
                        (       4.559 eV)
   107     107       --         2.056 au  C             1.00      3 P:y             7
                        (      55.959 eV)
   108     108      0.667      -0.189 au  C             1.00      1 P:z             7
                        (      -5.135 eV)
   109     109       --         0.168 au  C             1.00      2 P:z             7
                        (       4.559 eV)
   110     110       --         2.056 au  C             1.00      3 P:z             7
                        (      55.959 eV)
   111     111       --         1.235 au  C             1.00      1 D:z2            7
                        (      33.605 eV)
   112     112       --         1.235 au  C             1.00      1 D:x2-y2         7
                        (      33.605 eV)
   113     113       --         1.235 au  C             1.00      1 D:xy            7
                        (      33.605 eV)
   114     114       --         1.235 au  C             1.00      1 D:xz            7
                        (      33.605 eV)
   115     115       --         1.235 au  C             1.00      1 D:yz            7
                        (      33.605 eV)
   116     116       --         4.005 au  C             1.00      1 F:z3            7
                        (     108.969 eV)
   117     117       --         4.005 au  C             1.00      1 F:z             7
                        (     108.969 eV)
   118     118       --         4.005 au  C             1.00      1 F:xyz           7
                        (     108.969 eV)
   119     119       --         4.005 au  C             1.00      1 F:z2x           7
                        (     108.969 eV)
   120     120       --         4.005 au  C             1.00      1 F:z2y           7
                        (     108.969 eV)
   121     121       --         4.005 au  C             1.00      1 F:x             7
                        (     108.969 eV)
   122     122       --         4.005 au  C             1.00      1 F:y             7
                        (     108.969 eV)
   123     123      2.000     -18.926 au  O             1.00      1 S               8
                        (    -515.001 eV)
   124     124      2.000      -0.887 au  O             1.00      2 S               8
                        (     -24.136 eV)
   125     125       --         0.804 au  O             1.00      3 S               8
                        (      21.890 eV)
   126     126       --        13.488 au  O             1.00      4 S               8
                        (     367.032 eV)
   127     127       --       121.767 au  O             1.00      5 S               8
                        (    3313.451 eV)
   128     128      1.333      -0.329 au  O             1.00      1 P:x             8
                        (      -8.949 eV)
   129     129       --         0.351 au  O             1.00      2 P:x             8
                        (       9.557 eV)
   130     130       --         3.863 au  O             1.00      3 P:x             8
                        (     105.120 eV)
   131     131      1.333      -0.329 au  O             1.00      1 P:y             8
                        (      -8.949 eV)
   132     132       --         0.351 au  O             1.00      2 P:y             8
                        (       9.557 eV)
   133     133       --         3.863 au  O             1.00      3 P:y             8
                        (     105.120 eV)
   134     134      1.333      -0.329 au  O             1.00      1 P:z             8
                        (      -8.949 eV)
   135     135       --         0.351 au  O             1.00      2 P:z             8
                        (       9.557 eV)
   136     136       --         3.863 au  O             1.00      3 P:z             8
                        (     105.120 eV)
   137     137       --         1.072 au  O             1.00      1 D:z2            8
                        (      29.175 eV)
   138     138       --         1.072 au  O             1.00      1 D:x2-y2         8
                        (      29.175 eV)
   139     139       --         1.072 au  O             1.00      1 D:xy            8
                        (      29.175 eV)
   140     140       --         1.072 au  O             1.00      1 D:xz            8
                        (      29.175 eV)
   141     141       --         1.072 au  O             1.00      1 D:yz            8
                        (      29.175 eV)
   142     142       --         3.353 au  O             1.00      1 F:z3            8
                        (      91.230 eV)
   143     143       --         3.353 au  O             1.00      1 F:z             8
                        (      91.230 eV)
   144     144       --         3.353 au  O             1.00      1 F:xyz           8
                        (      91.230 eV)
   145     145       --         3.353 au  O             1.00      1 F:z2x           8
                        (      91.230 eV)
   146     146       --         3.353 au  O             1.00      1 F:z2y           8
                        (      91.230 eV)
   147     147       --         3.353 au  O             1.00      1 F:x             8
                        (      91.230 eV)
   148     148       --         3.353 au  O             1.00      1 F:y             8
                        (      91.230 eV)
   149     149      2.000   -1210.257 au  I             1.00      1 S               9
                        (  -32932.760 eV)
   150     150      2.000    -187.151 au  I             1.00      2 S               9
                        (   -5092.625 eV)
   151     151      2.000     -37.777 au  I             1.00      3 S               9
                        (   -1027.966 eV)
   152     152      2.000      -6.636 au  I             1.00      4 S               9
                        (    -180.568 eV)
   153     153      2.000      -0.634 au  I             1.00      5 S               9
                        (     -17.254 eV)
   154     154       --         0.116 au  I             1.00      6 S               9
                        (       3.143 eV)
   155     155       --         1.329 au  I             1.00      7 S               9
                        (      36.160 eV)
   156     156       --         7.444 au  I             1.00      8 S               9
                        (     202.568 eV)
   157     157       --        43.856 au  I             1.00      9 S               9
                        (    1193.380 eV)
   158     158       --       776.168 au  I             1.00     10 S               9
                        (   21120.618 eV)
   159     159       --      5073.100 au  I             1.00     11 S               9
                        (  138046.085 eV)
   160     160       --     23471.040 au  I             1.00     12 S               9
                        (  638679.486 eV)
   161     161      2.000    -167.999 au  I             1.00      1 P:x             9
                        (   -4571.476 eV)
   162     162      2.000     -31.608 au  I             1.00      2 P:x             9
                        (    -860.101 eV)
   163     163      2.000      -4.700 au  I             1.00      3 P:x             9
                        (    -127.880 eV)
   164     164      1.667      -0.255 au  I             1.00      4 P:x             9
                        (      -6.941 eV)
   165     165       --         0.083 au  I             1.00      5 P:x             9
[...]
     5     O       0.071210   0.063755   0.026014
     6     H       0.126086   0.368234   0.124808
     7     H      -0.020974   0.513785   0.163861
     8     H      -0.180464   0.051215   0.019448
     9     I       0.097452  -0.041649  -0.015109
    10     I      -0.088595  -0.053971  -0.016713
 
 Mode:     8      Frequency (cm-1):       22.7722     Intensity (km/mol):        0.7829
 Index  Atom      ---- Displacements (x/y/z) ----
     1     H       0.022154  -0.161424   0.476729
     2     C      -0.002133   0.069728  -0.168672
     3     C       0.011640  -0.061401   0.198066
     4     C       0.013336  -0.078498   0.245589
     5     O       0.005066   0.006666   0.007061
     6     H      -0.013141   0.171541  -0.452246
     7     H      -0.002942   0.078373  -0.194363
     8     H       0.023667  -0.179875   0.528565
     9     I      -0.006504   0.026889  -0.088934
    10     I       0.003470  -0.020368   0.059193
 
 Mode:     9      Frequency (cm-1):       25.4606     Intensity (km/mol):        1.5074
 Index  Atom      ---- Displacements (x/y/z) ----
     1     H       0.282194   0.247640   0.018288
     2     C       0.185841   0.186195   0.087229
     3     C       0.232799   0.247427   0.057797
     4     C       0.218243   0.307077   0.074858
     5     O       0.182908   0.315159   0.106916
     6     H       0.126661   0.186763   0.128819
     7     H       0.199445   0.131680   0.070093
     8     H       0.255041   0.344107   0.054407
     9     I      -0.192317  -0.074118  -0.016368
    10     I       0.102184  -0.042873  -0.020057
 
 Mode:    10      Frequency (cm-1):       43.1298     Intensity (km/mol):        2.2436
 Index  Atom      ---- Displacements (x/y/z) ----
     1     H      -0.015457   0.212472  -0.612205
     2     C      -0.002406  -0.054671   0.119361
     3     C      -0.007425   0.064329  -0.193487
     4     C      -0.000869  -0.009138   0.042126
     5     O       0.002690  -0.117161   0.354973
     6     H       0.006733  -0.210880   0.560391
     7     H      -0.006814  -0.001474  -0.050129
     8     H       0.000726   0.042566  -0.088673
     9     I       0.000764   0.026427  -0.078874
    10     I       0.000026  -0.012049   0.038673
 
 Mode:    11      Frequency (cm-1):       55.6326     Intensity (km/mol):        5.6283
 Index  Atom      ---- Displacements (x/y/z) ----
     1     H       0.262513  -0.093351  -0.012170
     2     C      -0.156266  -0.217345  -0.075825
     3     C       0.042370  -0.034897  -0.004400
     4     C      -0.017645   0.251749   0.085170
     5     O      -0.240451   0.351991   0.114907
     6     H      -0.373113  -0.160416  -0.070056
     7     H      -0.103607  -0.427452  -0.142124
     8     H       0.169301   0.377959   0.126054
     9     I       0.060816  -0.017837  -0.005471
    10     I      -0.017714  -0.024073  -0.008699
 
 Mode:    12      Frequency (cm-1):      154.8868     Intensity (km/mol):        5.6276
 Index  Atom      ---- Displacements (x/y/z) ----
     1     H       0.013676  -0.136296   0.380676
     2     C      -0.001845   0.022684  -0.061889
     3     C       0.004703  -0.045122   0.126192
     4     C      -0.006076   0.059926  -0.167920
     5     O       0.005397  -0.051450   0.143258
     6     H      -0.014187   0.147840  -0.411319
     7     H       0.003874  -0.033998   0.097391
     8     H      -0.025922   0.251154  -0.702340
     9     I      -0.000317   0.001854  -0.005430
    10     I       0.000120  -0.000731   0.002220
 
 Mode:    13      Frequency (cm-1):      205.6061     Intensity (km/mol):        2.3822
 Index  Atom      ---- Displacements (x/y/z) ----
     1     H      -0.031315   0.002709  -0.000237
     2     C       0.069093   0.045261   0.013451
     3     C       0.011101  -0.007705  -0.003773
     4     C       0.015833  -0.007056  -0.001602
     5     O      -0.058383   0.020191   0.008456
     6     H       0.156162   0.025038   0.005451
     7     H       0.050326   0.121442   0.039629
     8     H       0.039760   0.005765   0.005462
     9     I      -0.058226   0.646947   0.210952
    10     I       0.054797  -0.653607  -0.213181
 
 Mode:    14      Frequency (cm-1):      271.7689     Intensity (km/mol):        5.3853
 Index  Atom      ---- Displacements (x/y/z) ----
     1     H      -0.121187  -0.096869  -0.030544
     2     C       0.290562   0.108708   0.028093
     3     C       0.024918  -0.135135  -0.049467
     4     C      -0.011581  -0.063042  -0.021881
     5     O      -0.283694   0.054505   0.029585
     6     H       0.676631   0.019556  -0.017791
     7     H       0.205071   0.457144   0.155825
     8     H       0.171258   0.064600   0.018065
     9     I       0.000105  -0.005348  -0.001750
    10     I      -0.000484   0.003409   0.001115
 
 Mode:    15      Frequency (cm-1):      527.5437     Intensity (km/mol):        8.2725
 Index  Atom      ---- Displacements (x/y/z) ----
     1     H       0.012856  -0.126072   0.351170
     2     C       0.001068  -0.010249   0.028572
     3     C      -0.005034   0.048373  -0.135213
     4     C      -0.000553   0.004918  -0.013610
     5     O       0.001187  -0.010914   0.030495
     6     H      -0.015210   0.151429  -0.422531
     7     H       0.024281  -0.238148   0.664759
     8     H       0.012809  -0.124594   0.348136
     9     I       0.000002  -0.000017   0.000076
    10     I      -0.000001   0.000002  -0.000026
 
 Mode:    16      Frequency (cm-1):      665.3572     Intensity (km/mol):       11.3257
 Index  Atom      ---- Displacements (x/y/z) ----
     1     H      -0.058070   0.237511   0.087550
     2     C      -0.006976   0.060076   0.021776
     3     C       0.159620   0.189050   0.061701
     4     C       0.120247  -0.156674  -0.060535
     5     O      -0.181503  -0.055409  -0.013153
     6     H      -0.616726   0.193676   0.091842
     7     H       0.133769  -0.509001  -0.186726
     8     H       0.168852  -0.123908  -0.050327
     9     I       0.000076  -0.000467  -0.000158
    10     I      -0.000049   0.000311   0.000104
 
 Mode:    17      Frequency (cm-1):      908.0866     Intensity (km/mol):       54.7974
 Index  Atom      ---- Displacements (x/y/z) ----
     1     H       0.411758   0.033745  -0.003023
     2     C       0.179795  -0.046925  -0.023429
     3     C       0.166463   0.076073   0.021076
     4     C      -0.350202   0.095863   0.047294
     5     O       0.001217  -0.068528  -0.024555
     6     H      -0.070058   0.000802   0.002953
     7     H       0.277390  -0.396873  -0.152316
     8     H      -0.594159  -0.072831  -0.004569
     9     I      -0.000004   0.000446   0.000150
    10     I       0.000026  -0.000174  -0.000058
 
 Mode:    18      Frequency (cm-1):      994.6864     Intensity (km/mol):        6.7417
 Index  Atom      ---- Displacements (x/y/z) ----
     1     H       0.010732  -0.105444   0.294057
     2     C       0.005373  -0.052438   0.146290
     3     C      -0.002087   0.020448  -0.056997
     4     C      -0.001913   0.018324  -0.051192
     5     O       0.000476  -0.004626   0.012920
     6     H      -0.014802   0.144652  -0.403384
     7     H      -0.027448   0.269796  -0.753124
     8     H       0.007527  -0.072792   0.203326
     9     I       0.000001   0.000001   0.000000
    10     I      -0.000000  -0.000002   0.000003
 
 Mode:    19      Frequency (cm-1):     1002.4963     Intensity (km/mol):       19.5645
 Index  Atom      ---- Displacements (x/y/z) ----
     1     H       0.021028  -0.206652   0.576217
     2     C      -0.002092   0.020723  -0.057761
     3     C      -0.000080   0.000848  -0.002429
     4     C      -0.003605   0.034652  -0.096774
     5     O       0.000930  -0.008793   0.024589
     6     H       0.023717  -0.233461   0.651283
     7     H      -0.002957   0.029127  -0.081163
     8     H       0.012188  -0.118184   0.330139
     9     I       0.000001  -0.000011   0.000036
    10     I      -0.000001   0.000005  -0.000018
 
 Mode:    20      Frequency (cm-1):     1013.9540     Intensity (km/mol):        9.4951
 Index  Atom      ---- Displacements (x/y/z) ----
     1     H       0.021727  -0.202089   0.563187
     2     C       0.000214  -0.004290   0.011682
     3     C      -0.004565   0.045950  -0.127640
     4     C       0.006339  -0.060632   0.169185
     5     O      -0.001493   0.013601  -0.038121
     6     H       0.007315  -0.063207   0.175228
     7     H      -0.002940   0.025105  -0.066938
     8     H      -0.025878   0.249399  -0.697285
     9     I      -0.000002   0.000008  -0.000032
    10     I       0.000001  -0.000001   0.000009
 
 Mode:    21      Frequency (cm-1):     1049.2537     Intensity (km/mol):        6.8182
 Index  Atom      ---- Displacements (x/y/z) ----
     1     H      -0.598547   0.009156   0.026168
     2     C       0.109380   0.055099   0.015760
     3     C      -0.094379  -0.109923  -0.036142
     4     C      -0.020824   0.025031   0.010101
     5     O       0.049781   0.034640   0.010484
     6     H      -0.457072   0.173834   0.079345
     7     H       0.242706  -0.490299  -0.184704
     8     H       0.087585   0.104374   0.032689
     9     I       0.000037   0.000125   0.000041
    10     I      -0.000001  -0.000062  -0.000020
 
 Mode:    22      Frequency (cm-1):     1287.5230     Intensity (km/mol):        1.1985
 Index  Atom      ---- Displacements (x/y/z) ----
     1     H      -0.778618   0.294665   0.134264
     2     C       0.006890  -0.113872  -0.041090
     3     C       0.032417   0.093871   0.032457
     4     C      -0.001743  -0.000699  -0.000171
     5     O       0.003718   0.018673   0.006541
     6     H       0.420332  -0.214572  -0.092309
     7     H       0.001208  -0.034926  -0.012544
     8     H      -0.147114  -0.088957  -0.026398
     9     I      -0.000015  -0.000073  -0.000024
    10     I      -0.000002   0.000025   0.000008
 
 Mode:    23      Frequency (cm-1):     1392.3817     Intensity (km/mol):        1.3906
 Index  Atom      ---- Displacements (x/y/z) ----
     1     H      -0.004098   0.050747   0.018367
     2     C      -0.016997  -0.004169  -0.000879
     3     C       0.001792   0.041094   0.014658
     4     C      -0.071242   0.021335   0.010264
     5     O       0.004321  -0.072845  -0.026220
     6     H       0.212551  -0.059137  -0.028926
     7     H       0.022302  -0.129642  -0.047271
     8     H       0.729319   0.590173   0.184248
     9     I       0.000005   0.000141   0.000047
    10     I       0.000000  -0.000060  -0.000019
 
 Mode:    24      Frequency (cm-1):     1406.4174     Intensity (km/mol):       36.9804
 Index  Atom      ---- Displacements (x/y/z) ----
     1     H       0.312995  -0.066561  -0.035337
     2     C      -0.005078   0.036619   0.013293
     3     C      -0.121810   0.037525   0.017935
     4     C       0.054905  -0.014126  -0.007102
     5     O      -0.005868   0.015657   0.005818
     6     H       0.561841  -0.104152  -0.057753
     7     H       0.186172  -0.648494  -0.239275
     8     H      -0.107174  -0.137260  -0.045107
     9     I      -0.000039  -0.000089  -0.000029
    10     I       0.000010   0.000036   0.000012
 
 Mode:    25      Frequency (cm-1):     1614.6620     Intensity (km/mol):       93.9486
 Index  Atom      ---- Displacements (x/y/z) ----
     1     H       0.328541   0.083144   0.017826
     2     C       0.272164  -0.230637  -0.092651
     3     C      -0.329191   0.204002   0.085209
     4     C       0.142831   0.132105   0.041985
     5     O      -0.061428  -0.107483  -0.036200
     6     H      -0.555740  -0.076745  -0.007166
     7     H       0.139530   0.420884   0.145772
     8     H       0.039624   0.033894   0.010710
     9     I       0.000030  -0.000143  -0.000050
    10     I      -0.000020   0.000054   0.000019
 
 Mode:    26      Frequency (cm-1):     1722.5567     Intensity (km/mol):      192.9640
 Index  Atom      ---- Displacements (x/y/z) ----
     1     H      -0.383500  -0.048356  -0.003195
     2     C      -0.111530   0.111833   0.044174
     3     C       0.129731  -0.144758  -0.056656
     4     C       0.244718   0.486601   0.165162
     5     O      -0.155240  -0.322584  -0.109736
     6     H       0.222749   0.065007   0.015206
     7     H      -0.052297  -0.229229  -0.080331
     8     H      -0.447242  -0.051975  -0.002087
     9     I      -0.000053  -0.000254  -0.000085
    10     I       0.000001   0.000114   0.000038
 
 Mode:    27      Frequency (cm-1):     2844.9145     Intensity (km/mol):      172.0940
 Index  Atom      ---- Displacements (x/y/z) ----
     1     H      -0.001183  -0.040414  -0.014432
     2     C       0.000178   0.000152   0.000048
     3     C      -0.000782   0.002501   0.000926
     4     C       0.052493  -0.059584  -0.023273
     5     O      -0.001618  -0.002028  -0.000664
     6     H      -0.001066   0.005000   0.001826
     7     H       0.002363  -0.001945  -0.000797
     8     H      -0.592704   0.745962   0.288960
     9     I       0.000005   0.000017   0.000006
    10     I      -0.000002  -0.000005  -0.000002
 
 Mode:    28      Frequency (cm-1):     3105.6684     Intensity (km/mol):        6.1648
 Index  Atom      ---- Displacements (x/y/z) ----
     1     H      -0.134080  -0.476360  -0.165930
     2     C      -0.043428   0.031274   0.012801
     3     C       0.014479   0.037355   0.012866
     4     C      -0.001507   0.002176   0.000835
     5     O       0.000011  -0.000568  -0.000204
     6     H      -0.142814  -0.502453  -0.174921
     7     H       0.626812   0.157892   0.033701
     8     H       0.011902  -0.013523  -0.005279
     9     I       0.000005   0.000002   0.000001
    10     I      -0.000000   0.000001   0.000000
 
 Mode:    29      Frequency (cm-1):     3117.7929     Intensity (km/mol):       15.4015
 Index  Atom      ---- Displacements (x/y/z) ----
     1     H      -0.214252  -0.763724  -0.266054
     2     C       0.023741  -0.031278  -0.012083
     3     C       0.013758   0.069561   0.024441
     4     C      -0.004226   0.001515   0.000698
     5     O       0.000152   0.000169   0.000055
     6     H       0.109937   0.390631   0.136031
     7     H      -0.318791  -0.079735  -0.016929
     8     H       0.025176  -0.023014  -0.009165
     9     I      -0.000006  -0.000008  -0.000002
    10     I       0.000001   0.000002   0.000001
 
 Mode:    30      Frequency (cm-1):     3204.1986     Intensity (km/mol):        1.2489
 Index  Atom      ---- Displacements (x/y/z) ----
     1     H      -0.023341  -0.089623  -0.031293
     2     C       0.069816   0.067190   0.021539
     3     C       0.002366   0.008466   0.002949
     4     C      -0.000311   0.000264   0.000107
     5     O      -0.000070  -0.000265  -0.000093
     6     H      -0.167123  -0.657695  -0.229692
     7     H      -0.665277  -0.153966  -0.030879
     8     H       0.000266   0.000814   0.000285
     9     I       0.000006   0.000005   0.000001
    10     I       0.000000   0.000001   0.000000

PES point character: Geometry corresponds to a local minimum on the PES.




 ============================
 Statistical Thermal Analysis  ***  ideal gas assumed  ***
 ============================
  
 Pressure:                  1.000000 atm.
 Temperature:             298.150000 K



 Moments of Inertia [amu*bohr^2] and principal axis
 ==================================================

         370.9609       6613.1426       6983.7382
 ------------------------------------------------
           0.1304         -0.9912          0.0224
           0.9417          0.1168         -0.3155
           0.3101          0.0622          0.9487


 The rotational contribution to the molecular entropy includes
 a term, dependent on the symmetry number sigma. The results 
 reported below were computed using sigma = 1, determined from
 the point group symmetry of the input geometry (NOSYM). 
 If this is not the correct symmetry, try symmetrizing the molecule before
 running the calculation (note: linear molecules should be aligned along one
 of the Cartesian axes).
 Contributions from frequencies below 20 1/cm are not included in vibrational sums.
 Their contributions, if any, are reported separately.


     Temp                                                        Transl      Rotat     Vibrat     Total
     ----                                                        ------      -----     ------     -----

     298.15   Entropy (cal/mol-K):                               43.089     31.216     30.034    104.339
              Nuclear Internal Energy (kcal/mol):                 0.889      0.889     41.626     43.403
              Constant Volume Heat Capacity (cal/mol-K):          2.981      2.981     17.852     23.813
          (c) Constant Volume Heat Capacity (cal/mol-K):          2.981      2.981     14.829     20.791

 Contributions from frequencies below 20 1/cm
 Frequency (1/cm):                                   15.498
 Entropy (cal/mol-K):                                 7.141
 Nuclear Internal Energy (kcal/mol):                  0.593
 Constant Volume Heat Capacity (cal/mol-K):           1.986

       Summary of energy terms
                                                   hartree              eV         kcal/mol           kJ/mol
                                      --------------------     -----------       ----------      -----------
      Energy from Engine:               -1.772251739588606        -48.2254         -1112.10         -4653.05
      Nuclear Internal Energy:           0.069167514855865          1.8821            43.40           181.60
  (c) Nuclear Internal Energy:           0.067681859111865          1.8417            42.47           177.70
      Internal Energy U:                -1.703084224732741        -46.3433         -1068.70         -4471.45
      pV/n = RT:                         0.000944186013486          0.0257             0.59             2.48
      Enthalpy H:                       -1.702140038719256        -46.3176         -1068.11         -4468.97
      -T*S:                             -0.049575041117417         -1.3490           -31.11          -130.16
  (c) -T*S:                             -0.048752062069797         -1.3266           -30.59          -128.00
      Gibbs free energy:                -1.751715079836673        -47.6666         -1099.22         -4599.13
 
 
 
  (c) The properties marked with this symbol have been corrected using 'low vibrational frequency free rotor
      interpolation corrections'. For those terms all positive frequencies are used (also ones below 20 1/cm),
      but the contribution to the partition function of small vibrational frequencies is modified as described
      in the following paper:
      S. Grimme, 'Supramolecular Binding Thermodynamics by Dispersion-Corrected Density Functional Theory'
      (Chem. Eur. J. 2012, 18, 9955-9964)
      Configuration: Dampener Frequency          :   100.000 1/cm
                     Dampener Alpha              :     4.000
                     Averaging Moment of Inertia : 1.000E-44 kg m2

--------------
Atomic charges
--------------
  Index   Atom    Charge
      1      H   -0.2094
      2      C    0.5234
      3      C    0.1615
      4      C    0.6685
      5      O   -0.5082
      6      H   -0.1630
      7      H   -0.2136
      8      H   -0.2532
      9      I    0.0366
     10      I   -0.0427


Dipole moment vector    (Debye):    -2.11389107   -2.69263649   -0.86363556
              magnitude (Debye):     3.53053722


Final PES point is a local minimum. Geometry optimization successful!


AMS application finished. Exiting.
NORMAL TERMINATION
     Total cpu time:    5669.08
  Total system time:      62.33
 Total elapsed time:   11522.77
 WARNING: total elapsed time is much higher than the (CPU+system) time. 
 Make sure the machine is not oversubscribed and has enough memory, SCM_TMPDIR p
 oints to a fast file system, and the network is fast enough.
