

 Parallel Execution: Process Information
 ==============================================================================
 Rank   Node Name                              NodeID   MyNodeRank  NodeMaster
    0   node115                                   0          0          0
    1   node115                                   0          1         -1
    2   node115                                   0          2         -1
    3   node115                                   0          3         -1
 ==============================================================================


May use up to 122928MB of RAM as shared memory on node 0

 *******************************************************************************
 *                                                                             *
 *  --------------------------------                                           *
 *   Amsterdam Modeling Suite (AMS)              2021.102                      *
 *  --------------------------------                                           *
 *                                               r95042 2021-06-07             *
 *                                                                             *
 *                                                                             *
 *                              =================                              *
 *                              |               |                              *
 *                              |     A M S     |                              *
 *                              |               |                              *
 *                              =================                              *
 *                                                                             *
 *                                                                             *
 *   Online information and documentation:  https://www.scm.com/support/       *
 *   E-mail:  support@scm.com   info@scm.com                                   *
 *                                                                             *
 *   Scientific publications using AMS results must be properly referenced     *
 *   See the User Manuals (or the web site) for recommended citations          *
 *   The terms and conditions of the End User License Agreement apply to       *
 *   the use of AMS, https://www.scm.com/license-terms/                        *
 *                                                                             *
 **********************  x86_64_linux_intel / intelmpi  ************************
 
 Licensed to: VU/FEW (+ SARA) / ALGEMEEN / Amsterdam / THE NETHERLANDS
 SCM User ID: u7668
  
 AMS 2021.102  RunTime: Jan23-2022 02:11:15  ShM Nodes: 1  Procs: 4

 AMS jobname: 28.achiral_catalyst.H_H_BF3.P1
 AMS jobid  : 1974841444

 Start   directory: /scistor/tc/yhk800/MasterProject/calculations/achiral_catalyst_H_H_BF3/28.achiral_catalyst.H_H_BF3.P1/
 Results directory: /scistor/tc/yhk800/MasterProject/calculations/achiral_catalyst_H_H_BF3/28.achiral_catalyst.H_H_BF3.P1/
 Scratch directory: /scratch/3979/amstmp_28.achiral_catalyst.H_H_BF3.P1_kid0.1974841444/


 Communication costs MPI_COMM_WORLD:      1.547 usec per message,   0.0055 usec per 8-byte item
 Communication costs for intra-node:      1.494 usec per message,   0.0053 usec per 8-byte item

 RNG seed: -1278606786 1708751208 -1479208089 1653311642 963022720 1816061175 -1137505670 1837861025



                      ************************************************************************
                      *  ADF 2021.102  RunTime: Jan23-2022 02:11:15  ShM Nodes: 1  Procs: 4  *
                      ************************************************************************
  
       ***************************
       *  GEOMETRY OPTIMIZATION  *
       ***************************

Optimization Method                    Quasi Newton
Optimization Coordinates               Delocalized Coordinates
Optimize lattice                       F
 
 ------------------------------------------------------
 Convergence criteria (Hartree,Angstrom)
 ------------------------------------------------------
 Maximum gradient               0.001000000000
 Maximum rms gradient           0.000666666667
 Maximum step allowed           0.010000000000
 Maximum rms step allowed       0.006666666667
 Maximum energy change allowe   0.000160000000
 Maximum stress energy allowe   0.000500000000
 
Initial model Hessian                  Automatic Hessian
 
------------------------------------
Quasi-Newton Optimizer Parameters
------------------------------------
Hessian Update Method                  BFGS
Maximum number of steps                  250
First GDIIS cycle                          0
Maximum GDIIS vectors                      0
Trust radius (bohr)                        0.200000
Trust radius varies                        T
Constraints converged at all steps         T
Use projector                              T
 
 Rigid motions settings for: old optimizer
 Atomic rotations (x,y,z):     T T T
 Atomic translations (x,y,z):  T T T
 Tolerance:                   1.000000000000000E-006
 
--------
Geometry
--------
Formula: C4H7BF3O
Atoms
  Index Symbol   x (angstrom)   y (angstrom)   z (angstrom)
      1      H     0.30883566    -1.71322737     0.34845077
      2      C    -0.85933175     0.07325638     0.95361639
      3      C     0.30566658    -0.62207952     0.35697327
      4      C     1.44363467     0.02246096    -0.23005168
      5      O     1.61592302     1.24992601    -0.30213575
      6      H    -0.69195270     1.15283717     0.94428296
      7      H    -1.40849480    -1.48746718     2.39475159
      8      C    -1.20706757    -0.41125312     2.37345100
      9      H    -0.38777363    -0.20492454     3.06899219
     10      H    -2.09949902     0.10683830     2.73788510
     11      H    -1.70568492    -0.10955427     0.32499363
     12      H     2.18584514    -0.63577321    -0.63098981
     13      B     2.05590296     4.51894516    -0.20247893
     14      F     1.87730594     4.50337973     1.09660701
     15      F     1.03031500     4.68139742    -1.00344214
     16      F     3.26008793     4.37205831    -0.70060166
 
Total System Charge             0.00000
 
 
----------------
ADF Engine Input
----------------
 
 NumericalQuality VeryGood
 SCF
 Converge 1.0e-6
 Iterations 99
 End
 SYMMETRY NOSYM
 SpinPolarization 1.0
 Unrestricted Yes
 XC
 GGA OLYP
 End
 basis
 core None
 type TZ2P
 End
 

 Title: *** (NO TITLE) ***

 Using automatic Hessian for delocalized coordinates.
 *** GOStep1 ***

 Energy gradients wrt nuclear displacements
 ==========================================

     Atom      Cartesian (a.u./angstrom)
                 X         Y         Z
 ----------------------------------------
     1 H     0.000221  0.000339  0.000057
     2 C    -0.028772 -0.006264 -0.021364
     3 C    -0.000186 -0.001583 -0.001089
     4 C     0.028810 -0.026655 -0.015698
     5 O     0.003797 -0.003545 -0.002195
     6 H    -0.002030 -0.001519 -0.000131
     7 H     0.000077  0.000025  0.000012
     8 C    -0.000818 -0.000203 -0.001504
     9 H     0.000227  0.000222 -0.000133
    10 H     0.000155  0.000063 -0.000127
    11 H     0.032655  0.007060  0.023553
    12 H    -0.034185  0.031056  0.018465
    13 B    -0.000405  0.012500  0.002122
    14 F     0.003551 -0.003285 -0.026860
    15 F     0.020452 -0.006984  0.015645
    16 F    -0.023548 -0.001228  0.009247
 ----------------------------------------
 Mulliken charges used for AMS results%charges...
 
----------------------------------------------------------------------
Geometry Convergence after Step   1       (Hartree/Angstrom,Angstrom)
----------------------------------------------------------------------
current energy                               -3.21705635 Hartree
energy change                      -3.21705635     0.00016000    F
constrained gradient max            0.03418533     0.00100000    F
constrained gradient rms            0.01411249     0.00066667    F
gradient max                        0.03418533
gradient rms                        0.01411249
cart. step max                      0.03958419     0.01000000    F
cart. step rms                      0.01762818     0.00666667    F
 
 
--------
Geometry
--------
Formula: C4H7BF3O
Atoms
  Index Symbol   x (angstrom)   y (angstrom)   z (angstrom)
      1      H     0.29908794    -1.72121470     0.34512953
      2      C    -0.84922733     0.08267750     0.94515762
      3      C     0.30768448    -0.62989079     0.35133522
      4      C     1.45157820     0.00532634    -0.23519346
      5      O     1.61620266     1.23508167    -0.30104214
      6      H    -0.66111354     1.15979841     0.92957395
      7      H    -1.41317957    -1.45983830     2.40067337
      8      C    -1.19544694    -0.38697145     2.37129219
      9      H    -0.36951197    -0.18918203     3.06132372
     10      H    -2.07809863     0.14642249     2.73769432
     11      H    -1.71899014    -0.09464093     0.30831109
     12      H     2.21233204    -0.67028104    -0.64626844
     13      B     2.02959066     4.49305641    -0.18523619
     14      F     1.84648653     4.48502298     1.12590788
     15      F     0.99727209     4.66858640    -0.99474588
     16      F     3.24904603     4.37286727    -0.68360886
 
Total System Charge             0.00000
 
 *** GOStep2 ***

 Energy gradients wrt nuclear displacements
 ==========================================

     Atom      Cartesian (a.u./angstrom)
                 X         Y         Z
 ----------------------------------------
     1 H     0.000305  0.000119 -0.000112
     2 C    -0.010298 -0.002660 -0.007335
     3 C    -0.000230  0.001454  0.000353
     4 C     0.010628 -0.013565 -0.005715
     5 O     0.000165  0.001659 -0.000308
     6 H    -0.000131 -0.000225  0.000383
     7 H     0.000047  0.000023 -0.000071
     8 C     0.000245  0.000298 -0.000227
     9 H    -0.000047 -0.000045  0.000168
    10 H     0.000026  0.000010 -0.000016
    11 H     0.009783  0.002093  0.007088
    12 H    -0.010523  0.009573  0.005603
    13 B    -0.000548  0.004099  0.001012
    14 F     0.000552 -0.000660 -0.003177
    15 F     0.002391 -0.001201  0.001590
    16 F    -0.002364 -0.000972  0.000764
 ----------------------------------------
 Mulliken charges used for AMS results%charges...

 dE(predicted):    -0.17725E-02, dE(actual):    -0.21829E-02, Trust radius:    0.200000, all in a.u.
 
----------------------------------------------------------------------
Geometry Convergence after Step   2       (Hartree/Angstrom,Angstrom)
----------------------------------------------------------------------
current energy                               -3.21923924 Hartree
energy change                      -0.00218290     0.00016000    F
constrained gradient max            0.01356776     0.00100000    F
constrained gradient rms            0.00440687     0.00066667    F
gradient max                        0.01356776
gradient rms                        0.00440687
cart. step max                      0.01272728     0.01000000    F
cart. step rms                      0.00529996     0.00666667    T
 
 
--------
Geometry
--------
Formula: C4H7BF3O
Atoms
  Index Symbol   x (angstrom)   y (angstrom)   z (angstrom)
      1      H     0.29546217    -1.72433166     0.34316982
      2      C    -0.84667228     0.08461975     0.94317894
      3      C     0.30641654    -0.63292849     0.34799647
      4      C     1.45021429     0.00359065    -0.23754931
      5      O     1.61487214     1.23164723    -0.30112518
      6      H    -0.65516214     1.16126056     0.92223354
      7      H    -1.41168080    -1.45229151     2.40511559
      8      C    -1.19073713    -0.38017174     2.37166734
      9      H    -0.36187088    -0.18268715     3.05818469
     10      H    -2.07063338     0.15701989     2.73919095
     11      H    -1.72622056    -0.09417424     0.30400206
     12      H     2.22082497    -0.67914771    -0.64988104
     13      B     2.02339948     4.48376503    -0.18030149
     14      F     1.83375926     4.48077208     1.13218124
     15      F     0.99382701     4.66627162    -0.99507467
     16      F     3.24791382     4.37360592    -0.67268503
 
Total System Charge             0.00000
 
 *** GOStep3 ***

 Energy gradients wrt nuclear displacements
 ==========================================

     Atom      Cartesian (a.u./angstrom)
                 X         Y         Z
 ----------------------------------------
     1 H     0.000075 -0.000216  0.000011
     2 C    -0.002030 -0.000500 -0.001447
     3 C     0.000512  0.001134  0.000145
     4 C     0.001524 -0.003227 -0.001549
     5 O    -0.000263 -0.000792  0.000147
     6 H     0.000286  0.000144  0.000200
     7 H    -0.000018 -0.000049  0.000026
     8 C     0.000320  0.000054  0.000123
     9 H    -0.000071 -0.000047  0.000043
    10 H    -0.000033 -0.000000 -0.000004
    11 H     0.001266  0.000272  0.000966
    12 H    -0.001600  0.001862  0.001154
    13 B    -0.000313  0.000036  0.000290
    14 F     0.000066  0.000651  0.000617
    15 F    -0.000385  0.000621 -0.000432
    16 F     0.000664  0.000058 -0.000289
 ----------------------------------------
 Mulliken charges used for AMS results%charges...

 dE(predicted):    -0.17672E-03, dE(actual):    -0.19865E-03, Trust radius:    0.200000, all in a.u.
 
----------------------------------------------------------------------
Geometry Convergence after Step   3       (Hartree/Angstrom,Angstrom)
----------------------------------------------------------------------
current energy                               -3.21943789 Hartree
energy change                      -0.00019865     0.00016000    F
constrained gradient max            0.00322984     0.00100000    F
constrained gradient rms            0.00087108     0.00066667    F
gradient max                        0.00322984
gradient rms                        0.00087108
cart. step max                      0.00508621     0.01000000    T
cart. step rms                      0.00199659     0.00666667    T
 
 
--------
Geometry
--------
Formula: C4H7BF3O
Atoms
  Index Symbol   x (angstrom)   y (angstrom)   z (angstrom)
      1      H     0.29424133    -1.72381234     0.34049774
      2      C    -0.84503126     0.08536733     0.94522229
      3      C     0.30731297    -0.63258886     0.34930015
      4      C     1.45291693     0.00492714    -0.23246310
      5      O     1.61769192     1.23249170    -0.29795308
      6      H    -0.65318322     1.16186783     0.92558846
      7      H    -1.41458022    -1.45356736     2.40311124
      8      C    -1.19237331    -0.38166554     2.37210526
      9      H    -0.36423089    -0.18636330     3.06014914
     10      H    -2.07216830     0.15594384     2.73920844
     11      H    -1.72524791    -0.09181299     0.30359660
     12      H     2.21992596    -0.67995219    -0.65465692
     13      B     2.02343324     4.48432194    -0.18224709
     14      F     1.83469528     4.48217460     1.13037766
     15      F     0.99279251     4.66425528    -0.99613606
     16      F     3.24751748     4.37523314    -0.67539679
 
Total System Charge             0.00000
 
 *** GOStep4 ***

 Energy gradients wrt nuclear displacements
 ==========================================

     Atom      Cartesian (a.u./angstrom)
                 X         Y         Z
 ----------------------------------------
     1 H    -0.000019 -0.000136  0.000048
     2 C    -0.000179  0.000007 -0.000144
     3 C     0.000038  0.000343 -0.000638
     4 C     0.000887 -0.000773  0.001831
     5 O    -0.000462 -0.001001 -0.000772
     6 H     0.000149  0.000070  0.000070
     7 H    -0.000017 -0.000032  0.000014
     8 C     0.000115 -0.000006  0.000101
     9 H    -0.000030 -0.000009 -0.000014
    10 H    -0.000027 -0.000007  0.000014
    11 H    -0.000150 -0.000037 -0.000066
    12 H    -0.000340  0.000231 -0.000620
    13 B    -0.000068  0.000147  0.000055
    14 F     0.000022  0.000603  0.000576
    15 F    -0.000318  0.000558 -0.000294
    16 F     0.000399  0.000042 -0.000160
 ----------------------------------------
 Mulliken charges used for AMS results%charges...

 dE(predicted):    -0.91322E-05, dE(actual):    -0.51631E-05, Trust radius:    0.200000, all in a.u.
 
----------------------------------------------------------------------
Geometry Convergence after Step   4       (Hartree/Angstrom,Angstrom)
----------------------------------------------------------------------
current energy                               -3.21944305 Hartree
energy change                      -0.00000516     0.00016000    T
constrained gradient max            0.00183346     0.00100000    F
constrained gradient rms            0.00043777     0.00066667    T
gradient max                        0.00183346
gradient rms                        0.00043777
cart. step max                      0.01084091     0.01000000    F
cart. step rms                      0.00394360     0.00666667    T
 
 
--------
Geometry
--------
Formula: C4H7BF3O
Atoms
  Index Symbol   x (angstrom)   y (angstrom)   z (angstrom)
      1      H     0.29469415    -1.72465419     0.34076367
      2      C    -0.84579625     0.08428588     0.94366589
      3      C     0.30603604    -0.63355452     0.34688584
      4      C     1.44888683     0.00511210    -0.23990236
      5      O     1.61634012     1.23211121    -0.30221673
      6      H    -0.65773997     1.16120440     0.91803801
      7      H    -1.40859249    -1.44976508     2.40904583
      8      C    -1.18915027    -0.37748559     2.37310694
      9      H    -0.35981294    -0.17719153     3.05831753
     10      H    -2.06937183     0.15960069     2.73987860
     11      H    -1.72807556    -0.09831167     0.30440665
     12      H     2.22082386    -0.68195923    -0.65452122
     13      B     2.02285080     4.48265808    -0.17828840
     14      F     1.82641944     4.47667709     1.13306633
     15      F     0.99675277     4.66355631    -0.99738675
     16      F     3.24944781     4.37453628    -0.66455589
 
Total System Charge             0.00000
 
 *** GOStep5 ***

 Energy gradients wrt nuclear displacements
 ==========================================

     Atom      Cartesian (a.u./angstrom)
                 X         Y         Z
 ----------------------------------------
     1 H    -0.000107 -0.000006  0.000021
     2 C     0.001204  0.000410  0.000802
     3 C     0.000326 -0.000463  0.000177
     4 C    -0.001864  0.001380 -0.000124
     5 O     0.000204 -0.001275  0.000057
     6 H    -0.000037 -0.000026 -0.000079
     7 H    -0.000012 -0.000006  0.000002
     8 C    -0.000089 -0.000102  0.000060
     9 H     0.000016  0.000019 -0.000056
    10 H    -0.000018 -0.000007  0.000014
    11 H    -0.001057 -0.000203 -0.000738
    12 H     0.001390 -0.001059 -0.000312
    13 B     0.000202  0.000482 -0.000075
    14 F     0.000014  0.000493  0.000279
    15 F    -0.000109  0.000392 -0.000056
    16 F    -0.000063 -0.000030  0.000028
 ----------------------------------------
 Mulliken charges used for AMS results%charges...

 dE(predicted):    -0.85148E-05, dE(actual):    -0.39020E-05, Trust radius:    0.200000, all in a.u.
 
----------------------------------------------------------------------
Geometry Convergence after Step   5       (Hartree/Angstrom,Angstrom)
----------------------------------------------------------------------
current energy                               -3.21944695 Hartree
energy change                      -0.00000390     0.00016000    T
constrained gradient max            0.00186441     0.00100000    F
constrained gradient rms            0.00056562     0.00066667    T
gradient max                        0.00186441
gradient rms                        0.00056562
cart. step max                      0.00283232     0.01000000    T
cart. step rms                      0.00097823     0.00666667    T
 
 
--------
Geometry
--------
Formula: C4H7BF3O
Atoms
  Index Symbol   x (angstrom)   y (angstrom)   z (angstrom)
      1      H     0.29404050    -1.72403742     0.34006932
      2      C    -0.84528253     0.08527184     0.94393884
      3      C     0.30619041    -0.63293443     0.34692868
      4      C     1.45023362     0.00449530    -0.23865692
      5      O     1.61755821     1.23153923    -0.30149071
      6      H    -0.65593555     1.16202758     0.91997342
      7      H    -1.40970199    -1.44982937     2.40751224
      8      C    -1.18918696    -0.37772630     2.37282825
      9      H    -0.35987427    -0.17908702     3.05855857
     10      H    -2.06896370     0.15980619     2.73999677
     11      H    -1.72676982    -0.09547934     0.30471259
     12      H     2.21978451    -0.68206091    -0.65507470
     13      B     2.02185670     4.48204632    -0.17869814
     14      F     1.82470083     4.47620183     1.13246926
     15      F     0.99621171     4.66179065    -0.99853978
     16      F     3.24885084     4.37479609    -0.66422375
 
Total System Charge             0.00000
 
 *** GOStep6 ***

 Energy gradients wrt nuclear displacements
 ==========================================

     Atom      Cartesian (a.u./angstrom)
                 X         Y         Z
 ----------------------------------------
     1 H    -0.000021  0.000020  0.000015
     2 C     0.000291  0.000110  0.000210
     3 C     0.000124 -0.000098 -0.000026
     4 C    -0.000393  0.000385 -0.000015
     5 O    -0.000106 -0.001409 -0.000085
     6 H    -0.000019 -0.000016 -0.000021
     7 H    -0.000001 -0.000001 -0.000007
     8 C    -0.000035 -0.000035  0.000023
     9 H     0.000007  0.000004 -0.000016
    10 H    -0.000004 -0.000007  0.000004
    11 H    -0.000239 -0.000037 -0.000177
    12 H     0.000353 -0.000248 -0.000077
    13 B     0.000089  0.000528  0.000013
    14 F     0.000048  0.000478  0.000170
    15 F    -0.000030  0.000367 -0.000028
    16 F    -0.000064 -0.000040  0.000018
 ----------------------------------------
 Mulliken charges used for AMS results%charges...

 dE(predicted):    -0.32324E-05, dE(actual):    -0.39820E-05, Trust radius:    0.200000, all in a.u.
 
----------------------------------------------------------------------
Geometry Convergence after Step   6       (Hartree/Angstrom,Angstrom)
----------------------------------------------------------------------
current energy                               -3.21945093 Hartree
energy change                      -0.00000398     0.00016000    T
constrained gradient max            0.00141099     0.00100000    F
constrained gradient rms            0.00026803     0.00066667    T
gradient max                        0.00141099
gradient rms                        0.00026803
cart. step max                      0.00811722     0.01000000    T
cart. step rms                      0.00216763     0.00666667    T
 
 
--------
Geometry
--------
Formula: C4H7BF3O
Atoms
  Index Symbol   x (angstrom)   y (angstrom)   z (angstrom)
      1      H     0.29238033    -1.72347452     0.33821597
      2      C    -0.84430600     0.08681949     0.94397942
      3      C     0.30598195    -0.63240917     0.34605843
      4      C     1.45118531     0.00355271    -0.23903708
      5      O     1.61979495     1.23043832    -0.30163503
      6      H    -0.65380288     1.16337902     0.92041479
      7      H    -1.40950210    -1.44806914     2.40735542
      8      C    -1.18775744    -0.37621832     2.37290348
      9      H    -0.35781552    -0.17883786     3.05825639
     10      H    -2.06665223     0.16224563     2.74078081
     11      H    -1.72596331    -0.09265048     0.30544760
     12      H     2.21840551    -0.68365011    -0.65713319
     13      B     2.01941439     4.47978601    -0.17776907
     14      F     1.81658361     4.47280011     1.13247191
     15      F     0.99702868     4.65766344    -1.00200220
     16      F     3.24873724     4.37544509    -0.65800371
 
Total System Charge             0.00000
 
 *** GOStep7 ***

 Energy gradients wrt nuclear displacements
 ==========================================

     Atom      Cartesian (a.u./angstrom)
                 X         Y         Z
 ----------------------------------------
     1 H     0.000030  0.000058  0.000003
     2 C    -0.000103 -0.000064 -0.000020
     3 C    -0.000124 -0.000011 -0.000091
     4 C     0.000444  0.000018  0.000049
     5 O    -0.000276 -0.001434 -0.000165
     6 H    -0.000041 -0.000021 -0.000007
     7 H     0.000011  0.000008 -0.000015
     8 C    -0.000031  0.000014 -0.000043
     9 H     0.000009 -0.000004  0.000012
    10 H     0.000014 -0.000007 -0.000006
    11 H     0.000183  0.000050  0.000095
    12 H    -0.000166  0.000074  0.000017
    13 B     0.000047  0.000571  0.000052
    14 F     0.000064  0.000456  0.000080
    15 F     0.000034  0.000337  0.000010
    16 F    -0.000095 -0.000045  0.000029
 ----------------------------------------
 Mulliken charges used for AMS results%charges...

 dE(predicted):    -0.21344E-05, dE(actual):    -0.30527E-05, Trust radius:    0.200000, all in a.u.
 
----------------------------------------------------------------------
Geometry Convergence after Step   7       (Hartree/Angstrom,Angstrom)
----------------------------------------------------------------------
current energy                               -3.21945399 Hartree
energy change                      -0.00000305     0.00016000    T
constrained gradient max            0.00143566     0.00100000    F
constrained gradient rms            0.00025667     0.00066667    T
gradient max                        0.00143566
gradient rms                        0.00025667
cart. step max                      0.04449614     0.01000000    F
cart. step rms                      0.01182284     0.00666667    F
 
 
--------
Geometry
--------
Formula: C4H7BF3O
Atoms
  Index Symbol   x (angstrom)   y (angstrom)   z (angstrom)
      1      H     0.28358271    -1.72108641     0.32876682
      2      C    -0.83935938     0.09462139     0.94361961
      3      C     0.30455941    -0.63022355     0.34084366
      4      C     1.45442343    -0.00113740    -0.24343910
      5      O     1.63089142     1.22469058    -0.30356243
      6      H    -0.64344200     1.17019890     0.92020717
      7      H    -1.40692759    -1.43764166     2.40848131
      8      C    -1.17930824    -0.36705696     2.37361282
      9      H    -0.34554327    -0.17485003     3.05585668
     10      H    -2.05355262     0.17628241     2.74525973
     11      H    -1.72345752    -0.07979976     0.30909441
     12      H     2.21269231    -0.69246210    -0.66740242
     13      B     2.00641387     4.46715087    -0.17173180
     14      F     1.77208747     4.45320367     1.13304312
     15      F     1.00249963     4.63622189    -1.01993093
     16      F     3.24815287     4.37870841    -0.62241472
 
Total System Charge             0.00000
 
 *** GOStep8 ***

 Energy gradients wrt nuclear displacements
 ==========================================

     Atom      Cartesian (a.u./angstrom)
                 X         Y         Z
 ----------------------------------------
     1 H     0.000177  0.000168 -0.000050
     2 C    -0.000998 -0.000546 -0.000489
     3 C    -0.000933  0.000133 -0.000139
     4 C     0.002638 -0.000630  0.000072
     5 O    -0.000726 -0.001567 -0.000312
     6 H    -0.000120 -0.000033  0.000010
     7 H     0.000049  0.000036 -0.000031
     8 C    -0.000040  0.000165 -0.000291
     9 H     0.000023 -0.000029  0.000092
    10 H     0.000072 -0.000008 -0.000033
    11 H     0.001234  0.000254  0.000748
    12 H    -0.001434  0.000789  0.000277
    13 B    -0.000091  0.000677  0.000138
    14 F     0.000062  0.000385 -0.000165
    15 F     0.000213  0.000248  0.000154
    16 F    -0.000127 -0.000043  0.000018
 ----------------------------------------
 Mulliken charges used for AMS results%charges...

 dE(predicted):    -0.91147E-05, dE(actual):    -0.11344E-04, Trust radius:    0.200000, all in a.u.
 
----------------------------------------------------------------------
Geometry Convergence after Step   8       (Hartree/Angstrom,Angstrom)
----------------------------------------------------------------------
current energy                               -3.21946533 Hartree
energy change                      -0.00001134     0.00016000    T
constrained gradient max            0.00263745     0.00100000    F
constrained gradient rms            0.00062602     0.00066667    T
gradient max                        0.00263745
gradient rms                        0.00062602
cart. step max                      0.08734553     0.01000000    F
cart. step rms                      0.02364351     0.00666667    F
 
 
--------
Geometry
--------
Formula: C4H7BF3O
Atoms
  Index Symbol   x (angstrom)   y (angstrom)   z (angstrom)
      1      H     0.26594735    -1.71655479     0.31068413
      2      C    -0.82945870     0.11021233     0.94211137
      3      C     0.30170984    -0.62621981     0.33010124
      4      C     1.45957777    -0.01032740    -0.25369363
      5      O     1.65314430     1.21309884    -0.30712569
      6      H    -0.62285215     1.18373943     0.91758377
      7      H    -1.40086857    -1.41567515     2.41188294
      8      C    -1.16191849    -0.34765365     2.37490097
      9      H    -0.32035515    -0.16467607     3.05013974
     10      H    -2.02686196     0.20535559     2.75385702
     11      H    -1.71968439    -0.05525483     0.31558317
     12      H     2.20316625    -0.71001529    -0.68686053
     13      B     1.97996826     4.44076807    -0.15880471
     14      F     1.68474194     4.41136099     1.13307623
     15      F     1.01388167     4.59340588    -1.05243386
     16      F     3.24357455     4.38525608    -0.55069822
 
Total System Charge             0.00000
 
 *** GOStep9 ***

 Energy gradients wrt nuclear displacements
 ==========================================

     Atom      Cartesian (a.u./angstrom)
                 X         Y         Z
 ----------------------------------------
     1 H     0.000338  0.000255 -0.000118
     2 C    -0.001726 -0.001028 -0.000797
     3 C    -0.001847  0.000216 -0.000032
     4 C     0.004688 -0.001033 -0.000073
     5 O    -0.001151 -0.001721 -0.000372
     6 H    -0.000203 -0.000028  0.000007
     7 H     0.000086  0.000056 -0.000036
     8 C    -0.000051  0.000340 -0.000613
     9 H     0.000042 -0.000062  0.000175
    10 H     0.000134 -0.000012 -0.000057
    11 H     0.002147  0.000404  0.001282
    12 H    -0.002522  0.001361  0.000538
    13 B    -0.000481  0.000717  0.000257
    14 F     0.000070  0.000307 -0.000539
    15 F     0.000463  0.000169  0.000432
    16 F     0.000012  0.000059 -0.000052
 ----------------------------------------
 Mulliken charges used for AMS results%charges...

 dE(predicted):    -0.14318E-04, dE(actual):    -0.17556E-04, Trust radius:    0.400000, all in a.u.
 
----------------------------------------------------------------------
Geometry Convergence after Step   9       (Hartree/Angstrom,Angstrom)
----------------------------------------------------------------------
current energy                               -3.21948289 Hartree
energy change                      -0.00001756     0.00016000    T
constrained gradient max            0.00468503     0.00100000    F
constrained gradient rms            0.00105042     0.00066667    F
gradient max                        0.00468503
gradient rms                        0.00105042
cart. step max                      0.17909835     0.01000000    F
cart. step rms                      0.04965708     0.00666667    F
 
 
--------
Geometry
--------
Formula: C4H7BF3O
Atoms
  Index Symbol   x (angstrom)   y (angstrom)   z (angstrom)
      1      H     0.22609928    -1.70399069     0.27084132
      2      C    -0.80739460     0.14533348     0.93987012
      3      C     0.29546789    -0.61572582     0.30746011
      4      C     1.47005782    -0.02802276    -0.27340777
      5      O     1.70333572     1.18897182    -0.30796677
      6      H    -0.57580904     1.21371014     0.91603087
      7      H    -1.39027609    -1.37085662     2.41529583
      8      C    -1.12589215    -0.30890712     2.37699094
      9      H    -0.26851312    -0.14874527     3.03801793
     10      H    -1.97018684     0.26415360     2.77230449
     11      H    -1.71126337     0.00230176     0.32874137
     12      H     2.18580768    -0.74466875    -0.72372103
     13      B     1.92320752     4.38329219    -0.13436310
     14      F     1.50564360     4.31914846     1.12146314
     15      F     1.04250235     4.50159813    -1.11598391
     16      F     3.22092586     4.39922768    -0.40126958
 
Total System Charge             0.00000
 
 *** GOStep10 ***

 Energy gradients wrt nuclear displacements
 ==========================================

     Atom      Cartesian (a.u./angstrom)
                 X         Y         Z
 ----------------------------------------
     1 H     0.000490  0.000277 -0.000198
     2 C    -0.002114 -0.001400 -0.000837
     3 C    -0.002746  0.000266  0.000255
     4 C     0.006094 -0.001100 -0.000401
     5 O    -0.001497 -0.001761 -0.000269
     6 H    -0.000252  0.000017 -0.000020
     7 H     0.000116  0.000056 -0.000025
     8 C    -0.000037  0.000518 -0.000978
     9 H     0.000067 -0.000097  0.000241
    10 H     0.000187 -0.000020 -0.000066
    11 H     0.002704  0.000401  0.001532
    12 H    -0.003156  0.001688  0.000756
    13 B    -0.002042  0.000795  0.000440
    14 F     0.000198  0.000135 -0.001534
    15 F     0.001013 -0.000003  0.001422
    16 F     0.000976  0.000228 -0.000319
 ----------------------------------------
 Mulliken charges used for AMS results%charges...

 dE(predicted):    -0.28741E-04, dE(actual):    -0.32381E-04, Trust radius:    0.800000, all in a.u.
 
----------------------------------------------------------------------
Geometry Convergence after Step  10       (Hartree/Angstrom,Angstrom)
----------------------------------------------------------------------
current energy                               -3.21951527 Hartree
energy change                      -0.00003238     0.00016000    T
constrained gradient max            0.00609367     0.00100000    F
constrained gradient rms            0.00140879     0.00066667    F
gradient max                        0.00609367
gradient rms                        0.00140879
cart. step max                      0.21559895     0.01000000    F
cart. step rms                      0.06240869     0.00666667    F
 
 
--------
Geometry
--------
Formula: C4H7BF3O
Atoms
  Index Symbol   x (angstrom)   y (angstrom)   z (angstrom)
      1      H     0.16924299    -1.67886396     0.21305109
      2      C    -0.77637729     0.19451576     0.94257174
      3      C     0.28697029    -0.59616248     0.27979526
      4      C     1.48494504    -0.04567420    -0.29022375
      5      O     1.77351573     1.15984595    -0.29146188
      6      H    -0.50654851     1.25399718     0.93142160
      7      H    -1.38671841    -1.32192839     2.40726568
      8      C    -1.08424603    -0.26987605     2.37916037
      9      H    -0.20919728    -0.15095953     3.02553223
     10      H    -1.89927352     0.32775977     2.79881591
     11      H    -1.69614223     0.09228692     0.34709254
     12      H     2.16651248    -0.78142723    -0.76274612
     13      B     1.85140843     4.30978822    -0.11445246
     14      F     1.29004465     4.20262028     1.07991675
     15      F     1.09038959     4.38269549    -1.19377668
     16      F     3.16918659     4.41820251    -0.22165835
 
Total System Charge             0.00000
 
 *** GOStep11 ***

 Energy gradients wrt nuclear displacements
 ==========================================

     Atom      Cartesian (a.u./angstrom)
                 X         Y         Z
 ----------------------------------------
     1 H     0.000527  0.000223 -0.000245
     2 C    -0.001945 -0.001396 -0.000593
     3 C    -0.003000  0.000344  0.000426
     4 C     0.006004 -0.000900 -0.000639
     5 O    -0.001607 -0.001138  0.000055
     6 H    -0.000181  0.000138 -0.000038
     7 H     0.000103  0.000044 -0.000005
     8 C    -0.000003  0.000545 -0.001100
     9 H     0.000070 -0.000117  0.000236
    10 H     0.000184 -0.000022 -0.000034
    11 H     0.002509  0.000220  0.001363
    12 H    -0.002904  0.001593  0.000797
    13 B    -0.005071  0.000178 -0.000028
    14 F     0.000596 -0.000206 -0.003283
    15 F     0.001808 -0.000199  0.003550
    16 F     0.002909  0.000692 -0.000461
 ----------------------------------------
 Mulliken charges used for AMS results%charges...

 dE(predicted):    -0.66038E-04, dE(actual):     0.35159E-05, Trust radius:    0.123185, all in a.u.
 
----------------------------------------------------------------------
Geometry Convergence after Step  11       (Hartree/Angstrom,Angstrom)
----------------------------------------------------------------------
current energy                               -3.21951175 Hartree
energy change                       0.00000352     0.00016000    T
constrained gradient max            0.00600099     0.00100000    F
constrained gradient rms            0.00171017     0.00066667    F
gradient max                        0.00600099
gradient rms                        0.00171017
cart. step max                      0.05173314     0.01000000    F
cart. step rms                      0.01569992     0.00666667    F
 
 
--------
Geometry
--------
Formula: C4H7BF3O
Atoms
  Index Symbol   x (angstrom)   y (angstrom)   z (angstrom)
      1      H     0.18400268    -1.68657071     0.22920302
      2      C    -0.78513753     0.18139096     0.94166284
      3      C     0.28884927    -0.60193097     0.28648368
      4      C     1.47821840    -0.04001001    -0.28870959
      5      O     1.75257723     1.16903424    -0.29781094
      6      H    -0.52560220     1.24335730     0.92626968
      7      H    -1.38537842    -1.33492565     2.41122093
      8      C    -1.09406850    -0.27980420     2.37944835
      9      H    -0.22285230    -0.14824143     3.02842544
     10      H    -1.91730073     0.31083402     2.79310373
     11      H    -1.70290951     0.06729685     0.34266333
     12      H     2.17327022    -0.77073915    -0.75310846
     13      B     1.87098749     4.32831255    -0.11916880
     14      F     1.34177779     4.23298897     1.09241717
     15      F     1.08179698     4.41344878    -1.17979367
     16      F     3.18548165     4.41237867    -0.26200278
 
Total System Charge             0.00000
 
 *** GOStep12 ***

 Energy gradients wrt nuclear displacements
 ==========================================

     Atom      Cartesian (a.u./angstrom)
                 X         Y         Z
 ----------------------------------------
     1 H     0.000287  0.000086 -0.000177
     2 C    -0.000851 -0.000767 -0.000208
     3 C    -0.001741  0.000075  0.000409
     4 C     0.003131 -0.000178 -0.000502
     5 O    -0.000897 -0.000911  0.000179
     6 H    -0.000117  0.000067 -0.000024
     7 H     0.000048  0.000012  0.000013
     8 C     0.000026  0.000333 -0.000665
     9 H     0.000040 -0.000076  0.000134
    10 H     0.000097 -0.000008 -0.000002
    11 H     0.001150  0.000100  0.000639
    12 H    -0.001421  0.000655  0.000376
    13 B    -0.001126  0.000320  0.000217
    14 F     0.000298 -0.000249 -0.000637
    15 F     0.000354  0.000086  0.000338
    16 F     0.000722  0.000456 -0.000091
 ----------------------------------------
 Mulliken charges used for AMS results%charges...

 dE(predicted):    -0.24066E-04, dE(actual):    -0.30902E-04, Trust radius:    0.246369, all in a.u.
 
----------------------------------------------------------------------
Geometry Convergence after Step  12       (Hartree/Angstrom,Angstrom)
----------------------------------------------------------------------
current energy                               -3.21954265 Hartree
energy change                      -0.00003090     0.00016000    T
constrained gradient max            0.00313212     0.00100000    F
constrained gradient rms            0.00071199     0.00066667    F
gradient max                        0.00313212
gradient rms                        0.00071199
cart. step max                      0.00803842     0.01000000    T
cart. step rms                      0.00338425     0.00666667    T
 
 
--------
Geometry
--------
Formula: C4H7BF3O
Atoms
  Index Symbol   x (angstrom)   y (angstrom)   z (angstrom)
      1      H     0.18139643    -1.68591291     0.22883882
      2      C    -0.78198035     0.18511241     0.94111985
      3      C     0.28979485    -0.60153178     0.28544933
      4      C     1.47859318    -0.04164486    -0.29100972
      5      O     1.75624832     1.16687842    -0.29842731
      6      H    -0.51862658     1.24608970     0.92666582
      7      H    -1.38642178    -1.33107474     2.40978436
      8      C    -1.09250167    -0.27663591     2.37892295
      9      H    -0.22094314    -0.14734240     3.02776650
     10      H    -1.91450383     0.31565233     2.79280436
     11      H    -1.70126957     0.07438256     0.34178007
     12      H     2.17540896    -0.77338413    -0.75430292
     13      B     1.86588535     4.32282724    -0.11694088
     14      F     1.33473535     4.22495056     1.09416588
     15      F     1.07802551     4.40633432    -1.17929466
     16      F     3.17987148     4.41211943    -0.25701852
 
Total System Charge             0.00000
 
 *** GOStep13 ***

 Energy gradients wrt nuclear displacements
 ==========================================

     Atom      Cartesian (a.u./angstrom)
                 X         Y         Z
 ----------------------------------------
     1 H     0.000074 -0.000020 -0.000113
     2 C    -0.000009 -0.000167  0.000017
     3 C    -0.000469 -0.000023  0.000277
     4 C     0.000664  0.000259 -0.000328
     5 O    -0.000475 -0.000671  0.000379
     6 H    -0.000017  0.000044 -0.000013
     7 H    -0.000002 -0.000013  0.000016
     8 C     0.000052  0.000112 -0.000198
     9 H     0.000012 -0.000033  0.000029
    10 H     0.000018  0.000004  0.000020
    11 H     0.000053 -0.000033  0.000059
    12 H    -0.000157 -0.000039  0.000030
    13 B     0.000050  0.000200  0.000014
    14 F     0.000107 -0.000274  0.000113
    15 F    -0.000062  0.000172 -0.000332
    16 F     0.000161  0.000483  0.000030
 ----------------------------------------
 Mulliken charges used for AMS results%charges...

 dE(predicted):    -0.61592E-05, dE(actual):    -0.69038E-05, Trust radius:    0.246369, all in a.u.
 
---------------------------------------------------------
Geometry Convergence after Step  13       ** CONVERGED **
---------------------------------------------------------
current energy                               -3.21954956 Hartree
energy change                      -0.00000690     0.00016000    T
constrained gradient max            0.00067373     0.00100000    T
constrained gradient rms            0.00022453     0.00066667    T
gradient max                        0.00067373
gradient rms                        0.00022453
cart. step max                      0.00807652     0.01000000    T
cart. step rms                      0.00335106     0.00666667    T
 
Geometry optimization converged

Optimized geometry:
 
--------
Geometry
--------
Formula: C4H7BF3O
Atoms
  Index Symbol   x (angstrom)   y (angstrom)   z (angstrom)
      1      H     0.18139643    -1.68591291     0.22883882
      2      C    -0.78198035     0.18511241     0.94111985
      3      C     0.28979485    -0.60153178     0.28544933
      4      C     1.47859318    -0.04164486    -0.29100972
      5      O     1.75624832     1.16687842    -0.29842731
      6      H    -0.51862658     1.24608970     0.92666582
      7      H    -1.38642178    -1.33107474     2.40978436
      8      C    -1.09250167    -0.27663591     2.37892295
      9      H    -0.22094314    -0.14734240     3.02776650
     10      H    -1.91450383     0.31565233     2.79280436
     11      H    -1.70126957     0.07438256     0.34178007
     12      H     2.17540896    -0.77338413    -0.75430292
     13      B     1.86588535     4.32282724    -0.11694088
     14      F     1.33473535     4.22495056     1.09416588
     15      F     1.07802551     4.40633432    -1.17929466
     16      F     3.17987148     4.41211943    -0.25701852
 
Total System Charge             0.00000
 
Performing a single point calculation on the final geometry ...

 *** adf ***



 ===========================
 A T T A C H E D   F I L E S
 ===========================
  
 Restart
 /scratch/3979/amstmp_28.achiral_catalyst.H_H_BF3.P1_kid0.1974841444/GOStep13.rk
 f*** GOStep13 ***



 ===============================
 M O D E L   P A R A M E T E R S
 ===============================
  
 DENSITY FUNCTIONAL POTENTIAL (scf)
    LDA:                               Exchange only                           == Not Default ==
    Gradient Corrections:              OPTX LYP                                == Not Default ==

 SPIN  (restricted / unrestr.)
    Molecule:                          UNrestricted                            == Not Default ==
    Fragments:                         Restricted                               

 OTHER ASPECTS
    Relativistic Corrections:          scalar (ZORA,MAPA)                       

    Nuclear Charge Density Model:      Point Charge Nuclei                      
    Core Treatment:                    Frozen Orbital(s)                        

    Hyperfine or Zeeman Interaction:   ---                                      



 ===============
 G E O M E T R Y  ***  3D  Molecule  ***
 ===============
  

 ATOMS
 =====                            X Y Z                    CHARGE
                                (Angstrom)             Nucl     +Core       At.Mass
                       --------------------------    ----------------       -------
    1  H               0.1814   -1.6859    0.2288      1.00      1.00        1.0078
    2  C              -0.7820    0.1851    0.9411      6.00      6.00       12.0000
    3  C               0.2898   -0.6015    0.2854      6.00      6.00       12.0000
    4  C               1.4786   -0.0416   -0.2910      6.00      6.00       12.0000
    5  O               1.7562    1.1669   -0.2984      8.00      8.00       15.9949
    6  H              -0.5186    1.2461    0.9267      1.00      1.00        1.0078
    7  H              -1.3864   -1.3311    2.4098      1.00      1.00        1.0078
    8  C              -1.0925   -0.2766    2.3789      6.00      6.00       12.0000
    9  H              -0.2209   -0.1473    3.0278      1.00      1.00        1.0078
   10  H              -1.9145    0.3157    2.7928      1.00      1.00        1.0078
   11  H              -1.7013    0.0744    0.3418      1.00      1.00        1.0078
   12  H               2.1754   -0.7734   -0.7543      1.00      1.00        1.0078
   13  B               1.8659    4.3228   -0.1169      5.00      5.00       11.0093
   14  F               1.3347    4.2250    1.0942      9.00      9.00       18.9984
   15  F               1.0780    4.4063   -1.1793      9.00      9.00       18.9984
   16  F               3.1799    4.4121   -0.2570      9.00      9.00       18.9984


 FRAGMENTS
 =========                                     Atoms in this Fragment     Cart. coord.s (Angstrom)
                                               -------------------------------------------------------
    1  H                                                 1  H            0.1814   -1.6859    0.2288
    2  H                                                 6  H           -0.5186    1.2461    0.9267
    3  H                                                 7  H           -1.3864   -1.3311    2.4098
    4  H                                                 9  H           -0.2209   -0.1473    3.0278
    5  H                                                10  H           -1.9145    0.3157    2.7928
    6  H                                                11  H           -1.7013    0.0744    0.3418
    7  H                                                12  H            2.1754   -0.7734   -0.7543
    8  C                                                 2  C           -0.7820    0.1851    0.9411
    9  C                                                 3  C            0.2898   -0.6015    0.2854
   10  C                                                 4  C            1.4786   -0.0416   -0.2910
   11  C                                                 8  C           -1.0925   -0.2766    2.3789
   12  O                                                 5  O            1.7562    1.1669   -0.2984
   13  B                                                13  B            1.8659    4.3228   -0.1169
   14  F                                                14  F            1.3347    4.2250    1.0942
   15  F                                                15  F            1.0780    4.4063   -1.1793
   16  F                                                16  F            3.1799    4.4121   -0.2570


 Interatomic Distance Matrix (Angstrom)
 --------------------------------------

   1)     0.000
   2)     2.222   0.000
   3)     1.091   1.482   0.000
   4)     2.158   2.585   1.435   0.000
   5)     3.301   2.990   2.370   1.240   0.000
   6)     3.094   1.093   2.116   2.670   2.585   0.000
   7)     2.709   2.196   2.803   4.143   4.843   3.097   0.000
   8)     2.869   1.542   2.530   3.714   4.167   2.181   1.095   0.000
   9)     3.219   2.186   2.826   3.730   4.087   2.539   1.772   1.094   0.000
  10)     3.869   2.174   3.462   4.599   4.874   2.509   1.771   1.094   1.771   0.000
  11)     2.580   1.103   2.103   3.244   3.682   1.765   2.520   2.155   3.075   2.472
          0.000
  12)     2.403   3.541   2.160   1.112   2.037   3.763   4.797   4.554   4.521   5.522
          4.117   0.000
  13)     6.250   5.025   5.186   4.385   3.163   4.030   6.995   6.011   5.850   6.230
          5.566   5.145   0.000
  14)     6.084   4.563   5.004   4.488   3.387   3.512   6.325   5.273   5.028   5.360
          5.197   5.395   1.326   0.000
  15)     6.317   5.077   5.277   4.553   3.425   4.120   7.202   6.269   6.334   6.439
          5.367   5.312   1.325   2.295   0.000
  16)     6.813   5.916   5.812   4.768   3.544   5.010   7.807   6.869   6.568   7.214
          6.557   5.305   1.324   2.295   2.295   0.000

 Min. Distance =    1.0913
 Max. Distance =    7.8069



 =====================================
 S Y M M E T R Y ,   E L E C T R O N S
 =====================================
  
 Symmetry: NOSYM

 Irreducible Representations, including subspecies
 -------------------------------------------------
 A


 Configuration of Valence Electrons
 ==================================
 ( determined in the SCF procedure )

 Total:   36 (Spin-A)  + 35 (Spin-B)

 Net Charge: 0 (Nuclei minus Electrons)
 Spin polar: 1 (Spin_A minus Spin_B electrons)

 Aufbau principle for MO occupations will be applied through SCF cycle no.      49
 Thereafter, the program will assign electrons to MOs that are spatially
 similar to the occupied MOs in a "reference" cycle ("KeepOrbitals").
 The reference cycle is always the PREVIOUS cycle: it will evolve with
 the SCF procedure.
1
 ***************************************************************************************************



                                      ****************************************
                                      *  B U I L D : (Fragments, Functions)  *
                                      ****************************************
  



 =======
 S F O s  ***  (Symmetrized Fragment Orbitals)  ***
 =======
  
 SFOs are linear combinations of (valence) Fragment Orbitals (FOs), such that the SFOs transform as the
 irreducible representations of the (molecular) symmetry group. Each SFO is therefore characterized by
 an irrep of the molecule and by a few (or only one) generating FOs.
 The SFOs constitute a symmetry-adapted basis for the Fock matrix. The MO eigenvector coefficients in
 this basis provide a direct interpretation of the MOs in terms of Frontier Orbital Theory.

 The SFOs are combined with auxiliary Core Functions (CFs) to ensure orthogonalization on the (frozen)
 Core Orbitals (COs). The Core-orthogonalized SFOs (CSFOs) constitute the true Fock basis.

 The FOs, and hence also the (C)SFOs are combinations of the elementary basis functions (BAS). The basis
 functions that participate in the description of the SFOs depend on the irrep. The indices of the
 involved functions are printed below for each irrep.
 (The complete list of primitive basis functions is printed in another section)

 Total nr. of (C)SFOs (summation over all irreps) :   311

 NOTE: a (C)SFO that is defined as a combination of more than one FO is usually NOT normalized.



                                       === A ===
 Nr. of SFOs :  311
 Cartesian basis functions that participate in this irrep (total number =   354) :
      1     2     3     4     5     6     7     8     9    10
     11    12    13    14    15    16    17    18    19    20
     21    22    23    24    25    26    27    28    29    30
     31    32    33    34    35    36    37    38    39    40
     41    42    43    44    45    46    47    48    49    50
     51    52    53    54    55    56    57    58    59    60
     61    62    63    64    65    66    67    68    69    70
     71    72    73    74    75    76    77    78    79    80
     81    82    83    84    85    86    87    88    89    90
     93    96    91    94    97    92    95    98    99   100
    101   102   103   104   105   106   107   108   109   110
    111   112   113   114   115   116   117   118   119   120
    123   126   121   124   127   122   125   128   129   130
    131   132   133   134   135   136   137   138   139   140
    141   142   143   144   145   146   147   148   149   150
    153   156   151   154   157   152   155   158   159   160
    161   162   163   164   165   166   167   168   169   170
    171   172   173   174   175   176   177   178   179   180
    183   186   181   184   187   182   185   188   189   190
    191   192   193   194   195   196   197   198   199   200
    201   202   203   204   205   206   207   208   209   210
    213   216   211   214   217   212   215   218   219   220
    221   222   223   224   225   226   227   228   229   230
    231   232   233   234   235   236   237   238   239   240
    243   246   241   244   247   242   245   248   249   250
    251   252   253   254   255   256   257   258   259   260
    261   262   263   264   265   266   267   268   269   270
    273   276   271   274   277   272   275   278   279   280
    281   282   283   284   285   286   287   288   289   290
    291   292   293   294   295   296   297   298   299   300
    303   306   301   304   307   302   305   308   309   310
    311   312   313   314   315   316   317   318   319   320
    321   322   323   324   325   326   327   328   329   330
    333   336   331   334   337   332   335   338   339   340
    341   342   343   344   345   346   347   348   349   350
    351   352   353   354

    SFO  (index         Fragment          Generating    Expansion in Fragment Orbitals
  indx  incl.CFs)   Occup   Orb.Energy   FragmentType  Coeff.   Orbital     on Fragment
 --------------------------------------------------------------------------------------
     1       1      1.000      -0.238 au  H             1.00      1 S               1
                        (      -6.484 eV)
     2       2       --         0.077 au  H             1.00      2 S               1
                        (       2.096 eV)
     3       3       --         1.521 au  H             1.00      3 S               1
                        (      41.380 eV)
     4       4       --         0.410 au  H             1.00      1 P:x             1
                        (      11.162 eV)
     5       5       --         0.410 au  H             1.00      1 P:y             1
                        (      11.162 eV)
     6       6       --         0.410 au  H             1.00      1 P:z             1
                        (      11.162 eV)
     7       7       --         2.567 au  H             1.00      1 D:z2            1
                        (      69.838 eV)
     8       8       --         2.567 au  H             1.00      1 D:x2-y2         1
                        (      69.838 eV)
     9       9       --         2.567 au  H             1.00      1 D:xy            1
                        (      69.838 eV)
    10      10       --         2.567 au  H             1.00      1 D:xz            1
                        (      69.838 eV)
    11      11       --         2.567 au  H             1.00      1 D:yz            1
                        (      69.838 eV)
    12      12      1.000      -0.238 au  H             1.00      1 S               2
                        (      -6.484 eV)
    13      13       --         0.077 au  H             1.00      2 S               2
                        (       2.096 eV)
    14      14       --         1.521 au  H             1.00      3 S               2
                        (      41.380 eV)
    15      15       --         0.410 au  H             1.00      1 P:x             2
                        (      11.162 eV)
    16      16       --         0.410 au  H             1.00      1 P:y             2
                        (      11.162 eV)
    17      17       --         0.410 au  H             1.00      1 P:z             2
                        (      11.162 eV)
    18      18       --         2.567 au  H             1.00      1 D:z2            2
                        (      69.838 eV)
    19      19       --         2.567 au  H             1.00      1 D:x2-y2         2
                        (      69.838 eV)
    20      20       --         2.567 au  H             1.00      1 D:xy            2
                        (      69.838 eV)
    21      21       --         2.567 au  H             1.00      1 D:xz            2
                        (      69.838 eV)
    22      22       --         2.567 au  H             1.00      1 D:yz            2
                        (      69.838 eV)
    23      23      1.000      -0.238 au  H             1.00      1 S               3
                        (      -6.484 eV)
    24      24       --         0.077 au  H             1.00      2 S               3
                        (       2.096 eV)
    25      25       --         1.521 au  H             1.00      3 S               3
                        (      41.380 eV)
    26      26       --         0.410 au  H             1.00      1 P:x             3
                        (      11.162 eV)
    27      27       --         0.410 au  H             1.00      1 P:y             3
                        (      11.162 eV)
    28      28       --         0.410 au  H             1.00      1 P:z             3
                        (      11.162 eV)
    29      29       --         2.567 au  H             1.00      1 D:z2            3
                        (      69.838 eV)
    30      30       --         2.567 au  H             1.00      1 D:x2-y2         3
                        (      69.838 eV)
    31      31       --         2.567 au  H             1.00      1 D:xy            3
                        (      69.838 eV)
    32      32       --         2.567 au  H             1.00      1 D:xz            3
                        (      69.838 eV)
    33      33       --         2.567 au  H             1.00      1 D:yz            3
                        (      69.838 eV)
    34      34      1.000      -0.238 au  H             1.00      1 S               4
                        (      -6.484 eV)
    35      35       --         0.077 au  H             1.00      2 S               4
                        (       2.096 eV)
    36      36       --         1.521 au  H             1.00      3 S               4
                        (      41.380 eV)
    37      37       --         0.410 au  H             1.00      1 P:x             4
                        (      11.162 eV)
    38      38       --         0.410 au  H             1.00      1 P:y             4
                        (      11.162 eV)
    39      39       --         0.410 au  H             1.00      1 P:z             4
                        (      11.162 eV)
    40      40       --         2.567 au  H             1.00      1 D:z2            4
                        (      69.838 eV)
    41      41       --         2.567 au  H             1.00      1 D:x2-y2         4
                        (      69.838 eV)
    42      42       --         2.567 au  H             1.00      1 D:xy            4
                        (      69.838 eV)
    43      43       --         2.567 au  H             1.00      1 D:xz            4
                        (      69.838 eV)
    44      44       --         2.567 au  H             1.00      1 D:yz            4
                        (      69.838 eV)
    45      45      1.000      -0.238 au  H             1.00      1 S               5
                        (      -6.484 eV)
    46      46       --         0.077 au  H             1.00      2 S               5
                        (       2.096 eV)
    47      47       --         1.521 au  H             1.00      3 S               5
                        (      41.380 eV)
    48      48       --         0.410 au  H             1.00      1 P:x             5
                        (      11.162 eV)
    49      49       --         0.410 au  H             1.00      1 P:y             5
                        (      11.162 eV)
    50      50       --         0.410 au  H             1.00      1 P:z             5
                        (      11.162 eV)
    51      51       --         2.567 au  H             1.00      1 D:z2            5
                        (      69.838 eV)
    52      52       --         2.567 au  H             1.00      1 D:x2-y2         5
                        (      69.838 eV)
    53      53       --         2.567 au  H             1.00      1 D:xy            5
                        (      69.838 eV)
    54      54       --         2.567 au  H             1.00      1 D:xz            5
                        (      69.838 eV)
    55      55       --         2.567 au  H             1.00      1 D:yz            5
                        (      69.838 eV)
    56      56      1.000      -0.238 au  H             1.00      1 S               6
                        (      -6.484 eV)
    57      57       --         0.077 au  H             1.00      2 S               6
                        (       2.096 eV)
    58      58       --         1.521 au  H             1.00      3 S               6
                        (      41.380 eV)
    59      59       --         0.410 au  H             1.00      1 P:x             6
                        (      11.162 eV)
    60      60       --         0.410 au  H             1.00      1 P:y             6
                        (      11.162 eV)
    61      61       --         0.410 au  H             1.00      1 P:z             6
                        (      11.162 eV)
    62      62       --         2.567 au  H             1.00      1 D:z2            6
                        (      69.838 eV)
    63      63       --         2.567 au  H             1.00      1 D:x2-y2         6
                        (      69.838 eV)
    64      64       --         2.567 au  H             1.00      1 D:xy            6
                        (      69.838 eV)
    65      65       --         2.567 au  H             1.00      1 D:xz            6
                        (      69.838 eV)
    66      66       --         2.567 au  H             1.00      1 D:yz            6
                        (      69.838 eV)
    67      67      1.000      -0.238 au  H             1.00      1 S               7
                        (      -6.484 eV)
    68      68       --         0.077 au  H             1.00      2 S               7
                        (       2.096 eV)
    69      69       --         1.521 au  H             1.00      3 S               7
                        (      41.380 eV)
    70      70       --         0.410 au  H             1.00      1 P:x             7
                        (      11.162 eV)
    71      71       --         0.410 au  H             1.00      1 P:y             7
                        (      11.162 eV)
    72      72       --         0.410 au  H             1.00      1 P:z             7
                        (      11.162 eV)
    73      73       --         2.567 au  H             1.00      1 D:z2            7
                        (      69.838 eV)
    74      74       --         2.567 au  H             1.00      1 D:x2-y2         7
                        (      69.838 eV)
    75      75       --         2.567 au  H             1.00      1 D:xy            7
                        (      69.838 eV)
    76      76       --         2.567 au  H             1.00      1 D:xz            7
                        (      69.838 eV)
    77      77       --         2.567 au  H             1.00      1 D:yz            7
                        (      69.838 eV)
    78      78      2.000     -10.064 au  C             1.00      1 S               8
                        (    -273.865 eV)
    79      79      2.000      -0.507 au  C             1.00      2 S               8
                        (     -13.802 eV)
    80      80       --         0.384 au  C             1.00      3 S               8
                        (      10.456 eV)
    81      81       --         5.458 au  C             1.00      4 S               8
                        (     148.511 eV)
    82      82       --        49.970 au  C             1.00      5 S               8
                        (    1359.766 eV)
    83      83      0.667      -0.189 au  C             1.00      1 P:x             8
                        (      -5.135 eV)
    84      84       --         0.168 au  C             1.00      2 P:x             8
                        (       4.559 eV)
    85      85       --         2.056 au  C             1.00      3 P:x             8
                        (      55.959 eV)
    86      86      0.667      -0.189 au  C             1.00      1 P:y             8
                        (      -5.135 eV)
    87      87       --         0.168 au  C             1.00      2 P:y             8
                        (       4.559 eV)
    88      88       --         2.056 au  C             1.00      3 P:y             8
                        (      55.959 eV)
    89      89      0.667      -0.189 au  C             1.00      1 P:z             8
                        (      -5.135 eV)
    90      90       --         0.168 au  C             1.00      2 P:z             8
                        (       4.559 eV)
    91      91       --         2.056 au  C             1.00      3 P:z             8
                        (      55.959 eV)
    92      92       --         1.235 au  C             1.00      1 D:z2            8
                        (      33.605 eV)
    93      93       --         1.235 au  C             1.00      1 D:x2-y2         8
                        (      33.605 eV)
    94      94       --         1.235 au  C             1.00      1 D:xy            8
                        (      33.605 eV)
    95      95       --         1.235 au  C             1.00      1 D:xz            8
                        (      33.605 eV)
    96      96       --         1.235 au  C             1.00      1 D:yz            8
                        (      33.605 eV)
    97      97       --         4.005 au  C             1.00      1 F:z3            8
                        (     108.969 eV)
    98      98       --         4.005 au  C             1.00      1 F:z             8
                        (     108.969 eV)
    99      99       --         4.005 au  C             1.00      1 F:xyz           8
                        (     108.969 eV)
   100     100       --         4.005 au  C             1.00      1 F:z2x           8
                        (     108.969 eV)
   101     101       --         4.005 au  C             1.00      1 F:z2y           8
                        (     108.969 eV)
   102     102       --         4.005 au  C             1.00      1 F:x             8
                        (     108.969 eV)
   103     103       --         4.005 au  C             1.00      1 F:y             8
                        (     108.969 eV)
   104     104      2.000     -10.064 au  C             1.00      1 S               9
                        (    -273.865 eV)
   105     105      2.000      -0.507 au  C             1.00      2 S               9
                        (     -13.802 eV)
   106     106       --         0.384 au  C             1.00      3 S               9
                        (      10.456 eV)
   107     107       --         5.458 au  C             1.00      4 S               9
                        (     148.511 eV)
   108     108       --        49.970 au  C             1.00      5 S               9
                        (    1359.766 eV)
   109     109      0.667      -0.189 au  C             1.00      1 P:x             9
                        (      -5.135 eV)
   110     110       --         0.168 au  C             1.00      2 P:x             9
                        (       4.559 eV)
   111     111       --         2.056 au  C             1.00      3 P:x             9
                        (      55.959 eV)
   112     112      0.667      -0.189 au  C             1.00      1 P:y             9
                        (      -5.135 eV)
   113     113       --         0.168 au  C             1.00      2 P:y             9
                        (       4.559 eV)
   114     114       --         2.056 au  C             1.00      3 P:y             9
                        (      55.959 eV)
   115     115      0.667      -0.189 au  C             1.00      1 P:z             9
                        (      -5.135 eV)
   116     116       --         0.168 au  C             1.00      2 P:z             9
                        (       4.559 eV)
   117     117       --         2.056 au  C             1.00      3 P:z             9
                        (      55.959 eV)
   118     118       --         1.235 au  C             1.00      1 D:z2            9
                        (      33.605 eV)
   119     119       --         1.235 au  C             1.00      1 D:x2-y2         9
                        (      33.605 eV)
   120     120       --         1.235 au  C             1.00      1 D:xy            9
                        (      33.605 eV)
   121     121       --         1.235 au  C             1.00      1 D:xz            9
                        (      33.605 eV)
   122     122       --         1.235 au  C             1.00      1 D:yz            9
                        (      33.605 eV)
   123     123       --         4.005 au  C             1.00      1 F:z3            9
                        (     108.969 eV)
   124     124       --         4.005 au  C             1.00      1 F:z             9
                        (     108.969 eV)
   125     125       --         4.005 au  C             1.00      1 F:xyz           9
                        (     108.969 eV)
   126     126       --         4.005 au  C             1.00      1 F:z2x           9
                        (     108.969 eV)
   127     127       --         4.005 au  C             1.00      1 F:z2y           9
                        (     108.969 eV)
   128     128       --         4.005 au  C             1.00      1 F:x             9
                        (     108.969 eV)
   129     129       --         4.005 au  C             1.00      1 F:y             9
                        (     108.969 eV)
   130     130      2.000     -10.064 au  C             1.00      1 S              10
                        (    -273.865 eV)
   131     131      2.000      -0.507 au  C             1.00      2 S              10
                        (     -13.802 eV)
   132     132       --         0.384 au  C             1.00      3 S              10
                        (      10.456 eV)
   133     133       --         5.458 au  C             1.00      4 S              10
                        (     148.511 eV)
   134     134       --        49.970 au  C             1.00      5 S              10
                        (    1359.766 eV)
   135     135      0.667      -0.189 au  C             1.00      1 P:x            10
                        (      -5.135 eV)
   136     136       --         0.168 au  C             1.00      2 P:x            10
                        (       4.559 eV)
   137     137       --         2.056 au  C             1.00      3 P:x            10
                        (      55.959 eV)
   138     138      0.667      -0.189 au  C             1.00      1 P:y            10
                        (      -5.135 eV)
   139     139       --         0.168 au  C             1.00      2 P:y            10
                        (       4.559 eV)
   140     140       --         2.056 au  C             1.00      3 P:y            10
                        (      55.959 eV)
   141     141      0.667      -0.189 au  C             1.00      1 P:z            10
                        (      -5.135 eV)
   142     142       --         0.168 au  C             1.00      2 P:z            10
                        (       4.559 eV)
   143     143       --         2.056 au  C             1.00      3 P:z            10
                        (      55.959 eV)
   144     144       --         1.235 au  C             1.00      1 D:z2           10
                        (      33.605 eV)
   145     145       --         1.235 au  C             1.00      1 D:x2-y2        10
                        (      33.605 eV)
   146     146       --         1.235 au  C             1.00      1 D:xy           10
                        (      33.605 eV)
   147     147       --         1.235 au  C             1.00      1 D:xz           10
                        (      33.605 eV)
   148     148       --         1.235 au  C             1.00      1 D:yz           10
                        (      33.605 eV)
   149     149       --         4.005 au  C             1.00      1 F:z3           10
                        (     108.969 eV)
   150     150       --         4.005 au  C             1.00      1 F:z            10
                        (     108.969 eV)
   151     151       --         4.005 au  C             1.00      1 F:xyz          10
                        (     108.969 eV)
   152     152       --         4.005 au  C             1.00      1 F:z2x          10
                        (     108.969 eV)
   153     153       --         4.005 au  C             1.00      1 F:z2y          10
                        (     108.969 eV)
   154     154       --         4.005 au  C             1.00      1 F:x            10
                        (     108.969 eV)
   155     155       --         4.005 au  C             1.00      1 F:y            10
                        (     108.969 eV)
   156     156      2.000     -10.064 au  C             1.00      1 S              11
                        (    -273.865 eV)
   157     157      2.000      -0.507 au  C             1.00      2 S              11
                        (     -13.802 eV)
   158     158       --         0.384 au  C             1.00      3 S              11
                        (      10.456 eV)
   159     159       --         5.458 au  C             1.00      4 S              11
                        (     148.511 eV)
   160     160       --        49.970 au  C             1.00      5 S              11
                        (    1359.766 eV)
   161     161      0.667      -0.189 au  C             1.00      1 P:x            11
                        (      -5.135 eV)
   162     162       --         0.168 au  C             1.00      2 P:x            11
                        (       4.559 eV)
   163     163       --         2.056 au  C             1.00      3 P:x            11
                        (      55.959 eV)
   164     164      0.667      -0.189 au  C             1.00      1 P:y            11
                        (      -5.135 eV)
   165     165       --         0.168 au  C             1.00      2 P:y            11
                        (       4.559 eV)
   166     166       --         2.056 au  C             1.00      3 P:y            11
                        (      55.959 eV)
   167     167      0.667      -0.189 au  C             1.00      1 P:z            11
                        (      -5.135 eV)
   168     168       --         0.168 au  C             1.00      2 P:z            11
                        (       4.559 eV)
   169     169       --         2.056 au  C             1.00      3 P:z            11
                        (      55.959 eV)
   170     170       --         1.235 au  C             1.00      1 D:z2           11
                        (      33.605 eV)
   171     171       --         1.235 au  C             1.00      1 D:x2-y2        11
                        (      33.605 eV)
   172     172       --         1.235 au  C             1.00      1 D:xy           11
                        (      33.605 eV)
   173     173       --         1.235 au  C             1.00      1 D:xz           11
                        (      33.605 eV)
   174     174       --         1.235 au  C             1.00      1 D:yz           11
                        (      33.605 eV)
   175     175       --         4.005 au  C             1.00      1 F:z3           11
                        (     108.969 eV)
   176     176       --         4.005 au  C             1.00      1 F:z            11
                        (     108.969 eV)
   177     177       --         4.005 au  C             1.00      1 F:xyz          11
                        (     108.969 eV)
   178     178       --         4.005 au  C             1.00      1 F:z2x          11
                        (     108.969 eV)
   179     179       --         4.005 au  C             1.00      1 F:z2y          11
                        (     108.969 eV)
   180     180       --         4.005 au  C             1.00      1 F:x            11
                        (     108.969 eV)
   181     181       --         4.005 au  C             1.00      1 F:y            11
                        (     108.969 eV)
   182     182      2.000     -18.926 au  O             1.00      1 S              12
                        (    -515.001 eV)
   183     183      2.000      -0.887 au  O             1.00      2 S              12
                        (     -24.136 eV)
   184     184       --         0.804 au  O             1.00      3 S              12
                        (      21.890 eV)
   185     185       --        13.488 au  O             1.00      4 S              12
                        (     367.032 eV)
   186     186       --       121.767 au  O             1.00      5 S              12
                        (    3313.451 eV)
   187     187      1.333      -0.329 au  O             1.00      1 P:x            12
                        (      -8.949 eV)
   188     188       --         0.351 au  O             1.00      2 P:x            12
                        (       9.557 eV)
   189     189       --         3.863 au  O             1.00      3 P:x            12
                        (     105.120 eV)
   190     190      1.333      -0.329 au  O             1.00      1 P:y            12
                        (      -8.949 eV)
   191     191       --         0.351 au  O             1.00      2 P:y            12
                        (       9.557 eV)
[...]
     7     H      -0.085542   0.051870   0.484732
     8     C       0.022634   0.021550  -0.105867
     9     H      -0.268317  -0.126954   0.339263
    10     H       0.054068  -0.251622   0.389280
    11     H      -0.032615   0.068614   0.035007
    12     H      -0.287643  -0.387654   0.110621
    13     B       0.004037  -0.001177   0.008539
    14     F       0.000668   0.000240  -0.002017
    15     F      -0.001955   0.000277  -0.002752
    16     F      -0.001103  -0.000023  -0.000146
 
 Mode:    34      Frequency (cm-1):     1374.6406     Intensity (km/mol):        7.4834
 Index  Atom      ---- Displacements (x/y/z) ----
     1     H      -0.055458  -0.042463   0.030264
     2     C      -0.020571   0.017180   0.016340
     3     C       0.020980  -0.037470  -0.016261
     4     C       0.042520  -0.040724  -0.028483
     5     O      -0.005078   0.091537   0.013624
     6     H       0.014988   0.007399  -0.005593
     7     H       0.009903  -0.030003  -0.321886
     8     C      -0.009540  -0.025061   0.066121
     9     H       0.170329   0.140386  -0.226364
    10     H      -0.025116   0.173056  -0.271170
    11     H       0.019656  -0.016991  -0.038551
    12     H      -0.450767  -0.655581   0.168396
    13     B       0.013386   0.001950  -0.019338
    14     F      -0.003410  -0.000635   0.007476
    15     F       0.001092  -0.000236   0.002587
    16     F      -0.005465  -0.000454   0.001121
 
 Mode:    35      Frequency (cm-1):     1388.7844     Intensity (km/mol):      388.0401
 Index  Atom      ---- Displacements (x/y/z) ----
     1     H      -0.060204  -0.000920   0.025254
     2     C       0.000007  -0.005930   0.015436
     3     C       0.023618  -0.007019  -0.011373
     4     C      -0.005142  -0.007841   0.001584
     5     O       0.000674   0.012902  -0.001918
     6     H      -0.103430   0.021614  -0.105165
     7     H       0.023337  -0.017904  -0.104721
     8     C      -0.006659  -0.010132   0.026635
     9     H       0.080327   0.030649  -0.103737
    10     H      -0.016684   0.074428  -0.126371
    11     H      -0.002082   0.142072  -0.013709
    12     H      -0.063628  -0.082231   0.035723
    13     B      -0.158396  -0.077601   0.845842
    14     F       0.112611   0.023782  -0.272697
    15     F      -0.107988   0.013400  -0.179699
    16     F       0.086682   0.007559  -0.035699
 
 Mode:    36      Frequency (cm-1):     1394.4856     Intensity (km/mol):      400.3182
 Index  Atom      ---- Displacements (x/y/z) ----
     1     H       0.026109   0.000000  -0.015497
     2     C       0.009991  -0.008337  -0.007064
     3     C      -0.012698   0.002502   0.007734
     4     C       0.000663   0.008669   0.000976
     5     O      -0.002818  -0.011902  -0.002516
     6     H      -0.059923   0.009823   0.027616
     7     H       0.022902  -0.002251   0.002614
     8     C      -0.001172   0.005714   0.000115
     9     H      -0.001185  -0.029845   0.009282
    10     H      -0.003094  -0.003432   0.006968
    11     H      -0.001663   0.038195  -0.000315
    12     H       0.059813   0.074356  -0.018344
    13     B       0.892384   0.020933   0.170370
    14     F      -0.053976  -0.005736   0.053164
    15     F      -0.154524   0.011589  -0.175972
    16     F      -0.306499  -0.017970   0.024433
 
 Mode:    37      Frequency (cm-1):     1416.4344     Intensity (km/mol):        3.2273
 Index  Atom      ---- Displacements (x/y/z) ----
     1     H       0.506290  -0.069947  -0.243507
     2     C       0.042162   0.031747  -0.076537
     3     C      -0.178217  -0.010553   0.086027
     4     C       0.107493   0.028626  -0.053764
     5     O      -0.017729   0.003054   0.009214
     6     H       0.108041   0.010965   0.513756
     7     H       0.039965   0.015297   0.125342
     8     C       0.006318   0.022942  -0.022549
     9     H      -0.078091  -0.115188   0.128622
    10     H       0.003285  -0.070914   0.116156
    11     H       0.064003  -0.437166  -0.010382
    12     H      -0.096182  -0.248152   0.017240
    13     B      -0.007126  -0.002428   0.022180
    14     F       0.003164   0.000809  -0.007375
    15     F      -0.002367   0.000352  -0.004279
    16     F       0.003276   0.000261  -0.001082
 
 Mode:    38      Frequency (cm-1):     1431.8290     Intensity (km/mol):       14.5982
 Index  Atom      ---- Displacements (x/y/z) ----
     1     H       0.163432  -0.027322  -0.124225
     2     C       0.070897  -0.050305   0.003994
     3     C      -0.068721  -0.010382   0.042660
     4     C       0.045630   0.029456  -0.021045
     5     O      -0.009580  -0.010919   0.004524
     6     H      -0.637418   0.137175  -0.263644
     7     H       0.182486  -0.046899   0.060093
     8     C      -0.010630   0.007181   0.003547
     9     H      -0.003918  -0.169216   0.040327
    10     H       0.022991   0.078511  -0.052928
    11     H       0.027267   0.586486  -0.092172
    12     H      -0.045344  -0.099305   0.014776
    13     B      -0.004694   0.000948  -0.013385
    14     F      -0.001122  -0.000337   0.003482
    15     F       0.002709  -0.000226   0.003847
    16     F       0.001127   0.000026   0.000365
 
 Mode:    39      Frequency (cm-1):     1461.5260     Intensity (km/mol):        5.9166
 Index  Atom      ---- Displacements (x/y/z) ----
     1     H      -0.041439   0.003041   0.026231
     2     C      -0.022608  -0.004448  -0.004850
     3     C       0.011890   0.000687  -0.007143
     4     C      -0.006903  -0.004935   0.003130
     5     O       0.001667   0.002885  -0.000553
     6     H       0.059926  -0.027574   0.059286
     7     H       0.483255  -0.157856  -0.229107
     8     C      -0.040158  -0.024301  -0.017634
     9     H      -0.286745   0.062400   0.334778
    10     H       0.439568   0.500276   0.173772
    11     H       0.004294  -0.043710  -0.038491
    12     H       0.002471   0.010518  -0.002185
    13     B      -0.000276  -0.000073   0.001634
    14     F       0.000218   0.000028  -0.000532
    15     F      -0.000201   0.000009  -0.000341
    16     F       0.000152   0.000006  -0.000075
 
 Mode:    40      Frequency (cm-1):     1468.3110     Intensity (km/mol):        8.4742
 Index  Atom      ---- Displacements (x/y/z) ----
     1     H       0.025074   0.000386  -0.021046
     2     C       0.033725  -0.029042  -0.014988
     3     C      -0.021630   0.002564   0.012723
     4     C       0.013555   0.017279  -0.004859
     5     O      -0.004003  -0.010953   0.000782
     6     H      -0.146294   0.015074   0.018266
     7     H      -0.447869   0.099859  -0.339866
     8     C       0.027776  -0.041026  -0.004402
     9     H      -0.135986   0.658108   0.065946
    10     H       0.150024  -0.099931   0.379163
    11     H      -0.010956   0.109541   0.020769
    12     H      -0.006707  -0.011596   0.001667
    13     B      -0.000165  -0.000171   0.001268
    14     F       0.000155   0.000055  -0.000400
    15     F      -0.000166   0.000038  -0.000279
    16     F       0.000112   0.000028  -0.000060
 
 Mode:    41      Frequency (cm-1):     1555.9665     Intensity (km/mol):       88.5193
 Index  Atom      ---- Displacements (x/y/z) ----
     1     H       0.400754   0.019091  -0.216182
     2     C       0.035820  -0.027946  -0.022973
     3     C      -0.077467   0.056379   0.050332
     4     C      -0.116858  -0.483614   0.006220
     5     O       0.077326   0.305972  -0.005552
     6     H      -0.153777   0.012078   0.038342
     7     H      -0.027444   0.016062  -0.016508
     8     C      -0.000160   0.007554  -0.003168
     9     H      -0.022926   0.025468   0.022403
    10     H       0.007897  -0.044590   0.084826
    11     H      -0.016733   0.117199   0.032991
    12     H       0.471600   0.328802  -0.218186
    13     B      -0.000216   0.004475   0.000666
    14     F       0.000261  -0.000940  -0.000606
    15     F       0.000228  -0.000897   0.000184
    16     F      -0.000225  -0.000772  -0.000051
 
 Mode:    42      Frequency (cm-1):     2870.1903     Intensity (km/mol):      121.6303
 Index  Atom      ---- Displacements (x/y/z) ----
     1     H       0.001804  -0.053933  -0.006493
     2     C      -0.000393  -0.000319   0.000270
     3     C      -0.001370   0.002812   0.001023
     4     C       0.056609  -0.048074  -0.036269
     5     O      -0.001156  -0.003339   0.000237
     6     H       0.000330   0.012789   0.001301
     7     H      -0.000691  -0.002504  -0.000051
     8     C       0.000145  -0.000017  -0.000114
     9     H       0.001637   0.000212   0.001100
    10     H      -0.001599   0.001269  -0.000072
    11     H      -0.000608  -0.001001  -0.001505
    12     H      -0.637448   0.638268   0.419858
    13     B       0.000182   0.000345  -0.000101
    14     F      -0.000025  -0.000064   0.000019
    15     F      -0.000005  -0.000050   0.000023
    16     F      -0.000067  -0.000042   0.000012
 
 Mode:    43      Frequency (cm-1):     2941.7358     Intensity (km/mol):        8.2868
 Index  Atom      ---- Displacements (x/y/z) ----
     1     H      -0.001686  -0.014765   0.002803
     2     C      -0.061417   0.004991  -0.041928
     3     C      -0.001909   0.001424  -0.000088
     4     C       0.000309   0.000767  -0.000727
     5     O       0.000049  -0.000272   0.000024
     6     H      -0.059618  -0.173624  -0.010715
     7     H      -0.000989  -0.015584   0.000925
     8     C       0.004568   0.000111   0.000952
     9     H      -0.039566  -0.006314  -0.029734
    10     H      -0.023125   0.019410   0.012931
    11     H       0.821910   0.107443   0.519106
    12     H      -0.001847   0.000841   0.001993
    13     B       0.000011   0.000026  -0.000116
    14     F      -0.000011  -0.000009   0.000028
    15     F       0.000014  -0.000001   0.000025
    16     F      -0.000005  -0.000001   0.000009
 
 Mode:    44      Frequency (cm-1):     2996.5732     Intensity (km/mol):       26.6892
 Index  Atom      ---- Displacements (x/y/z) ----
     1     H      -0.002836  -0.017168   0.000371
     2     C       0.000535   0.001963  -0.000372
     3     C       0.000594   0.001166  -0.000231
     4     C       0.000122   0.000138  -0.000065
     5     O      -0.000039  -0.000132   0.000005
     6     H      -0.005190  -0.021391   0.001086
     7     H       0.165690   0.600797  -0.001395
     8     C      -0.011777  -0.018441   0.043533
     9     H      -0.443660  -0.072239  -0.312237
    10     H       0.417120  -0.309780  -0.197223
    11     H      -0.002942   0.000675  -0.002389
    12     H      -0.002266   0.001773   0.001299
    13     B       0.000035   0.000063   0.000025
    14     F      -0.000002  -0.000012  -0.000008
    15     F      -0.000006  -0.000011  -0.000005
    16     F      -0.000010  -0.000008  -0.000001
 
 Mode:    45      Frequency (cm-1):     3058.1759     Intensity (km/mol):        4.0531
 Index  Atom      ---- Displacements (x/y/z) ----
     1     H       0.011530   0.100974   0.004828
     2     C       0.022787   0.063793   0.005095
     3     C      -0.000522  -0.008223  -0.000231
     4     C       0.001263  -0.000099  -0.000713
     5     O       0.000143  -0.000314  -0.000099
     6     H      -0.188372  -0.763926   0.001643
     7     H       0.119599   0.432162  -0.007708
     8     C      -0.012528  -0.049408  -0.020394
     9     H       0.233277   0.022863   0.164471
    10     H      -0.201838   0.131777   0.088885
    11     H      -0.097665  -0.000235  -0.063248
    12     H      -0.010148   0.008658   0.006209
    13     B       0.000030   0.000040  -0.000068
    14     F       0.000000   0.000007   0.000013
    15     F       0.000008  -0.000000   0.000015
    16     F      -0.000006  -0.000001   0.000006
 
 Mode:    46      Frequency (cm-1):     3076.6704     Intensity (km/mol):       17.9540
 Index  Atom      ---- Displacements (x/y/z) ----
     1     H      -0.016617  -0.137925  -0.005727
     2     C      -0.010136  -0.034717  -0.001681
     3     C       0.001187   0.011921   0.000452
     4     C      -0.001363   0.000136   0.000662
     5     O      -0.000017   0.000235   0.000040
     6     H       0.101131   0.406774  -0.002983
     7     H       0.142332   0.457651  -0.009937
     8     C       0.046688  -0.067277  -0.011866
     9     H      -0.154365  -0.041843  -0.121657
    10     H      -0.547309   0.390241   0.269905
    11     H       0.033883  -0.000538   0.022571
    12     H       0.008303  -0.006873  -0.004837
    13     B       0.000039  -0.000043  -0.000028
    14     F      -0.000014  -0.000003   0.000016
    15     F      -0.000008   0.000004   0.000000
    16     F      -0.000012   0.000004   0.000004
 
 Mode:    47      Frequency (cm-1):     3079.2151     Intensity (km/mol):       16.0102
 Index  Atom      ---- Displacements (x/y/z) ----
     1     H       0.015311   0.129735   0.005795
     2     C       0.015217   0.031260   0.005265
     3     C      -0.001223  -0.011060  -0.000504
     4     C       0.001010  -0.000261  -0.000549
     5     O       0.000026  -0.000115  -0.000050
     6     H      -0.090857  -0.363131   0.003110
     7     H      -0.091189  -0.389923   0.012059
     8     C       0.076344   0.025235   0.026383
     9     H      -0.603800  -0.089270  -0.443025
    10     H      -0.214848   0.176957   0.118379
    11     H      -0.095363  -0.006883  -0.064701
    12     H      -0.007488   0.006174   0.004913
    13     B       0.000005   0.000009   0.000059
    14     F       0.000008   0.000009  -0.000020
    15     F      -0.000004   0.000000  -0.000011
    16     F       0.000002   0.000000  -0.000005
 
 Mode:    48      Frequency (cm-1):     3101.6842     Intensity (km/mol):       25.1573
 Index  Atom      ---- Displacements (x/y/z) ----
     1     H       0.098784   0.965130   0.049173
     2     C      -0.008382  -0.015047  -0.000970
     3     C      -0.009236  -0.082341  -0.003929
     4     C       0.004873  -0.003079  -0.003025
     5     O      -0.000042   0.001024   0.000152
     6     H       0.043781   0.183382   0.000610
     7     H       0.023838   0.082416  -0.004666
     8     C      -0.002284  -0.008002  -0.002081
     9     H       0.025714   0.002111   0.018257
    10     H      -0.020558   0.014157   0.008328
    11     H       0.040752   0.001992   0.024157
    12     H      -0.032653   0.026152   0.020862
    13     B       0.000069   0.000058  -0.000048
    14     F      -0.000016  -0.000018   0.000015
    15     F      -0.000005  -0.000011   0.000007
    16     F      -0.000022  -0.000008   0.000005

PES point character: Geometry corresponds to a local minimum on the PES.
                     (Hint: Very small negative frequencies do not count towards being a
                     transition state, as they usually indicate noise on a very flat PES. See
                     the PESPointCharacter%NegativeFrequenciesTolerance keyword documentation.)




 ============================
 Statistical Thermal Analysis  ***  ideal gas assumed  ***
 ============================
  
 Pressure:                  1.000000 atm.
 Temperature:             298.150000 K



 Moments of Inertia [amu*bohr^2] and principal axis
 ==================================================

         786.2224       3150.3838       3503.6446
 ------------------------------------------------
          -0.4293         -0.5962         -0.6784
          -0.8693          0.4766          0.1312
           0.2451          0.6461         -0.7228


 The rotational contribution to the molecular entropy includes
 a term, dependent on the symmetry number sigma. The results 
 reported below were computed using sigma = 1, determined from
 the point group symmetry of the input geometry (NOSYM). 
 If this is not the correct symmetry, try symmetrizing the molecule before
 running the calculation (note: linear molecules should be aligned along one
 of the Cartesian axes).
 Contributions from frequencies below 20 1/cm are not included in vibrational sums.
 Their contributions, if any, are reported separately.


     Temp                                                        Transl      Rotat     Vibrat     Total
     ----                                                        ------      -----     ------     -----

     298.15   Entropy (cal/mol-K):                               40.701     30.541     30.391    101.632
              Nuclear Internal Energy (kcal/mol):                 0.889      0.889     73.193     74.971
              Constant Volume Heat Capacity (cal/mol-K):          2.981      2.981     24.997     30.959
          (c) Constant Volume Heat Capacity (cal/mol-K):          2.981      2.981     22.252     28.213

 Contributions from frequencies below 20 1/cm
 Frequency (1/cm):                                   19.974
 Entropy (cal/mol-K):                                 6.637
 Nuclear Internal Energy (kcal/mol):                  0.593
 Constant Volume Heat Capacity (cal/mol-K):           1.986

       Summary of energy terms
                                                   hartree              eV         kcal/mol           kJ/mol
                                      --------------------     -----------       ----------      -----------
      Energy from Engine:               -3.219549558309871        -87.6084         -2020.30         -8452.93
      Nuclear Internal Energy:           0.119473262920518          3.2510            74.97           313.68
  (c) Nuclear Internal Energy:           0.118105557021324          3.2138            74.11           310.09
      Internal Energy U:                -3.100076295389353        -84.3574         -1945.33         -8139.25
      pV/n = RT:                         0.000944186013486          0.0257             0.59             2.48
      Enthalpy H:                       -3.099132109375867        -84.3317         -1944.73         -8136.77
      -T*S:                             -0.048288661154297         -1.3140           -30.30          -126.78
  (c) -T*S:                             -0.047998553981831         -1.3061           -30.12          -126.02
      Gibbs free energy:                -3.147420770530164        -85.6457         -1975.04         -8263.55
 
 
 
  (c) The properties marked with this symbol have been corrected using 'low vibrational frequency free rotor
      interpolation corrections'. For those terms all positive frequencies are used (also ones below 20 1/cm),
      but the contribution to the partition function of small vibrational frequencies is modified as described
      in the following paper:
      S. Grimme, 'Supramolecular Binding Thermodynamics by Dispersion-Corrected Density Functional Theory'
      (Chem. Eur. J. 2012, 18, 9955-9964)
      Configuration: Dampener Frequency          :   100.000 1/cm
                     Dampener Alpha              :     4.000
                     Averaging Moment of Inertia : 1.000E-44 kg m2

--------------
Atomic charges
--------------
  Index   Atom    Charge
      1      H   -0.2079
      2      C    0.3942
      3      C    0.2768
      4      C    0.5967
      5      O   -0.5163
      6      H   -0.1480
      7      H   -0.2128
      8      C    0.6392
      9      H   -0.1967
     10      H   -0.2035
     11      H   -0.1636
     12      H   -0.2574
     13      B    1.5110
     14      F   -0.5053
     15      F   -0.5028
     16      F   -0.5037


Dipole moment vector    (Debye):    -2.08424276   -2.83143585    0.89529460
              magnitude (Debye):     3.62803655


Final PES point is a local minimum. Geometry optimization successful!


AMS application finished. Exiting.
NORMAL TERMINATION
     Total cpu time:   19872.55
  Total system time:     209.01
 Total elapsed time:   40369.83
 WARNING: total elapsed time is much higher than the (CPU+system) time. 
 Make sure the machine is not oversubscribed and has enough memory, SCM_TMPDIR p
 oints to a fast file system, and the network is fast enough.
