

 Parallel Execution: Process Information
 ==============================================================================
 Rank   Node Name                              NodeID   MyNodeRank  NodeMaster
    0   node120                                   0          0          0
    1   node120                                   0          1         -1
    2   node120                                   0          2         -1
    3   node120                                   0          3         -1
 ==============================================================================


May use up to 122928MB of RAM as shared memory on node 0

 *******************************************************************************
 *                                                                             *
 *  --------------------------------                                           *
 *   Amsterdam Modeling Suite (AMS)              2021.102                      *
 *  --------------------------------                                           *
 *                                               r95042 2021-06-07             *
 *                                                                             *
 *                                                                             *
 *                              =================                              *
 *                              |               |                              *
 *                              |     A M S     |                              *
 *                              |               |                              *
 *                              =================                              *
 *                                                                             *
 *                                                                             *
 *   Online information and documentation:  https://www.scm.com/support/       *
 *   E-mail:  support@scm.com   info@scm.com                                   *
 *                                                                             *
 *   Scientific publications using AMS results must be properly referenced     *
 *   See the User Manuals (or the web site) for recommended citations          *
 *   The terms and conditions of the End User License Agreement apply to       *
 *   the use of AMS, https://www.scm.com/license-terms/                        *
 *                                                                             *
 **********************  x86_64_linux_intel / intelmpi  ************************
 
 Licensed to: VU/FEW (+ SARA) / ALGEMEEN / Amsterdam / THE NETHERLANDS
 SCM User ID: u7668
  
 AMS 2021.102  RunTime: Feb02-2022 22:23:01  ShM Nodes: 1  Procs: 4

 AMS jobname: 53.achiral_catalyst.H_tBu_ZnCl2.P2
 AMS jobid  : 1300154280

 Start   directory: /scistor/tc/yhk800/MasterProject/calculations/achiral_catalyst_H_tBu_ZnCl2/53.achiral_catalyst.H_tBu_ZnCl2.P2/
 Results directory: /scistor/tc/yhk800/MasterProject/calculations/achiral_catalyst_H_tBu_ZnCl2/53.achiral_catalyst.H_tBu_ZnCl2.P2/
 Scratch directory: /scratch/5507/amstmp_53.achiral_catalyst.H_tBu_ZnCl2.P2_kid0.1300154280/


 Communication costs MPI_COMM_WORLD:      1.753 usec per message,   0.0091 usec per 8-byte item
 Communication costs for intra-node:      1.816 usec per message,   0.0067 usec per 8-byte item

 RNG seed: 2074338192 528715130 -1766964807 -935492227 957096209 683460961 -379924614 -910943089



                      ************************************************************************
                      *  ADF 2021.102  RunTime: Feb02-2022 22:23:02  ShM Nodes: 1  Procs: 4  *
                      ************************************************************************
  
       ***************************
       *  GEOMETRY OPTIMIZATION  *
       ***************************

Optimization Method                    Quasi Newton
Optimization Coordinates               Delocalized Coordinates
Optimize lattice                       F
 
 ------------------------------------------------------
 Convergence criteria (Hartree,Angstrom)
 ------------------------------------------------------
 Maximum gradient               0.001000000000
 Maximum rms gradient           0.000666666667
 Maximum step allowed           0.010000000000
 Maximum rms step allowed       0.006666666667
 Maximum energy change allowe   0.000280000000
 Maximum stress energy allowe   0.000500000000
 
Initial model Hessian                  Automatic Hessian
 
------------------------------------
Quasi-Newton Optimizer Parameters
------------------------------------
Hessian Update Method                  BFGS
Maximum number of steps                  250
First GDIIS cycle                          0
Maximum GDIIS vectors                      0
Trust radius (bohr)                        0.200000
Trust radius varies                        T
Constraints converged at all steps         T
Use projector                              T
 
 Rigid motions settings for: old optimizer
 Atomic rotations (x,y,z):     T T T
 Atomic translations (x,y,z):  T T T
 Tolerance:                   1.000000000000000E-006
 
--------
Geometry
--------
Formula: C8H16Cl2OSn
Atoms
  Index Symbol   x (angstrom)   y (angstrom)   z (angstrom)
      1      H     0.83345051    -1.35209109     1.20167740
      2      C    -0.83092072     0.03538951     0.93442801
      3      C     0.35139657    -0.78131674     0.40158875
      4      C     1.39689343     0.07225735    -0.26739819
      5      O     2.40703452    -0.34587328    -0.75774611
      6      H    -1.19392452     0.69150371     0.13740680
      7      H     0.00939092    -1.50634328    -0.34451216
      8      H    -0.05768346     0.24518214     2.94899716
      9      C    -0.44138171     0.87842746     2.14736270
     10      H     0.32560687     1.60312788     1.87585802
     11      H    -1.31355949     1.41759590     2.51749654
     12      C    -2.27071970    -1.82616668     0.11582029
     13      C    -1.96962468    -0.92743114     1.31904430
     14      C    -3.20179241    -0.09637428     1.68950211
     15      C    -1.51005423    -1.76760310     2.51446803
     16      H    -1.27318070    -1.12277223     3.36148834
     17      H    -3.07548253    -2.52473552     0.35095683
     18      H    -1.38428828    -2.39825896    -0.16042075
     19      H    -2.57404526    -1.22292570    -0.74059856
     20      H    -4.03273065    -0.74631316     1.96887984
     21      H    -3.51153452     0.51878769     0.84392839
     22      H    -2.97657760     0.55997399     2.53083710
     23      H    -2.29343234    -2.46452553     2.81703817
     24      H    -0.61838064    -2.33929178     2.25475744
     25      H     1.16279025     1.11629180    -0.25802988
     26     Sn     3.62898812    -1.04016615    -1.71419100
     27     Cl     3.95998856    -0.67181682    -4.04370676
     28     Cl     5.57055229    -2.31763730    -1.19435336
 
Total System Charge             0.00000
 
 
----------------
ADF Engine Input
----------------
 
 NumericalQuality VeryGood
 SCF
 Converge 1.0e-6
 Iterations 99
 End
 SYMMETRY NOSYM
 XC
 GGA OLYP
 End
 basis
 core None
 type TZ2P
 End
 

 Title: *** (NO TITLE) ***

 Using automatic Hessian for delocalized coordinates.
 *** GOStep1 ***

 Energy gradients wrt nuclear displacements
 ==========================================

     Atom      Cartesian (a.u./angstrom)
                 X         Y         Z
 ----------------------------------------
     1 H    -0.001524  0.005153  0.000422
     2 C    -0.011261  0.012412 -0.013389
     3 C    -0.035501 -0.029513  0.021516
     4 C     0.235942 -0.064961 -0.117947
     5 O     0.127335 -0.142435 -0.258768
     6 H    -0.000146 -0.002522  0.004286
     7 H    -0.010262  0.001827  0.002590
     8 H    -0.006330 -0.009156  0.000592
     9 C    -0.010500 -0.012348  0.011302
    10 H    -0.003817 -0.007094 -0.005302
    11 H    -0.009202 -0.006951 -0.003022
    12 C     0.013405  0.003967 -0.008895
    13 C     0.004917  0.001177  0.004883
    14 C     0.002952  0.008622 -0.001196
    15 C     0.011711  0.007347 -0.001643
    16 H     0.004676  0.010313 -0.005018
    17 H     0.002996  0.003622  0.002762
    18 H     0.014297  0.011139  0.002547
    19 H     0.002535  0.000099  0.006897
    20 H     0.004906 -0.000428 -0.001373
    21 H     0.004971 -0.004016  0.002516
    22 H     0.011161  0.001449 -0.001225
    23 H     0.000704  0.003906 -0.002515
    24 H     0.001489  0.007003 -0.006752
    25 H     0.000997 -0.036941  0.025910
    26 Sn   -0.306051  0.252674  0.307490
    27 Cl   -0.008378 -0.028258  0.062993
    28 Cl   -0.042022  0.013912 -0.029660
 ----------------------------------------
 Mulliken charges used for AMS results%charges...
 
----------------------------------------------------------------------
Geometry Convergence after Step   1       (Hartree/Angstrom,Angstrom)
----------------------------------------------------------------------
current energy                               -5.02102347 Hartree
energy change                      -5.02102347     0.00028000    F
constrained gradient max            0.30748014     0.00100000    F
constrained gradient rms            0.07274427     0.00066667    F
gradient max                        0.30748014
gradient rms                        0.07274427
cart. step max                      0.06753440     0.01000000    F
cart. step rms                      0.02425531     0.00666667    F
 
 
--------
Geometry
--------
Formula: C8H16Cl2OSn
Atoms
  Index Symbol   x (angstrom)   y (angstrom)   z (angstrom)
      1      H     0.86581555    -1.32992642     1.21266353
      2      C    -0.82568255     0.02884505     0.93654073
      3      C     0.37603605    -0.77057421     0.40829846
      4      C     1.40853920     0.09587551    -0.26128366
      5      O     2.43660347    -0.31372180    -0.73368263
      6      H    -1.19599118     0.67882322     0.13647888
      7      H     0.05365838    -1.50496334    -0.33730566
      8      H    -0.01844196     0.26378075     2.94294575
      9      C    -0.41449533     0.88557552     2.13940632
     10      H     0.35148700     1.60708155     1.85171702
     11      H    -1.27456263     1.43485313     2.52098472
     12      C    -2.30363797    -1.84287432     0.12555732
     13      C    -1.98710196    -0.93859434     1.32630373
     14      C    -3.21676362    -0.09330155     1.68766528
     15      C    -1.54873177    -1.78925245     2.52857956
     16      H    -1.30937398    -1.15535322     3.38221383
     17      H    -3.11972206    -2.52766240     0.36614100
     18      H    -1.43373213    -2.43603494    -0.15435288
     19      H    -2.60059803    -1.24148538    -0.73606986
     20      H    -4.05610052    -0.73511019     1.96402797
     21      H    -3.51831890     0.52253109     0.83804682
     22      H    -2.99838573     0.56536761     2.52834553
     23      H    -2.34652397    -2.47433915     2.82334357
     24      H    -0.66487180    -2.37854682     2.28098891
     25      H     1.16596328     1.14604701    -0.26703862
     26     Sn     3.67668216    -1.04376028    -1.74884072
     27     Cl     3.97694290    -0.66134036    -4.09521968
     28     Cl     5.63808669    -2.30504458    -1.21587578
 
Total System Charge             0.00000
 
 *** GOStep2 ***

 Energy gradients wrt nuclear displacements
 ==========================================

     Atom      Cartesian (a.u./angstrom)
                 X         Y         Z
 ----------------------------------------
     1 H    -0.001394  0.004625  0.000717
     2 C    -0.006044  0.016989 -0.017094
     3 C    -0.021260 -0.024246  0.018635
     4 C     0.198293 -0.053872 -0.095446
     5 O     0.076657 -0.114050 -0.214675
     6 H    -0.000984 -0.001964  0.003117
     7 H    -0.007316  0.003588  0.002629
     8 H    -0.005347 -0.005410 -0.000407
     9 C    -0.003613 -0.008958  0.012365
    10 H    -0.002722 -0.005437 -0.004310
    11 H    -0.006533 -0.006527 -0.002901
    12 C     0.010027 -0.001454 -0.008177
    13 C    -0.005074 -0.003305  0.005091
    14 C     0.000705  0.008150  0.000389
    15 C     0.009944  0.003198  0.002113
    16 H     0.003462  0.006521 -0.005145
    17 H     0.002322  0.002315  0.002141
    18 H     0.008316  0.009343  0.002121
    19 H     0.002272  0.000589  0.005313
    20 H     0.003696 -0.000396 -0.000762
    21 H     0.004164 -0.002895  0.001706
    22 H     0.008533  0.000564 -0.001980
    23 H     0.000445  0.002980 -0.001772
    24 H     0.000619  0.006131 -0.004650
    25 H     0.001005 -0.027466  0.024408
    26 Sn   -0.223572  0.203290  0.248114
    27 Cl   -0.006857 -0.024965  0.054848
    28 Cl   -0.039745  0.012664 -0.026389
 ----------------------------------------
 Mulliken charges used for AMS results%charges...

 dE(predicted):    -0.39045E-01, dE(actual):    -0.41793E-01, Trust radius:    0.400000, all in a.u.
 
----------------------------------------------------------------------
Geometry Convergence after Step   2       (Hartree/Angstrom,Angstrom)
----------------------------------------------------------------------
current energy                               -5.06281659 Hartree
energy change                      -0.04179313     0.00028000    F
constrained gradient max            0.24812539     0.00100000    F
constrained gradient rms            0.05774584     0.00066667    F
gradient max                        0.24812539
gradient rms                        0.05774584
cart. step max                      0.11279989     0.01000000    F
cart. step rms                      0.03525835     0.00666667    F
 
 
--------
Geometry
--------
Formula: C8H16Cl2OSn
Atoms
  Index Symbol   x (angstrom)   y (angstrom)   z (angstrom)
      1      H     0.89767709    -1.28127289     1.24510475
      2      C    -0.82362531     0.04294525     0.95458977
      3      C     0.40330123    -0.73332773     0.43382529
      4      C     1.42652245     0.14096998    -0.23257288
      5      O     2.49687370    -0.26968446    -0.66147640
      6      H    -1.20129709     0.68568542     0.15008491
      7      H     0.10697967    -1.47965187    -0.31398498
      8      H     0.00002521     0.30992104     2.96021467
      9      C    -0.40907046     0.91818893     2.15224919
     10      H     0.35212584     1.64549279     1.85802923
     11      H    -1.26117091     1.47324749     2.54379354
     12      C    -2.30132520    -1.85178964     0.12079061
     13      C    -2.00038697    -0.94835564     1.33255427
     14      C    -3.24777925    -0.11370188     1.67890025
     15      C    -1.58438510    -1.81217457     2.54072287
     16      H    -1.36312947    -1.19418344     3.41158487
     17      H    -3.12044809    -2.53903576     0.34982404
     18      H    -1.43437753    -2.45094901    -0.15896324
     19      H    -2.59220126    -1.25163470    -0.74674849
     20      H    -4.08689942    -0.76600111     1.93650805
     21      H    -3.54592361     0.50599873     0.82815112
     22      H    -3.06290050     0.54466507     2.52819972
     23      H    -2.38957740    -2.50042483     2.81217448
     24      H    -0.69625044    -2.40608443     2.31366390
     25      H     1.18967198     1.20659913    -0.27118511
     26     Sn     3.72004597    -1.10994166    -1.82300711
     27     Cl     3.94019565    -0.69086550    -4.20801958
     28     Cl     5.70410784    -2.38774001    -1.28442830
 
Total System Charge             0.00000
 
 *** GOStep3 ***

 Energy gradients wrt nuclear displacements
 ==========================================

     Atom      Cartesian (a.u./angstrom)
                 X         Y         Z
 ----------------------------------------
     1 H    -0.001388  0.003123  0.002365
     2 C    -0.000566  0.019461 -0.019131
     3 C    -0.008762 -0.019029  0.014952
     4 C     0.104265 -0.032472 -0.053973
     5 O     0.046636 -0.087265 -0.160106
     6 H    -0.001686 -0.000963  0.001542
     7 H    -0.005912  0.001882  0.000443
     8 H    -0.003937 -0.002760 -0.000573
     9 C     0.001324 -0.004520  0.012179
    10 H    -0.001143 -0.002620 -0.002649
    11 H    -0.003149 -0.004614 -0.001568
    12 C     0.008313 -0.004064 -0.006678
    13 C    -0.013829 -0.008455  0.004511
    14 C    -0.001231  0.006940  0.002528
    15 C     0.007454  0.000602  0.004761
    16 H     0.002722  0.003381 -0.003569
    17 H     0.001340  0.000755  0.001577
    18 H     0.005686  0.007026  0.000642
    19 H     0.001454  0.001078  0.002388
    20 H     0.001850 -0.000425  0.000123
    21 H     0.002639 -0.000982  0.000435
    22 H     0.004833  0.000462 -0.002056
    23 H    -0.000125  0.001610 -0.000749
    24 H     0.001113  0.004244 -0.002694
    25 H     0.000733 -0.009771  0.021631
    26 Sn   -0.115485  0.138668  0.166786
    27 Cl   -0.004514 -0.018197  0.034898
    28 Cl   -0.028636  0.006906 -0.018015
 ----------------------------------------
 Mulliken charges used for AMS results%charges...

 dE(predicted):    -0.56771E-01, dE(actual):    -0.59816E-01, Trust radius:    0.800000, all in a.u.
 
----------------------------------------------------------------------
Geometry Convergence after Step   3       (Hartree/Angstrom,Angstrom)
----------------------------------------------------------------------
current energy                               -5.12263222 Hartree
energy change                      -0.05981562     0.00028000    F
constrained gradient max            0.16681281     0.00100000    F
constrained gradient rms            0.03722976     0.00066667    F
gradient max                        0.16681281
gradient rms                        0.03722976
cart. step max                      0.18234625     0.01000000    F
cart. step rms                      0.06729129     0.00666667    F
 
 
--------
Geometry
--------
Formula: C8H16Cl2OSn
Atoms
  Index Symbol   x (angstrom)   y (angstrom)   z (angstrom)
      1      H     0.99142818    -1.21348655     1.32127202
      2      C    -0.79251607     0.02350217     0.98181743
      3      C     0.48865087    -0.69458345     0.49536532
      4      C     1.49369572     0.20224037    -0.15377543
      5      O     2.64194676    -0.19239671    -0.48927860
      6      H    -1.16310890     0.64785532     0.15822842
      7      H     0.26462535    -1.46631969    -0.25416627
      8      H    -0.01177067     0.37318763     3.00010054
      9      C    -0.42291894     0.94462856     2.16417898
     10      H     0.33107294     1.68248413     1.86963687
     11      H    -1.28422250     1.50510015     2.53174109
     12      C    -2.32688898    -1.88129822     0.13241966
     13      C    -2.00042735    -0.96964099     1.33554138
     14      C    -3.24891967    -0.11422018     1.63550468
     15      C    -1.66585561    -1.84518451     2.56405165
     16      H    -1.46539792    -1.24239841     3.45292769
     17      H    -3.18292967    -2.52230557     0.36655933
     18      H    -1.50101166    -2.54356025    -0.13507274
     19      H    -2.58697094    -1.29182999    -0.75459721
     20      H    -4.10520791    -0.75671418     1.86563688
     21      H    -3.51953365     0.50635240     0.77380000
     22      H    -3.09947022     0.54761122     2.49113571
     23      H    -2.50895429    -2.50327193     2.79788623
     24      H    -0.79473758    -2.48342614     2.38759538
     25      H     1.23250036     1.26383154    -0.31829543
     26     Sn     3.70212745    -1.26046820    -1.94905554
     27     Cl     3.81009053    -0.63671540    -4.35380404
     28     Cl     5.84148298    -2.39207844    -1.46677456
 
Total System Charge             0.00000
 
 *** GOStep4 ***

 Energy gradients wrt nuclear displacements
 ==========================================

     Atom      Cartesian (a.u./angstrom)
                 X         Y         Z
 ----------------------------------------
     1 H    -0.000318  0.002897  0.002099
     2 C     0.006087  0.013778 -0.014347
     3 C     0.004149 -0.008232  0.002658
     4 C    -0.021037 -0.004890 -0.008806
     5 O     0.063480 -0.063689 -0.089244
     6 H    -0.001481 -0.000337  0.001027
     7 H    -0.000693  0.002473  0.000773
     8 H    -0.001857 -0.001237 -0.000016
     9 C     0.001820 -0.002517  0.006847
    10 H    -0.000229  0.000330 -0.000637
    11 H    -0.002331 -0.001121  0.000435
    12 C     0.000654 -0.004675 -0.001062
    13 C    -0.015381 -0.008851  0.003365
    14 C     0.000899  0.002336  0.000091
    15 C     0.001927 -0.000939  0.003654
    16 H     0.001494  0.001308 -0.000747
    17 H     0.000346 -0.000949  0.000510
    18 H    -0.000343  0.002318 -0.000473
    19 H    -0.000221  0.000926 -0.000254
    20 H    -0.000067 -0.000452  0.000742
    21 H     0.000505  0.000400 -0.000644
    22 H     0.002824  0.001486 -0.000490
    23 H    -0.000451  0.000098  0.000055
    24 H     0.000548  0.000949 -0.000182
    25 H     0.001853  0.006629  0.012741
    26 Sn   -0.034135  0.080337  0.086134
    27 Cl   -0.003518 -0.010003  0.001218
    28 Cl   -0.004524 -0.008371 -0.005448
 ----------------------------------------
 Mulliken charges used for AMS results%charges...

 dE(predicted):    -0.50364E-01, dE(actual):    -0.58879E-01, Trust radius:    1.000000, all in a.u.
 
----------------------------------------------------------------------
Geometry Convergence after Step   4       (Hartree/Angstrom,Angstrom)
----------------------------------------------------------------------
current energy                               -5.18151078 Hartree
energy change                      -0.05887857     0.00028000    F
constrained gradient max            0.08925784     0.00100000    F
constrained gradient rms            0.01984864     0.00066667    F
gradient max                        0.08925784
gradient rms                        0.01984864
cart. step max                      0.20833820     0.01000000    F
cart. step rms                      0.04850151     0.00666667    F
 
 
--------
Geometry
--------
Formula: C8H16Cl2OSn
Atoms
  Index Symbol   x (angstrom)   y (angstrom)   z (angstrom)
      1      H     0.99139723    -1.20791463     1.37716618
      2      C    -0.78401782     0.04027750     1.01933623
      3      C     0.49005967    -0.69567110     0.54607559
      4      C     1.49998264     0.17171700    -0.12757928
      5      O     2.64652818    -0.25086826    -0.43795456
      6      H    -1.14329232     0.65145540     0.18033624
      7      H     0.26042533    -1.48262591    -0.18822966
      8      H    -0.00285059     0.43906494     3.03098003
      9      C    -0.41164024     0.98882140     2.17861955
     10      H     0.35031300     1.71173740     1.86650668
     11      H    -1.26407675     1.57137391     2.53173017
     12      C    -2.26160339    -1.86283952     0.12563212
     13      C    -1.99206443    -0.95876867     1.34767536
     14      C    -3.27088450    -0.13447910     1.61083334
     15      C    -1.68994547    -1.84479791     2.57623171
     16      H    -1.53091025    -1.25494877     3.48258171
     17      H    -3.11924913    -2.51420268     0.32289010
     18      H    -1.41997763    -2.51744363    -0.11622267
     19      H    -2.49600095    -1.27191700    -0.76771461
     20      H    -4.11905507    -0.80165223     1.79711170
     21      H    -3.52655555     0.49082667     0.74777373
     22      H    -3.17921830     0.51791799     2.48178728
     23      H    -2.53318614    -2.51590139     2.76993001
     24      H    -0.80663911    -2.47377147     2.42491583
     25      H     1.24229866     1.21853966    -0.37877175
     26     Sn     3.55068375    -1.46880640    -2.02875998
     27     Cl     3.80177658    -0.52460976    -4.33394025
     28     Cl     5.83448120    -2.33361877    -1.58836135
 
Total System Charge             0.00000
 
 *** GOStep5 ***

 Energy gradients wrt nuclear displacements
 ==========================================

     Atom      Cartesian (a.u./angstrom)
                 X         Y         Z
 ----------------------------------------
     1 H    -0.000447  0.001749  0.002096
     2 C     0.007098  0.013108 -0.009607
     3 C     0.003399 -0.009910 -0.002249
     4 C    -0.043173  0.007614  0.001367
     5 O     0.057261 -0.052037 -0.054468
     6 H    -0.001056 -0.000588  0.000540
     7 H    -0.001994 -0.000917  0.000094
     8 H    -0.000684 -0.000474 -0.000220
     9 C     0.002490  0.000944  0.004402
    10 H    -0.000084  0.000824  0.000241
    11 H     0.000504  0.000052  0.000577
    12 C     0.003145 -0.000835 -0.000211
    13 C    -0.013653 -0.009271  0.003045
    14 C    -0.000365  0.001005  0.000504
    15 C     0.000457 -0.000595  0.002468
    16 H     0.000703  0.000068 -0.000045
    17 H     0.000241 -0.000724  0.000721
    18 H     0.002109  0.001658 -0.001112
    19 H    -0.000487  0.000561 -0.000631
    20 H    -0.000325 -0.000295  0.000671
    21 H    -0.000205  0.000315 -0.000674
    22 H     0.000011  0.000417 -0.000890
    23 H    -0.000441 -0.000092  0.000104
    24 H     0.000816  0.000035 -0.000193
    25 H     0.002323  0.006215  0.006607
    26 Sn   -0.027010  0.057580  0.064383
    27 Cl   -0.000092 -0.004484 -0.013906
    28 Cl    0.009458 -0.011924 -0.003615
 ----------------------------------------
 Mulliken charges used for AMS results%charges...
 Rebuilding optimization coordinates

 dE(predicted):    -0.24871E-01, dE(actual):    -0.19078E-01, Trust radius:    1.000000, all in a.u.
 
----------------------------------------------------------------------
Geometry Convergence after Step   5       (Hartree/Angstrom,Angstrom)
----------------------------------------------------------------------
current energy                               -5.20058912 Hartree
energy change                      -0.01907833     0.00028000    F
constrained gradient max            0.06438346     0.00100000    F
constrained gradient rms            0.01558375     0.00066667    F
gradient max                        0.06438346
gradient rms                        0.01558375
cart. step max                      0.19733780     0.01000000    F
cart. step rms                      0.04703295     0.00666667    F
 
 
--------
Geometry
--------
Formula: C8H16Cl2OSn
Atoms
  Index Symbol   x (angstrom)   y (angstrom)   z (angstrom)
      1      H     0.99719876    -1.23544860     1.37927000
      2      C    -0.77705057     0.01326344     1.00875283
      3      C     0.49384968    -0.73162968     0.54443893
      4      C     1.50455562     0.11763128    -0.14771134
      5      O     2.64284301    -0.31288538    -0.44393763
      6      H    -1.13131058     0.61543800     0.16079873
      7      H     0.26474166    -1.52899526    -0.17903136
      8      H     0.00555834     0.44438998     3.01323991
      9      C    -0.39999787     0.97938955     2.14937596
     10      H     0.36745360     1.69041285     1.82348459
     11      H    -1.24856865     1.57527024     2.49024918
     12      C    -2.30012031    -1.87500935     0.14765619
     13      C    -1.99542019    -0.96051803     1.35353570
     14      C    -3.25525776    -0.10795595     1.61646785
     15      C    -1.70491277    -1.83605579     2.59099608
     16      H    -1.52927917    -1.23826827     3.48949819
     17      H    -3.17477708    -2.49757260     0.36223114
     18      H    -1.48196510    -2.56038135    -0.09076232
     19      H    -2.52614373    -1.29284756    -0.75336363
     20      H    -4.11487848    -0.75653018     1.81503894
     21      H    -3.50566625     0.51340913     0.74917400
     22      H    -3.14561667     0.55112086     2.48081183
     23      H    -2.56111006    -2.48652107     2.79765199
     24      H    -0.83653369    -2.48673091     2.44427993
     25      H     1.24769980     1.15496865    -0.43580221
     26     Sn     3.48731574    -1.59152077    -2.09434438
     27     Cl     3.93395680    -0.32727196    -4.21366109
     28     Cl     5.86021450    -2.14225656    -1.60775854
 
Total System Charge             0.00000
 
 *** GOStep6 ***

 Energy gradients wrt nuclear displacements
 ==========================================

     Atom      Cartesian (a.u./angstrom)
                 X         Y         Z
 ----------------------------------------
     1 H    -0.000632  0.001380  0.001786
     2 C     0.007308  0.010307 -0.007264
     3 C     0.006719 -0.007170 -0.004082
     4 C    -0.039329  0.008842  0.001559
     5 O     0.043822 -0.039115 -0.034301
     6 H    -0.001044 -0.000445  0.000719
     7 H    -0.000691 -0.000760  0.000051
     8 H    -0.000368 -0.000596  0.000157
     9 C     0.001090 -0.000135  0.002619
    10 H    -0.000139  0.000653  0.000092
    11 H    -0.000312  0.000284  0.000733
    12 C     0.001629 -0.000434  0.000383
    13 C    -0.011459 -0.008082  0.002599
    14 C     0.001026  0.000613 -0.000451
    15 C     0.000054  0.000154  0.001230
    16 H     0.000577  0.000286  0.000361
    17 H     0.000224 -0.000761  0.000528
    18 H     0.000964  0.000782 -0.001072
    19 H    -0.000694  0.000266 -0.000531
    20 H    -0.000239 -0.000285  0.000621
    21 H    -0.000353  0.000180 -0.000529
    22 H     0.000273  0.000899 -0.000297
    23 H    -0.000403 -0.000073  0.000027
    24 H     0.000586 -0.000230 -0.000041
    25 H     0.002974  0.003859  0.003944
    26 Sn   -0.037135  0.034822  0.054371
    27 Cl    0.007301  0.002108 -0.018700
    28 Cl    0.018251 -0.007348 -0.004514
 ----------------------------------------
 Mulliken charges used for AMS results%charges...

 dE(predicted):    -0.26472E-01, dE(actual):    -0.95745E-02, Trust radius:    1.000000, all in a.u.
 
----------------------------------------------------------------------
Geometry Convergence after Step   6       (Hartree/Angstrom,Angstrom)
----------------------------------------------------------------------
current energy                               -5.21016357 Hartree
energy change                      -0.00957446     0.00028000    F
constrained gradient max            0.05436243     0.00100000    F
constrained gradient rms            0.01254375     0.00066667    F
gradient max                        0.05436243
gradient rms                        0.01254375
cart. step max                      0.21321029     0.01000000    F
cart. step rms                      0.04977863     0.00666667    F
 
 
--------
Geometry
--------
Formula: C8H16Cl2OSn
Atoms
  Index Symbol   x (angstrom)   y (angstrom)   z (angstrom)
      1      H     1.00408228    -1.25873827     1.37002114
      2      C    -0.77097780    -0.00937091     0.99526223
      3      C     0.49309662    -0.76527925     0.53381180
      4      C     1.50041905     0.06243782    -0.18686499
      5      O     2.63352259    -0.37172129    -0.46591899
      6      H    -1.12416300     0.58244485     0.13925167
      7      H     0.25792471    -1.57492595    -0.17427764
      8      H     0.02364211     0.45834023     2.98703464
      9      C    -0.38273624     0.97657095     2.11287710
     10      H     0.38909043     1.67388404     1.76803234
     11      H    -1.22487133     1.58719515     2.44394304
     12      C    -2.33886601    -1.87502614     0.16329995
     13      C    -1.99534209    -0.96137702     1.35914651
     14      C    -3.23727175    -0.08795043     1.63772694
     15      C    -1.70562484    -1.83668202     2.59577767
     16      H    -1.50934230    -1.23905844     3.49044964
     17      H    -3.23080147    -2.46759077     0.39102170
     18      H    -1.54643529    -2.59000495    -0.07661904
     19      H    -2.55590369    -1.29434463    -0.74069352
     20      H    -4.10495197    -0.72284323     1.84481316
     21      H    -3.48838985     0.53887010     0.77470935
     22      H    -3.10798651     0.56732685     2.50258152
     23      H    -2.57088921    -2.47076523     2.81501535
     24      H    -0.85149436    -2.50457954     2.44217256
     25      H     1.23746730     1.08425898    -0.52139682
     26     Sn     3.42670131    -1.71819935    -2.15500768
     27     Cl     4.06332473    -0.16693058    -4.02317412
     28     Cl     5.83355520    -1.92904628    -1.57241606
 
Total System Charge             0.00000
 
 *** GOStep7 ***

 Energy gradients wrt nuclear displacements
 ==========================================

     Atom      Cartesian (a.u./angstrom)
                 X         Y         Z
 ----------------------------------------
     1 H    -0.000709  0.000831  0.001464
     2 C     0.007274  0.007757 -0.004500
     3 C     0.008741 -0.004510 -0.005517
     4 C    -0.033712  0.008706  0.001528
     5 O     0.033771 -0.027151 -0.019055
     6 H    -0.000869 -0.000317  0.000838
     7 H     0.000655 -0.000867 -0.000133
     8 H    -0.000037 -0.000599  0.000330
     9 C    -0.000085 -0.000595  0.000934
    10 H    -0.000217  0.000609  0.000097
    11 H    -0.000709  0.000532  0.000842
    12 C     0.000620  0.000328  0.000875
    13 C    -0.009023 -0.007169  0.001793
    14 C     0.001984  0.000139 -0.001043
    15 C    -0.000422  0.000855  0.000235
    16 H     0.000372  0.000315  0.000653
    17 H     0.000145 -0.000677  0.000374
    18 H     0.000228  0.000060 -0.000924
    19 H    -0.000809  0.000037 -0.000433
    20 H    -0.000182 -0.000241  0.000569
    21 H    -0.000461  0.000017 -0.000379
    22 H     0.000306  0.001160  0.000122
    23 H    -0.000321 -0.000056 -0.000053
    24 H     0.000456 -0.000476  0.000015
    25 H     0.003330  0.001609  0.001489
    26 Sn   -0.051486  0.007354  0.042087
    27 Cl    0.017880  0.008849 -0.015626
    28 Cl    0.023279  0.003500 -0.006581
 ----------------------------------------
 Mulliken charges used for AMS results%charges...

 dE(predicted):    -0.11917E-01, dE(actual):    -0.39071E-02, Trust radius:    1.000000, all in a.u.
 
----------------------------------------------------------------------
Geometry Convergence after Step   7       (Hartree/Angstrom,Angstrom)
----------------------------------------------------------------------
current energy                               -5.21407071 Hartree
energy change                      -0.00390714     0.00028000    F
constrained gradient max            0.05149788     0.00100000    F
constrained gradient rms            0.01069400     0.00066667    F
gradient max                        0.05149788
gradient rms                        0.01069400
cart. step max                      0.21169471     0.01000000    F
cart. step rms                      0.04346632     0.00666667    F
 
 
--------
Geometry
--------
Formula: C8H16Cl2OSn
Atoms
  Index Symbol   x (angstrom)   y (angstrom)   z (angstrom)
      1      H     1.03563515    -1.23555741     1.38874709
      2      C    -0.76079572    -0.01189866     1.00431930
      3      C     0.50597968    -0.76377696     0.55201429
      4      C     1.49781506     0.04440320    -0.21314195
      5      O     2.62473053    -0.35533003    -0.45214707
      6      H    -1.10839581     0.56634673     0.13578673
      7      H     0.27396009    -1.59448210    -0.13274496
      8      H     0.03122616     0.51108866     2.98529653
      9      C    -0.37098563     1.00191338     2.09324725
     10      H     0.40829425     1.68097653     1.72877174
     11      H    -1.20808938     1.63055236     2.40090078
     12      C    -2.33504695    -1.84364164     0.14688955
     13      C    -1.97991441    -0.95883118     1.36100265
     14      C    -3.22429543    -0.09646646     1.66672421
     15      C    -1.69196118    -1.86637581     2.57338653
     16      H    -1.49532369    -1.29397722     3.48425998
     17      H    -3.25146808    -2.40627531     0.35145383
     18      H    -1.56616545    -2.58587673    -0.08862490
     19      H    -2.51664047    -1.24501433    -0.75283048
     20      H    -4.09387862    -0.73997235     1.83440363
     21      H    -3.46787312     0.56917080     0.83130035
     22      H    -3.10698807     0.51669078     2.56338707
     23      H    -2.55852973    -2.50395813     2.77634039
     24      H    -0.84059817    -2.53366551     2.40324467
     25      H     1.18332484     1.01453942    -0.64621794
     26     Sn     3.45157364    -1.78162654    -2.18270847
     27     Cl     3.89516235    -0.11675076    -4.00176000
     28     Cl     5.78602674    -1.91531004    -1.36072135
 
Total System Charge             0.00000
 
 *** GOStep8 ***

 Energy gradients wrt nuclear displacements
 ==========================================

     Atom      Cartesian (a.u./angstrom)
                 X         Y         Z
 ----------------------------------------
     1 H     0.000041 -0.000225  0.000264
     2 C     0.003967  0.003223  0.001706
     3 C     0.007696  0.001754 -0.008210
     4 C     0.016360 -0.009314 -0.001833
     5 O    -0.020690  0.000887 -0.000652
     6 H    -0.000263 -0.000337  0.000293
     7 H     0.002072 -0.001493  0.000106
     8 H     0.000638  0.000101  0.000017
     9 C     0.000141 -0.000307 -0.001879
    10 H    -0.000067  0.000700  0.000421
    11 H     0.000519  0.000436  0.000243
    12 C     0.000754  0.002097  0.001481
    13 C    -0.004082 -0.004374  0.000152
    14 C     0.001391 -0.000663 -0.000977
    15 C    -0.000992  0.001481 -0.000885
    16 H    -0.000308 -0.000427  0.000474
    17 H     0.000014 -0.000343  0.000160
    18 H    -0.000201 -0.000823 -0.000545
    19 H    -0.000722 -0.000185 -0.000203
    20 H    -0.000230 -0.000041  0.000368
    21 H    -0.000574 -0.000278 -0.000123
    22 H    -0.000916  0.000244 -0.000006
    23 H     0.000002 -0.000098 -0.000101
    24 H     0.000207 -0.000833  0.000126
    25 H     0.004777 -0.002663 -0.001345
    26 Sn   -0.039697 -0.002788  0.024619
    27 Cl    0.009010  0.013434 -0.017171
    28 Cl    0.021153  0.000837  0.003498
 ----------------------------------------
 Mulliken charges used for AMS results%charges...

 dE(predicted):    -0.49874E-02, dE(actual):    -0.62577E-02, Trust radius:    1.000000, all in a.u.
 
----------------------------------------------------------------------
Geometry Convergence after Step   8       (Hartree/Angstrom,Angstrom)
----------------------------------------------------------------------
current energy                               -5.22032843 Hartree
energy change                      -0.00625772     0.00028000    F
constrained gradient max            0.03970409     0.00100000    F
constrained gradient rms            0.00711392     0.00066667    F
gradient max                        0.03970409
gradient rms                        0.00711392
cart. step max                      0.21182635     0.01000000    F
cart. step rms                      0.04991431     0.00666667    F
 
 
--------
Geometry
--------
Formula: C8H16Cl2OSn
Atoms
  Index Symbol   x (angstrom)   y (angstrom)   z (angstrom)
      1      H     1.03284034    -1.25767032     1.37192154
      2      C    -0.76454475    -0.03242313     0.98275836
      3      C     0.48826240    -0.80612016     0.53404897
      4      C     1.46993451    -0.02608926    -0.28494526
      5      O     2.62761755    -0.37624745    -0.45452319
      6      H    -1.11083053     0.53547872     0.10595051
      7      H     0.23350155    -1.65305421    -0.12199730
      8      H     0.02609051     0.51866890     2.95786801
      9      C    -0.36182353     0.99572323     2.05198293
     10      H     0.43319465     1.64920079     1.67489237
     11      H    -1.18889248     1.64663240     2.33933795
     12      C    -2.37700130    -1.82323780     0.14833278
     13      C    -1.98315755    -0.95544790     1.36409753
     14      C    -3.20233909    -0.07315685     1.71558476
     15      C    -1.67057831    -1.87650580     2.56009451
     16      H    -1.43789846    -1.31211047     3.46745397
     17      H    -3.31158607    -2.35434002     0.35417160
     18      H    -1.63411397    -2.58994281    -0.09200203
     19      H    -2.53994319    -1.21507004    -0.74830597
     20      H    -4.08424977    -0.70046514     1.87862200
     21      H    -3.44257117     0.62361967     0.90501535
     22      H    -3.05358607     0.50871517     2.62825278
     23      H    -2.53802786    -2.50491343     2.78658516
     24      H    -0.83298642    -2.55188511     2.35894807
     25      H     1.12160788     0.91466090    -0.76357645
     26     Sn     3.57449089    -1.80701691    -2.21465030
     27     Cl     3.84876079    -0.00073883    -3.90644419
     28     Cl     5.79460806    -1.78936944    -1.14889500
 
Total System Charge             0.00000
 
 *** GOStep9 ***

 Energy gradients wrt nuclear displacements
 ==========================================

     Atom      Cartesian (a.u./angstrom)
                 X         Y         Z
 ----------------------------------------
     1 H    -0.000292 -0.001138  0.000764
     2 C     0.002173 -0.000587  0.002605
     3 C     0.001138  0.002982 -0.000947
     4 C     0.008034 -0.013536 -0.013106
     5 O    -0.006290  0.005433  0.003948
     6 H    -0.000351 -0.000219 -0.000563
     7 H     0.002656 -0.000935  0.000092
     8 H     0.000564  0.000147  0.000337
     9 C    -0.002236 -0.001485 -0.001335
    10 H    -0.000034  0.000276 -0.000193
    11 H     0.000244  0.000242  0.000329
    12 C     0.002220  0.001918 -0.000189
    13 C    -0.001944 -0.002026  0.000216
    14 C     0.001285  0.001060 -0.000151
    15 C     0.000541  0.001790 -0.001069
    16 H    -0.000161 -0.000224  0.000349
    17 H     0.000032  0.000087  0.000075
    18 H    -0.000142 -0.000883 -0.000305
    19 H    -0.000266 -0.000281 -0.000139
    20 H     0.000030  0.000076  0.000208
    21 H    -0.000381 -0.000151  0.000053
    22 H    -0.000696  0.000321  0.000239
    23 H     0.000137 -0.000090 -0.000126
    24 H     0.000296 -0.000527  0.000169
    25 H     0.003470  0.002200  0.002478
    26 Sn   -0.027593 -0.009066  0.011435
    27 Cl    0.003105  0.013628 -0.013294
    28 Cl    0.014461  0.000986  0.008121
 ----------------------------------------
 Mulliken charges used for AMS results%charges...

 dE(predicted):    -0.22009E-02, dE(actual):    -0.27938E-02, Trust radius:    1.000000, all in a.u.
 
----------------------------------------------------------------------
Geometry Convergence after Step   9       (Hartree/Angstrom,Angstrom)
----------------------------------------------------------------------
current energy                               -5.22312223 Hartree
energy change                      -0.00279380     0.00028000    F
constrained gradient max            0.02760403     0.00100000    F
constrained gradient rms            0.00514020     0.00066667    F
gradient max                        0.02760403
gradient rms                        0.00514020
cart. step max                      0.20254381     0.01000000    F
cart. step rms                      0.04837151     0.00666667    F
 
 
--------
Geometry
--------
Formula: C8H16Cl2OSn
Atoms
  Index Symbol   x (angstrom)   y (angstrom)   z (angstrom)
      1      H     1.03286725    -1.28215699     1.38041797
      2      C    -0.75891764    -0.05116288     0.97101479
      3      C     0.48390322    -0.84828665     0.53733095
      4      C     1.46543434    -0.08407535    -0.30776750
      5      O     2.64099377    -0.39565815    -0.43621855
      6      H    -1.09075207     0.51438701     0.08703541
      7      H     0.20828443    -1.70386889    -0.09872962
      8      H     0.01906964     0.50863272     2.94850784
      9      C    -0.33876786     0.98224201     2.02880400
     10      H     0.48248741     1.60244010     1.65236017
     11      H    -1.15092594     1.66181178     2.29065992
     12      C    -2.41950480    -1.80088443     0.14900826
     13      C    -1.98735773    -0.94731122     1.36274467
     14      C    -3.18536708    -0.04791386     1.74212719
     15      C    -1.67800936    -1.88512024     2.54703150
     16      H    -1.41487882    -1.33049152     3.45196352
     17      H    -3.36892369    -2.30338768     0.35819966
     18      H    -1.69901724    -2.58710202    -0.09479555
     19      H    -2.56587773    -1.18521433    -0.74512285
     20      H    -4.08101475    -0.65846108     1.89235692
     21      H    -3.41055812     0.67652215     0.95183024
     22      H    -3.01474843     0.50407780     2.66911106
     23      H    -2.55596745    -2.49403768     2.78604566
     24      H    -0.85995175    -2.57688114     2.32565862
     25      H     1.04431586     0.76514036    -0.89163854
     26     Sn     3.72510358    -1.79153223    -2.20008008
     27     Cl     3.72853250     0.03201272    -3.85883545
     28     Cl     5.86632707    -1.58682563    -1.04844076
 
Total System Charge             0.00000
 
 *** GOStep10 ***

 Energy gradients wrt nuclear displacements
 ==========================================

     Atom      Cartesian (a.u./angstrom)
                 X         Y         Z
 ----------------------------------------
     1 H     0.000945 -0.000075 -0.000353
     2 C    -0.001050 -0.002534  0.000962
     3 C    -0.005742  0.000052 -0.002908
     4 C     0.013600  0.000793 -0.001044
     5 O     0.003477  0.001286 -0.001334
     6 H     0.000254  0.000182 -0.000587
     7 H     0.000268 -0.001715  0.001669
     8 H     0.000281  0.000001  0.000249
     9 C    -0.001045 -0.001562 -0.001185
    10 H     0.000009 -0.000060 -0.000198
    11 H     0.000119 -0.000331 -0.000077
    12 C     0.000289  0.000665  0.000118
    13 C     0.002979  0.001851 -0.000729
    14 C     0.000011 -0.000030  0.000208
    15 C     0.000143  0.000764 -0.001118
    16 H    -0.000123  0.000170 -0.000161
    17 H    -0.000331  0.000124 -0.000216
    18 H    -0.000150 -0.000199  0.000547
    19 H     0.000231 -0.000093  0.000236
    20 H    -0.000098 -0.000036  0.000001
    21 H     0.000125 -0.000224  0.000049
    22 H    -0.000032 -0.000364  0.000010
    23 H     0.000076 -0.000299  0.000062
    24 H     0.000011  0.000133 -0.000029
    25 H    -0.004532 -0.000744  0.000760
    26 Sn   -0.013373 -0.005431  0.005477
    27 Cl   -0.002180  0.008003 -0.007964
    28 Cl    0.005837 -0.000328  0.007554
 ----------------------------------------
 Mulliken charges used for AMS results%charges...

 dE(predicted):    -0.12155E-02, dE(actual):    -0.14883E-02, Trust radius:    1.000000, all in a.u.
 
----------------------------------------------------------------------
Geometry Convergence after Step  10       (Hartree/Angstrom,Angstrom)
----------------------------------------------------------------------
current energy                               -5.22461058 Hartree
energy change                      -0.00148834     0.00028000    F
constrained gradient max            0.01359823     0.00100000    F
constrained gradient rms            0.00301653     0.00066667    F
gradient max                        0.01359823
gradient rms                        0.00301653
cart. step max                      0.20621786     0.01000000    F
cart. step rms                      0.04863382     0.00666667    F
 
 
--------
Geometry
--------
Formula: C8H16Cl2OSn
Atoms
  Index Symbol   x (angstrom)   y (angstrom)   z (angstrom)
      1      H     1.01579528    -1.33310772     1.35815170
      2      C    -0.76014533    -0.07611116     0.95495144
      3      C     0.46090417    -0.90532436     0.51659812
      4      C     1.43855431    -0.16766038    -0.36054649
      5      O     2.62327048    -0.45310535    -0.43679913
      6      H    -1.08904136     0.48673662     0.06836369
      7      H     0.15439209    -1.76179292    -0.10377657
      8      H     0.04144771     0.49197058     2.92083070
      9      C    -0.30389462     0.96189472     1.99475913
     10      H     0.53497733     1.54982726     1.60598008
     11      H    -1.09469018     1.66963952     2.24732130
     12      C    -2.47108508    -1.79126216     0.16806210
     13      C    -2.00044333    -0.94213036     1.37136539
     14      C    -3.17369235    -0.01745941     1.76742606
     15      C    -1.69480435    -1.88450234     2.55398581
     16      H    -1.40001809    -1.33342353     3.45126293
     17      H    -3.42714917    -2.27345755     0.39342098
     18      H    -1.76899930    -2.59143916    -0.08348565
     19      H    -2.61718712    -1.17533820    -0.72595123
     20      H    -4.08171067    -0.60762624     1.92382846
     21      H    -3.38929818     0.71673675     0.98342118
     22      H    -2.97846436     0.52502003     2.69506137
     23      H    -2.58423047    -2.46862270     2.81158484
     24      H    -0.89942416    -2.59773307     2.31986817
     25      H     1.00392072     0.65197527    -0.97701984
     26     Sn     3.88706274    -1.72607898    -2.19970143
     27     Cl     3.74418273     0.11987728    -3.80061822
     28     Cl     5.94654916    -1.38060777    -0.96776548
 
Total System Charge             0.00000
 
 *** GOStep11 ***

 Energy gradients wrt nuclear displacements
 ==========================================

     Atom      Cartesian (a.u./angstrom)
                 X         Y         Z
 ----------------------------------------
     1 H     0.000644 -0.000023  0.000086
     2 C    -0.002089 -0.002911  0.000264
     3 C    -0.005168 -0.001094  0.000644
     4 C     0.016638 -0.000923 -0.011047
     5 O     0.000305  0.003268  0.002748
     6 H     0.000688  0.000304 -0.000509
     7 H     0.000102 -0.001229  0.001351
     8 H     0.000058 -0.000042  0.000018
     9 C    -0.000306 -0.000730 -0.000697
    10 H     0.000128 -0.000100 -0.000170
    11 H     0.000228 -0.000364 -0.000205
    12 C    -0.000631 -0.000002  0.000167
    13 C     0.004926  0.003187 -0.000873
    14 C    -0.000803 -0.000590  0.000455
    15 C    -0.000261 -0.000193 -0.000696
    16 H    -0.000119  0.000220 -0.000324
    17 H    -0.000366  0.000183 -0.000316
    18 H     0.000150  0.000129  0.000731
    19 H     0.000485 -0.000018  0.000262
    20 H    -0.000087 -0.000057 -0.000156
    21 H     0.000296 -0.000141  0.000021
    22 H     0.000143 -0.000667 -0.000164
    23 H     0.000037 -0.000309  0.000149
    24 H    -0.000143  0.000421 -0.000074
    25 H    -0.006108  0.001649  0.003912
    26 Sn   -0.005561 -0.001050  0.002973
    27 Cl   -0.003589  0.002988 -0.003870
    28 Cl    0.000402 -0.001907  0.005320
 ----------------------------------------
 Mulliken charges used for AMS results%charges...

 dE(predicted):    -0.10542E-02, dE(actual):    -0.11144E-02, Trust radius:    1.000000, all in a.u.
 
----------------------------------------------------------------------
Geometry Convergence after Step  11       (Hartree/Angstrom,Angstrom)
----------------------------------------------------------------------
current energy                               -5.22572499 Hartree
energy change                      -0.00111441     0.00028000    F
constrained gradient max            0.01663528     0.00100000    F
constrained gradient rms            0.00282426     0.00066667    F
gradient max                        0.01663528
gradient rms                        0.00282426
cart. step max                      0.19938875     0.01000000    F
cart. step rms                      0.04288944     0.00666667    F
 
 
--------
Geometry
--------
Formula: C8H16Cl2OSn
Atoms
  Index Symbol   x (angstrom)   y (angstrom)   z (angstrom)
      1      H     0.99799345    -1.38406541     1.33886697
      2      C    -0.76042796    -0.10026785     0.94086117
      3      C     0.44181857    -0.95691645     0.49854551
      4      C     1.42057713    -0.24196061    -0.39803399
      5      O     2.61047075    -0.51019315    -0.43679812
      6      H    -1.08729236     0.46158826     0.05311467
      7      H     0.11023379    -1.81047564    -0.11270339
      8      H     0.06001345     0.47007503     2.89867948
      9      C    -0.27594416     0.93847339     1.96857714
     10      H     0.57555687     1.50198186     1.57157227
     11      H    -1.04978155     1.66689865     2.21530446
     12      C    -2.51581815    -1.78403275     0.18439257
     13      C    -2.01254456    -0.93856915     1.37777086
     14      C    -3.16006446     0.01368155     1.78447772
     15      C    -1.71067997    -1.88158922     2.56171237
     16      H    -1.38791775    -1.33252363     3.45057926
     17      H    -3.47585164    -2.25000501     0.42577103
     18      H    -1.82981325    -2.59539870    -0.07537830
     19      H    -2.66483545    -1.16831594    -0.70935831
     20      H    -4.07966109    -0.55486060     1.95220546
     21      H    -3.36695278     0.75146394     1.00140846
     22      H    -2.94087103     0.55350734     2.70834983
     23      H    -2.61000173    -2.44189399     2.83695124
     24      H    -0.93660895    -2.61497585     2.31909105
     25      H     0.97730140     0.54552768    -1.04939995
     26     Sn     4.01777625    -1.65962419    -2.19026520
     27     Cl     3.76039507     0.19058414    -3.75132860
     28     Cl     6.00970870    -1.18121902    -0.91438621
 
Total System Charge             0.00000
 
 *** GOStep12 ***

 Energy gradients wrt nuclear displacements
 ==========================================

     Atom      Cartesian (a.u./angstrom)
                 X         Y         Z
 ----------------------------------------
     1 H     0.000540  0.000211  0.000175
     2 C    -0.002587 -0.003079 -0.000473
     3 C    -0.004565 -0.002478  0.001823
     4 C     0.018290 -0.000115 -0.014669
     5 O    -0.001083  0.003705  0.004241
     6 H     0.000716  0.000320 -0.000347
     7 H     0.000010 -0.000946  0.001166
     8 H    -0.000121 -0.000094 -0.000066
     9 C    -0.000152 -0.000277 -0.000026
    10 H     0.000123 -0.000158 -0.000122
    11 H     0.000040 -0.000302 -0.000150
    12 C    -0.000990 -0.000620 -0.000201
    13 C     0.004913  0.003401 -0.000741
    14 C    -0.000978 -0.000393  0.000577
    15 C    -0.000091 -0.000725 -0.000211
    16 H    -0.000028  0.000242 -0.000307
    17 H    -0.000227  0.000254 -0.000330
    18 H     0.000277  0.000259  0.000647
    19 H     0.000594 -0.000021  0.000153
    20 H     0.000027 -0.000026 -0.000236
    21 H     0.000348 -0.000013  0.000023
    22 H     0.000344 -0.000555 -0.000154
    23 H     0.000040 -0.000203  0.000110
    24 H    -0.000148  0.000515 -0.000041
    25 H    -0.007541  0.002380  0.005157
    26 Sn   -0.001142  0.002905  0.001826
    27 Cl   -0.003530 -0.001023 -0.000785
    28 Cl   -0.003080 -0.003166  0.002962
 ----------------------------------------
 Mulliken charges used for AMS results%charges...

 dE(predicted):    -0.22516E-02, dE(actual):    -0.97862E-03, Trust radius:    1.000000, all in a.u.
 
----------------------------------------------------------------------
Geometry Convergence after Step  12       (Hartree/Angstrom,Angstrom)
----------------------------------------------------------------------
current energy                               -5.22670360 Hartree
energy change                      -0.00097862     0.00028000    F
constrained gradient max            0.01828889     0.00100000    F
constrained gradient rms            0.00312353     0.00066667    F
gradient max                        0.01828889
gradient rms                        0.00312353
cart. step max                      0.20542576     0.01000000    F
cart. step rms                      0.04332052     0.00666667    F
 
 
--------
Geometry
--------
Formula: C8H16Cl2OSn
Atoms
  Index Symbol   x (angstrom)   y (angstrom)   z (angstrom)
      1      H     0.97638834    -1.43988375     1.31840145
      2      C    -0.76018665    -0.12471182     0.92622072
      3      C     0.42135923    -1.01017511     0.47930789
      4      C     1.40365918    -0.31995202    -0.43309606
      5      O     2.59708321    -0.57434802    -0.44080588
      6      H    -1.08562226     0.43627869     0.03765409
      7      H     0.06401000    -1.85831612    -0.12473439
      8      H     0.08643437     0.44664589     2.87305345
      9      C    -0.24392513     0.91349981     1.94032271
     10      H     0.61788313     1.45273658     1.53236734
     11      H    -0.99939819     1.66203642     2.18414381
     12      C    -2.56044358    -1.77716604     0.20282004
     13      C    -2.02454441    -0.93456644     1.38434027
     14      C    -3.14703770     0.04396481     1.79887755
     15      C    -1.72730884    -1.87653715     2.57094933
     16      H    -1.37809571    -1.32934377     3.45094272
     17      H    -3.52292630    -2.22791871     0.46231353
     18      H    -1.89056945    -2.59907634    -0.06566777
     19      H    -2.71511864    -1.16236721    -0.69068788
     20      H    -4.07637808    -0.50401270     1.98052000
     21      H    -3.34739784     0.78185952     1.01415858
     22      H    -2.90510751     0.58426335     2.71681756
     23      H    -2.63578609    -2.41280514     2.86325965
     24      H    -0.97466062    -2.62976678     2.32190233
     25      H     0.95990153     0.44114990    -1.11431278
     26     Sn     4.13790193    -1.58603744    -2.17591176
     27     Cl     3.78767749     0.26723754    -3.69735973
     28     Cl     6.05898718    -0.97579326    -0.86521729
 
Total System Charge             0.00000
 
 *** GOStep13 ***

 Energy gradients wrt nuclear displacements
 ==========================================

     Atom      Cartesian (a.u./angstrom)
                 X         Y         Z
 ----------------------------------------
     1 H     0.000386  0.000487  0.000231
     2 C    -0.002812 -0.003003 -0.000929
     3 C    -0.003696 -0.003166  0.002980
     4 C     0.018010 -0.000758 -0.016928
     5 O    -0.001752  0.004528  0.004832
     6 H     0.000680  0.000337 -0.000143
     7 H     0.000021 -0.000590  0.000816
     8 H    -0.000239 -0.000112 -0.000147
     9 C     0.000326  0.000215  0.000417
    10 H     0.000140 -0.000157 -0.000053
    11 H    -0.000022 -0.000238 -0.000141
    12 C    -0.001369 -0.001018 -0.000296
    13 C     0.004503  0.003435 -0.000710
    14 C    -0.001263 -0.000487  0.000609
    15 C    -0.000069 -0.001086  0.000194
    16 H     0.000019  0.000219 -0.000274
    17 H    -0.000142  0.000276 -0.000308
    18 H     0.000368  0.000339  0.000545
    19 H     0.000620 -0.000008  0.000063
    20 H     0.000045 -0.000009 -0.000271
    21 H     0.000349  0.000059  0.000014
    22 H     0.000413 -0.000502 -0.000171
    23 H     0.000018 -0.000104  0.000069
    24 H    -0.000115  0.000546 -0.000049
    25 H    -0.007921  0.003066  0.005971
    26 Sn    0.001597  0.006277  0.001321
    27 Cl   -0.002586 -0.004307  0.001904
    28 Cl   -0.005509 -0.004237  0.000454
 ----------------------------------------
 Mulliken charges used for AMS results%charges...

 dE(predicted):    -0.33725E-02, dE(actual):    -0.10830E-02, Trust radius:    1.000000, all in a.u.
 
----------------------------------------------------------------------
Geometry Convergence after Step  13       (Hartree/Angstrom,Angstrom)
----------------------------------------------------------------------
current energy                               -5.22778661 Hartree
energy change                      -0.00108301     0.00028000    F
constrained gradient max            0.01800860     0.00100000    F
constrained gradient rms            0.00341814     0.00066667    F
gradient max                        0.01800860
gradient rms                        0.00341814
cart. step max                      0.21094877     0.01000000    F
cart. step rms                      0.04307377     0.00666667    F
 
 
--------
Geometry
--------
Formula: C8H16Cl2OSn
Atoms
  Index Symbol   x (angstrom)   y (angstrom)   z (angstrom)
      1      H     0.95368497    -1.49822182     1.29960337
      2      C    -0.75861145    -0.15016965     0.91176102
      3      C     0.40152621    -1.06460554     0.46122369
      4      C     1.38786921    -0.39936017    -0.46425544
      5      O     2.58400751    -0.64159988    -0.44683457
      6      H    -1.08244869     0.40985473     0.02223701
      7      H     0.01922334    -1.90616311    -0.13653248
      8      H     0.11396616     0.42103557     2.84770141
      9      C    -0.21240838     0.88644252     1.91295412
     10      H     0.65770031     1.40344396     1.49432932
     11      H    -0.95046471     1.65291370     2.15487717
     12      C    -2.60268910    -1.77006773     0.22074728
     13      C    -2.03526294    -0.93109849     1.39027960
     14      C    -3.13079793     0.07548667     1.81001760
     15      C    -1.74403712    -1.87087630     2.58065490
     16      H    -1.36956660    -1.32576014     3.45152197
     17      H    -3.56744505    -2.20506374     0.49788347
     18      H    -1.94989389    -2.60291581    -0.05594240
     19      H    -2.76255828    -1.15609188    -0.67251559
     20      H    -4.06972541    -0.45030764     2.00714866
     21      H    -3.32429074     0.81145503     1.02171143
     22      H    -2.86586571     0.61795801     2.72037216
     23      H    -2.66127282    -2.38243111     2.88928683
     24      H    -1.01330916    -2.64401907     2.32725063
     25      H     0.94737921     0.33605199    -1.17446904
     26     Sn     4.24656913    -1.50689014    -2.15613308
     27     Cl     3.81298568     0.34273925    -3.64557384
     28     Cl     6.09251486    -0.76484449    -0.81872575
 
Total System Charge             0.00000
 
 *** GOStep14 ***

 Energy gradients wrt nuclear displacements
 ==========================================

     Atom      Cartesian (a.u./angstrom)
                 X         Y         Z
 ----------------------------------------
     1 H     0.000216  0.000714  0.000267
     2 C    -0.002680 -0.002594 -0.001482
     3 C    -0.002707 -0.003759  0.003638
     4 C     0.016176 -0.001612 -0.017191
     5 O    -0.001879  0.005161  0.004506
     6 H     0.000541  0.000349  0.000032
     7 H     0.000126 -0.000302  0.000407
     8 H    -0.000324 -0.000110 -0.000182
     9 C     0.000546  0.000612  0.000886
    10 H     0.000116 -0.000158 -0.000014
    11 H    -0.000159 -0.000119 -0.000062
    12 C    -0.001474 -0.001306 -0.000450
    13 C     0.003554  0.002919 -0.000509
    14 C    -0.001196 -0.000283  0.000581
    15 C     0.000042 -0.001350  0.000595
    16 H     0.000067  0.000175 -0.000203
    17 H    -0.000028  0.000288 -0.000259
    18 H     0.000370  0.000351  0.000374
    19 H     0.000592  0.000003 -0.000054
    20 H     0.000107 -0.000001 -0.000281
    21 H     0.000314  0.000145  0.000004
    22 H     0.000475 -0.000328 -0.000134
    23 H     0.000017 -0.000019  0.000013
    24 H    -0.000066  0.000507 -0.000031
    25 H    -0.007614  0.003482  0.006109
    26 Sn    0.003123  0.009317  0.001300
    27 Cl   -0.001127 -0.006940  0.004105
    28 Cl   -0.007126 -0.005141 -0.001967
 ----------------------------------------
 Mulliken charges used for AMS results%charges...

 dE(predicted):    -0.34380E-02, dE(actual):    -0.11119E-02, Trust radius:    1.000000, all in a.u.
 
----------------------------------------------------------------------
Geometry Convergence after Step  14       (Hartree/Angstrom,Angstrom)
----------------------------------------------------------------------
current energy                               -5.22889856 Hartree
energy change                      -0.00111194     0.00028000    F
constrained gradient max            0.01719844     0.00100000    F
constrained gradient rms            0.00353286     0.00066667    F
gradient max                        0.01719844
gradient rms                        0.00353286
cart. step max                      0.21516651     0.01000000    F
cart. step rms                      0.04374366     0.00666667    F
 
 
--------
Geometry
--------
Formula: C8H16Cl2OSn
Atoms
  Index Symbol   x (angstrom)   y (angstrom)   z (angstrom)
      1      H     0.93027247    -1.55993288     1.28195902
      2      C    -0.75472809    -0.17641779     0.89745360
      3      C     0.38224383    -1.12090992     0.44421393
      4      C     1.37318788    -0.48253502    -0.49326259
      5      O     2.57140144    -0.71425610    -0.45433561
      6      H    -1.07592676     0.38246831     0.00647363
      7      H    -0.02600178    -1.95452676    -0.14726000
      8      H     0.14515428     0.39370345     2.82170940
      9      C    -0.17752617     0.85740755     1.88490002
     10      H     0.70046505     1.35116266     1.45512905
     11      H    -0.89700153     1.64208997     2.12469785
     12      C    -2.64194427    -1.76221640     0.23851152
     13      C    -2.04407587    -0.92682820     1.39537592
     14      C    -3.11280586     0.10717742     1.81761565
     15      C    -1.76057463    -1.86308470     2.59065812
     16      H    -1.36219503    -1.31999959     3.45214986
     17      H    -3.60902788    -2.18053497     0.53265662
     18      H    -2.00699275    -2.60661743    -0.04461381
     19      H    -2.80589927    -1.14972268    -0.65510835
     20      H    -4.06067582    -0.39639648     2.02952204
     21      H    -3.29905651     0.84012633     1.02472754
     22      H    -2.82651686     0.65214549     2.72003156
     23      H    -2.68623234    -2.34923452     2.91473704
     24      H    -1.05210289    -2.65606042     2.33511359
     25      H     0.93825976     0.22652560    -1.23238370
     26     Sn     4.34558980    -1.42155440    -2.13481545
     27     Cl     3.82651105     0.42459418    -3.58861448
     28     Cl     6.10297738    -0.54967798    -0.76666251
 
Total System Charge             0.00000
 
 *** GOStep15 ***

 Energy gradients wrt nuclear displacements
 ==========================================

     Atom      Cartesian (a.u./angstrom)
                 X         Y         Z
 ----------------------------------------
     1 H     0.000072  0.000849  0.000248
     2 C    -0.002388 -0.002166 -0.001819
     3 C    -0.001661 -0.003917  0.004108
     4 C     0.013388 -0.002511 -0.016242
     5 O    -0.001572  0.005664  0.003767
     6 H     0.000398  0.000327  0.000186
     7 H     0.000180 -0.000014  0.000010
     8 H    -0.000373 -0.000090 -0.000181
     9 C     0.000812  0.000930  0.001173
    10 H     0.000115 -0.000138  0.000005
    11 H    -0.000209 -0.000030 -0.000031
    12 C    -0.001552 -0.001412 -0.000476
    13 C     0.002600  0.002476 -0.000384
    14 C    -0.001187 -0.000260  0.000546
    15 C     0.000092 -0.001415  0.000901
    16 H     0.000090  0.000142 -0.000131
    17 H     0.000042  0.000267 -0.000207
    18 H     0.000344  0.000344  0.000231
    19 H     0.000526  0.000020 -0.000132
    20 H     0.000111 -0.000001 -0.000273
    21 H     0.000264  0.000191 -0.000009
    22 H     0.000450 -0.000216 -0.000106
    23 H     0.000002  0.000063 -0.000030
    24 H    -0.000032  0.000456 -0.000022
    25 H    -0.006973  0.003659  0.005821
    26 Sn    0.004030  0.011681  0.001281
    27 Cl    0.000567 -0.008968  0.005986
    28 Cl   -0.008136 -0.005932 -0.004220
 ----------------------------------------
 Mulliken charges used for AMS results%charges...

 dE(predicted):    -0.29341E-02, dE(actual):    -0.10711E-02, Trust radius:    1.000000, all in a.u.
 
----------------------------------------------------------------------
Geometry Convergence after Step  15       (Hartree/Angstrom,Angstrom)
----------------------------------------------------------------------
current energy                               -5.22996968 Hartree
energy change                      -0.00107113     0.00028000    F
constrained gradient max            0.01624881     0.00100000    F
constrained gradient rms            0.00355355     0.00066667    F
gradient max                        0.01624881
gradient rms                        0.00355355
cart. step max                      0.21267957     0.01000000    F
cart. step rms                      0.03468165     0.00666667    F
 
 
--------
Geometry
--------
Formula: C8H16Cl2OSn
Atoms
  Index Symbol   x (angstrom)   y (angstrom)   z (angstrom)
      1      H     0.92510637    -1.57378542     1.29220422
      2      C    -0.75390668    -0.18786877     0.89054154
      3      C     0.37909595    -1.14287756     0.44892950
      4      C     1.37243240    -0.52047930    -0.49559867
      5      O     2.56648483    -0.77661503    -0.47490488
      6      H    -1.07389225     0.36028081    -0.00749551
      7      H    -0.03262386    -1.98208112    -0.13214358
      8      H     0.15050422     0.40393636     2.80613451
      9      C    -0.17196241     0.85658889     1.86384413
     10      H     0.70703859     1.34197707     1.42667823
     11      H    -0.88843739     1.64674030     2.09451170
     12      C    -2.64784225    -1.77595274     0.25462253
     13      C    -2.04631110    -0.92676301     1.39934333
     14      C    -3.11068233     0.11752820     1.80693137
     15      C    -1.76585966    -1.84696494     2.60765779
     16      H    -1.36497978    -1.29340332     3.46129065
     17      H    -3.61568225    -2.18749593     0.55583585
     18      H    -2.01599005    -2.62610276    -0.01810166
     19      H    -2.81157214    -1.17514296    -0.64695037
     20      H    -4.06019001    -0.37929259     2.02739180
     21      H    -3.29518301     0.83897491     1.00315585
     22      H    -2.82178012     0.67522411     2.70071421
     23      H    -2.69331630    -2.32477806     2.93893209
     24      H    -1.06073021    -2.64645190     2.36318820
     25      H     0.93890478     0.15932012    -1.26225738
     26     Sn     4.33759957    -1.35009439    -2.20794847
     27     Cl     3.86378206     0.63727374    -3.48201804
     28     Cl     6.10677166    -0.63480003    -0.76390951
 
Total System Charge             0.00000
 
 *** GOStep16 ***

 Energy gradients wrt nuclear displacements
 ==========================================

     Atom      Cartesian (a.u./angstrom)
                 X         Y         Z
 ----------------------------------------
     1 H     0.000251  0.000967 -0.000012
     2 C    -0.002126 -0.001738 -0.002011
     3 C    -0.002188 -0.006358  0.001122
     4 C     0.013308  0.005193 -0.006060
     5 O    -0.001519  0.003504 -0.000108
     6 H     0.000321  0.000324  0.000210
     7 H    -0.000477 -0.000456  0.000513
     8 H    -0.000354 -0.000090 -0.000162
     9 C     0.000923  0.000984  0.001099
    10 H     0.000057 -0.000158  0.000085
    11 H    -0.000228 -0.000032 -0.000015
    12 C    -0.001449 -0.001382 -0.000432
    13 C     0.002159  0.002073 -0.000405
    14 C    -0.001037 -0.000186  0.000507
    15 C     0.000114 -0.001341  0.000904
    16 H     0.000094  0.000122 -0.000097
    17 H     0.000051  0.000248 -0.000181
    18 H     0.000299  0.000342  0.000186
    19 H     0.000498 -0.000001 -0.000142
    20 H     0.000123 -0.000016 -0.000261
    21 H     0.000242  0.000184 -0.000015
    22 H     0.000421 -0.000170 -0.000084
    23 H     0.000007  0.000065 -0.000047
    24 H    -0.000016  0.000405 -0.000027
    25 H    -0.006500  0.000541  0.002640
    26 Sn    0.004062  0.011120  0.002664
    27 Cl    0.000649 -0.009040  0.004908
    28 Cl   -0.007684 -0.005104 -0.004781
 ----------------------------------------
 Mulliken charges used for AMS results%charges...

 dE(predicted):    -0.43317E-02, dE(actual):    -0.78151E-03, Trust radius:    1.000000, all in a.u.
 
----------------------------------------------------------------------
Geometry Convergence after Step  16       (Hartree/Angstrom,Angstrom)
----------------------------------------------------------------------
current energy                               -5.23075119 Hartree
energy change                      -0.00078151     0.00028000    F
constrained gradient max            0.01330702     0.00100000    F
constrained gradient rms            0.00298430     0.00066667    F
gradient max                        0.01330702
gradient rms                        0.00298430
cart. step max                      0.21690659     0.01000000    F
cart. step rms                      0.03893260     0.00666667    F
 
 
--------
Geometry
--------
Formula: C8H16Cl2OSn
Atoms
  Index Symbol   x (angstrom)   y (angstrom)   z (angstrom)
      1      H     0.89738421    -1.63759040     1.29894118
      2      C    -0.74774179    -0.21379887     0.88849615
      3      C     0.36755870    -1.19525069     0.45116609
      4      C     1.37510557    -0.59739985    -0.47980504
      5      O     2.57891296    -0.82867235    -0.46786170
      6      H    -1.06052385     0.33366274    -0.01223221
      7      H    -0.05851578    -2.02545705    -0.13235133
      8      H     0.17433262     0.36989812     2.79857610
      9      C    -0.14583395     0.82391162     1.85590963
     10      H     0.73825402     1.29573928     1.41428970
     11      H    -0.84821009     1.62645349     2.08742264
     12      C    -2.67811318    -1.77487872     0.26766284
     13      C    -2.06054350    -0.92655877     1.40276154
     14      C    -3.10156773     0.14720858     1.79252631
     15      C    -1.79938750    -1.83637537     2.62213493
     16      H    -1.38782785    -1.28249628     3.47053776
     17      H    -3.64927920    -2.17061798     0.58015677
     18      H    -2.06398594    -2.63803876    -0.00554627
     19      H    -2.84295103    -1.17845708    -0.63680436
     20      H    -4.06033496    -0.32648932     2.02492416
     21      H    -3.27534638     0.85549002     0.97473695
     22      H    -2.80327710     0.71852749     2.67477726
     23      H    -2.73747584    -2.28993178     2.95778265
     24      H    -1.11234813    -2.65563263     2.38911259
     25      H     0.99939305     0.10417309    -1.25413266
     26     Sn     4.37507265    -1.30127603    -2.20318483
     27     Cl     3.88584781     0.70864561    -3.46359055
     28     Cl     6.15818077    -0.41789344    -0.84582687
 
Total System Charge             0.00000
 
 *** GOStep17 ***

 Energy gradients wrt nuclear displacements
 ==========================================

     Atom      Cartesian (a.u./angstrom)
                 X         Y         Z
 ----------------------------------------
     1 H     0.000231  0.001458 -0.000211
     2 C     0.000868  0.000117 -0.001312
     3 C    -0.001890 -0.001313 -0.001701
     4 C    -0.008255 -0.014175  0.009544
     5 O     0.006134  0.013920 -0.011862
     6 H    -0.000481  0.000313  0.000289
     7 H     0.000439 -0.000229  0.000073
     8 H    -0.000132 -0.000017  0.000033
     9 C     0.000554  0.000699  0.000676
    10 H     0.000008  0.000076  0.000284
    11 H    -0.000094  0.000310  0.000099
    12 C    -0.000360 -0.000710  0.000108
    13 C    -0.003125 -0.000730  0.000360
    14 C     0.000321 -0.000015 -0.000140
    15 C     0.000400 -0.000328  0.000489
    16 H     0.000076 -0.000081  0.000221
    17 H     0.000078  0.000088  0.000044
    18 H    -0.000402 -0.000187 -0.000260
    19 H     0.000040  0.000015 -0.000335
    20 H     0.000009  0.000004 -0.000048
    21 H    -0.000032  0.000265 -0.000019
    22 H    -0.000104  0.000391  0.000143
    23 H     0.000005  0.000135 -0.000200
    24 H     0.000219 -0.000271  0.000118
    25 H     0.007501  0.002714  0.001116
    26 Sn   -0.002588 -0.000838  0.002171
    27 Cl    0.003107 -0.002020  0.003348
    28 Cl   -0.002527  0.000407 -0.003027
 ----------------------------------------
 Mulliken charges used for AMS results%charges...

 dE(predicted):    -0.86778E-02, dE(actual):    -0.48272E-03, Trust radius:    0.047046, all in a.u.
 
----------------------------------------------------------------------
Geometry Convergence after Step  17       (Hartree/Angstrom,Angstrom)
----------------------------------------------------------------------
current energy                               -5.23123391 Hartree
energy change                      -0.00048272     0.00028000    F
constrained gradient max            0.01418877     0.00100000    F
constrained gradient rms            0.00323216     0.00066667    F
gradient max                        0.01418877
gradient rms                        0.00323216
cart. step max                      0.03918480     0.01000000    F
cart. step rms                      0.00745484     0.00666667    F
 
 
--------
Geometry
--------
Formula: C8H16Cl2OSn
Atoms
  Index Symbol   x (angstrom)   y (angstrom)   z (angstrom)
      1      H     0.89709220    -1.63540673     1.29102497
      2      C    -0.74909903    -0.21197122     0.88486338
      3      C     0.36443322    -1.19293495     0.44482537
      4      C     1.36813208    -0.59450411    -0.49040221
      5      O     2.56907125    -0.83531519    -0.46874949
      6      H    -1.06480465     0.33461574    -0.01540254
      7      H    -0.06322825    -2.02350826    -0.13698274
      8      H     0.17884897     0.37402675     2.79109196
      9      C    -0.14507531     0.82671830     1.84907618
     10      H     0.73702353     1.29862128     1.40346280
     11      H    -0.84751244     1.62866029     2.08204406
     12      C    -2.67612094    -1.77506510     0.26914356
     13      C    -2.05773056    -0.92596866     1.40299924
     14      C    -3.10025360     0.14484942     1.79659552
     15      C    -1.79153022    -1.83508502     2.62151138
     16      H    -1.37866594    -1.27997090     3.46840213
     17      H    -3.64561118    -2.17358995     0.58333768
     18      H    -2.05975891    -2.63620310    -0.00529104
     19      H    -2.84433320    -1.17853425    -0.63450441
     20      H    -4.05710538    -0.33132612     2.03176607
     21      H    -3.27823622     0.85313709     0.97980479
     22      H    -2.79999085     0.71581401     2.67828731
     23      H    -2.72750800    -2.29081184     2.96023351
     24      H    -1.10344108    -2.65262847     2.38631448
     25      H     0.98289405     0.10372902    -1.26428517
     26     Sn     4.37689447    -1.29463044    -2.20095141
     27     Cl     3.88382001     0.72112424    -3.45099384
     28     Cl     6.14857459    -0.44694713    -0.80664208
 
Total System Charge             0.00000
 
 *** GOStep18 ***

 Energy gradients wrt nuclear displacements
 ==========================================

     Atom      Cartesian (a.u./angstrom)
                 X         Y         Z
 ----------------------------------------
     1 H     0.000165  0.001020  0.000224
     2 C     0.000791  0.000244 -0.001224
     3 C    -0.000696 -0.001964 -0.001272
     4 C    -0.005185 -0.009917  0.004633
     5 O     0.004125  0.010635 -0.007311
     6 H    -0.000315  0.000242  0.000283
     7 H     0.000495 -0.000284  0.000099
     8 H    -0.000155 -0.000029  0.000050
     9 C     0.000329  0.000501  0.000582
    10 H     0.000031 -0.000008  0.000122
    11 H    -0.000066  0.000157  0.000036
    12 C    -0.000181 -0.000461 -0.000093
    13 C    -0.001938 -0.000641  0.000191
    14 C     0.000284  0.000022 -0.000036
    15 C     0.000396 -0.000189  0.000422
    16 H     0.000032 -0.000047  0.000139
    17 H     0.000052  0.000098  0.000025
    18 H    -0.000191 -0.000119 -0.000132
    19 H     0.000043 -0.000010 -0.000211
    20 H     0.000013 -0.000015 -0.000062
    21 H    -0.000006  0.000153 -0.000001
    22 H    -0.000044  0.000214  0.000074
    23 H    -0.000016  0.000070 -0.000124
    24 H     0.000110 -0.000106  0.000040
    25 H     0.003746  0.002935  0.001320
    26 Sn   -0.001697  0.000478  0.002027
    27 Cl    0.002405 -0.002530  0.002864
    28 Cl   -0.002526 -0.000449 -0.002664
 ----------------------------------------
 Mulliken charges used for AMS results%charges...

 dE(predicted):    -0.35238E-03, dE(actual):    -0.37935E-03, Trust radius:    0.094092, all in a.u.
 
----------------------------------------------------------------------
Geometry Convergence after Step  18       (Hartree/Angstrom,Angstrom)
----------------------------------------------------------------------
current energy                               -5.23161325 Hartree
energy change                      -0.00037935     0.00028000    F
constrained gradient max            0.01061315     0.00100000    F
constrained gradient rms            0.00221395     0.00066667    F
gradient max                        0.01061315
gradient rms                        0.00221395
[...]
    10     H      -0.491725  -0.197855   0.223549
    11     H       0.216161  -0.301760  -0.114060
    12     C      -0.002386  -0.000157  -0.006038
    13     C      -0.000578  -0.000068  -0.000020
    14     C      -0.006902   0.008370  -0.002301
    15     C      -0.002336  -0.013202   0.008494
    16     H      -0.062127  -0.051694  -0.109800
    17     H       0.051836   0.012836  -0.014203
    18     H      -0.025691   0.047963   0.017714
    19     H       0.002189  -0.058734   0.067130
    20     H       0.101577   0.034709  -0.017484
    21     H       0.000858  -0.110226   0.102630
    22     H      -0.025198  -0.023580  -0.056901
    23     H       0.182494   0.050664  -0.047758
    24     H      -0.095124   0.153914   0.058990
    25     H       0.001122  -0.004533   0.004791
    26    Sn       0.000002  -0.000000  -0.000000
    27    Cl      -0.000002  -0.000000  -0.000001
    28    Cl       0.000005   0.000001  -0.000007
 
 Mode:    76      Frequency (cm-1):     3064.3461     Intensity (km/mol):        0.0879
 Index  Atom      ---- Displacements (x/y/z) ----
     1     H      -0.008452   0.015138  -0.018108
     2     C      -0.000021   0.000057  -0.000150
     3     C       0.000860  -0.000988   0.001734
     4     C       0.000039  -0.000007   0.000014
     5     O       0.000005   0.000004  -0.000001
     6     H       0.000261  -0.002003   0.000757
     7     H      -0.003327  -0.002627  -0.003145
     8     H      -0.001050   0.002173  -0.001709
     9     C      -0.001393   0.000512   0.000935
    10     H       0.009784   0.004337  -0.004223
    11     H       0.009210  -0.012350  -0.004206
    12     C       0.041372   0.031596  -0.037515
    13     C      -0.000012  -0.000037   0.000028
    14     C      -0.040897  -0.040543   0.032566
    15     C      -0.000808   0.001622   0.001706
    16     H      -0.009132  -0.006028  -0.014099
    17     H      -0.515903  -0.116183   0.133936
    18     H       0.005017   0.021477  -0.005327
    19     H       0.020113  -0.281769   0.319539
    20     H       0.515203   0.164811  -0.073604
    21     H      -0.014843   0.334165  -0.314975
    22     H      -0.015376  -0.014843   0.000398
    23     H       0.007187   0.003562  -0.000798
    24     H       0.011593  -0.017318  -0.006181
    25     H      -0.000076   0.000089  -0.000142
    26    Sn      -0.000001  -0.000001  -0.000001
    27    Cl       0.000002   0.000001   0.000002
    28    Cl      -0.000001   0.000003   0.000001
 
 Mode:    77      Frequency (cm-1):     3066.3699     Intensity (km/mol):        0.7982
 Index  Atom      ---- Displacements (x/y/z) ----
     1     H      -0.070827   0.125738  -0.155331
     2     C       0.000319  -0.000807   0.001235
     3     C       0.008966  -0.007132   0.016659
     4     C       0.000761  -0.000800   0.001066
     5     O      -0.000149   0.000098  -0.000082
     6     H      -0.004131   0.011125  -0.012816
     7     H      -0.038830  -0.042454  -0.044329
     8     H      -0.014604   0.036378  -0.050348
     9     C      -0.004055  -0.005084   0.006230
    10     H       0.064387   0.024302  -0.026620
    11     H      -0.002212  -0.000301   0.001806
    12     C       0.037140  -0.017782  -0.014349
    13     C      -0.000255   0.000041  -0.000094
    14     C       0.015654   0.015393  -0.012824
    15     C      -0.071843   0.011930   0.011320
    16     H       0.067191   0.072694   0.160027
    17     H      -0.306944  -0.080915   0.082895
    18     H      -0.146062   0.286021   0.105628
    19     H       0.010061   0.006815  -0.016712
    20     H      -0.197313  -0.063566   0.029188
    21     H       0.006439  -0.126853   0.120037
    22     H       0.005639   0.005684   0.002413
    23     H       0.572799   0.173220  -0.151281
    24     H       0.217733  -0.387247  -0.144022
    25     H      -0.002256   0.008313  -0.009364
    26    Sn       0.000000  -0.000001  -0.000000
    27    Cl      -0.000001   0.000001   0.000001
    28    Cl      -0.000004   0.000001   0.000002
 
 Mode:    78      Frequency (cm-1):     3069.4015     Intensity (km/mol):       16.0067
 Index  Atom      ---- Displacements (x/y/z) ----
     1     H       0.046685  -0.081707   0.101376
     2     C      -0.000196  -0.000085   0.000432
     3     C      -0.005042   0.005635  -0.009607
     4     C      -0.000329   0.000360  -0.000811
     5     O       0.000021   0.000009   0.000119
     6     H      -0.001699  -0.002597   0.000960
     7     H       0.012144   0.013995   0.012275
     8     H      -0.061414   0.152889  -0.209244
     9     C      -0.016682  -0.021713   0.026213
    10     H       0.270287   0.103037  -0.112781
    11     H      -0.009898   0.001406   0.009324
    12     C      -0.015570   0.068013  -0.018430
    13     C      -0.000151   0.001526  -0.001080
    14     C       0.022371   0.020443  -0.012659
    15     C      -0.013280  -0.014226  -0.014691
    16     H       0.101893   0.081353   0.186821
    17     H      -0.075928   0.001681   0.014363
    18     H       0.257960  -0.476092  -0.190210
    19     H       0.008278  -0.337626   0.399795
    20     H      -0.265050  -0.084742   0.038551
    21     H       0.008253  -0.156894   0.146693
    22     H      -0.006882  -0.007129  -0.032697
    23     H       0.098699   0.024723  -0.030023
    24     H      -0.041464   0.058602   0.021548
    25     H       0.001381  -0.004949   0.006072
    26    Sn       0.000003   0.000002  -0.000003
    27    Cl       0.000003  -0.000000   0.000005
    28    Cl      -0.000004  -0.000005   0.000005
 
 Mode:    79      Frequency (cm-1):     3071.4661     Intensity (km/mol):       23.4807
 Index  Atom      ---- Displacements (x/y/z) ----
     1     H      -0.085961   0.152885  -0.190151
     2     C      -0.000376   0.003303  -0.003815
     3     C       0.011227  -0.007889   0.021676
     4     C       0.001290  -0.000298   0.000823
     5     O      -0.000398   0.000072  -0.000154
     6     H       0.008103  -0.034258   0.044248
     7     H      -0.058168  -0.066524  -0.068788
     8     H       0.116537  -0.285151   0.389765
     9     C       0.035628   0.035032  -0.051363
    10     H      -0.513033  -0.198158   0.214950
    11     H      -0.029351   0.064478   0.008184
    12     C      -0.014109   0.038231  -0.007153
    13     C      -0.000468   0.001109  -0.000199
    14     C       0.010819   0.009393  -0.003937
    15     C      -0.006149   0.018583   0.017325
    16     H      -0.077160  -0.057532  -0.133765
    17     H       0.008007   0.013753  -0.005296
    18     H       0.160017  -0.297324  -0.118085
    19     H       0.003109  -0.175081   0.208799
    20     H      -0.119825  -0.038785   0.018239
    21     H       0.004044  -0.065756   0.061591
    22     H      -0.011034  -0.011443  -0.033090
    23     H       0.038660   0.016799  -0.004802
    24     H       0.113005  -0.184548  -0.065722
    25     H      -0.001808   0.004906  -0.005983
    26    Sn      -0.000000   0.000004   0.000001
    27    Cl      -0.000004  -0.000003  -0.000004
    28    Cl       0.000015  -0.000008  -0.000013
 
 Mode:    80      Frequency (cm-1):     3073.6059     Intensity (km/mol):       78.9696
 Index  Atom      ---- Displacements (x/y/z) ----
     1     H       0.008006  -0.013485   0.016377
     2     C      -0.000741   0.000795  -0.001243
     3     C      -0.001298   0.000365  -0.002347
     4     C      -0.000422   0.000163  -0.000099
     5     O       0.000210  -0.000054  -0.000011
     6     H       0.002062  -0.014268   0.017338
     7     H       0.009922   0.012466   0.012885
     8     H       0.014793  -0.037341   0.052151
     9     C      -0.000185   0.006478  -0.004425
    10     H      -0.034810  -0.011732   0.014142
    11     H       0.020772  -0.028589  -0.013223
    12     C       0.052042  -0.004494  -0.028817
    13     C       0.002387   0.000813  -0.001439
    14     C       0.020678   0.025583  -0.035650
    15     C       0.048434   0.000179   0.000076
    16     H      -0.084388  -0.077849  -0.174823
    17     H      -0.505000  -0.125345   0.131165
    18     H      -0.139223   0.284489   0.101302
    19     H       0.016569  -0.106681   0.115143
    20     H      -0.324519  -0.100128   0.043273
    21     H       0.008987  -0.272906   0.252016
    22     H       0.063150   0.065967   0.131724
    23     H      -0.395311  -0.119345   0.108493
    24     H      -0.103747   0.191571   0.070782
    25     H       0.000395  -0.001666   0.001693
    26    Sn      -0.000006  -0.000002   0.000004
    27    Cl       0.000003  -0.000000  -0.000005
    28    Cl       0.000005   0.000004  -0.000002
 
 Mode:    81      Frequency (cm-1):     3077.7062     Intensity (km/mol):       19.0672
 Index  Atom      ---- Displacements (x/y/z) ----
     1     H       0.233807  -0.412713   0.508182
     2     C      -0.001023   0.003826  -0.005834
     3     C      -0.029553   0.023010  -0.055057
     4     C      -0.002657   0.002413  -0.003004
     5     O       0.000676  -0.000383   0.000221
     6     H       0.015221  -0.049409   0.057524
     7     H       0.131335   0.148566   0.154295
     8     H       0.058134  -0.137402   0.189106
     9     C       0.024173   0.010280  -0.028302
    10     H      -0.271729  -0.107590   0.114571
    11     H      -0.074643   0.120068   0.039519
    12     C       0.012463  -0.007090  -0.005065
    13     C       0.000224  -0.000470  -0.000279
    14     C       0.014084   0.005252   0.017810
    15     C      -0.020876  -0.021170  -0.023171
    16     H       0.159407   0.128831   0.294372
    17     H      -0.097431  -0.026787   0.026494
    18     H      -0.058003   0.111143   0.042152
    19     H       0.003565   0.002077  -0.005813
    20     H      -0.097572  -0.032016   0.021218
    21     H       0.003678   0.052030  -0.043032
    22     H      -0.076894  -0.080386  -0.188642
    23     H       0.152893   0.038485  -0.046634
    24     H      -0.060904   0.086601   0.028796
    25     H       0.005752  -0.026522   0.029791
    26    Sn      -0.000004   0.000000   0.000000
    27    Cl       0.000010  -0.000000   0.000001
    28    Cl       0.000014  -0.000001  -0.000006
 
 Mode:    82      Frequency (cm-1):     3081.0085     Intensity (km/mol):       19.0091
 Index  Atom      ---- Displacements (x/y/z) ----
     1     H       0.171413  -0.303383   0.374512
     2     C      -0.000753   0.001884  -0.002824
     3     C      -0.020924   0.017569  -0.039440
     4     C      -0.001698   0.001519  -0.002240
     5     O       0.000382  -0.000207   0.000220
     6     H       0.007884  -0.026070   0.029019
     7     H       0.085922   0.097992   0.099693
     8     H      -0.009689   0.022164  -0.025722
     9     C      -0.010359   0.001936   0.007753
    10     H       0.082596   0.035225  -0.036198
    11     H       0.051755  -0.078925  -0.028402
    12     C      -0.006743   0.006205   0.001289
    13     C      -0.000619   0.001150   0.000455
    14     C      -0.017491  -0.005001  -0.026801
    15     C      -0.003072   0.049484   0.047452
    16     H      -0.239780  -0.182493  -0.422472
    17     H       0.045684   0.013682  -0.012221
    18     H       0.035751  -0.070695  -0.028412
    19     H      -0.000233  -0.019441   0.024400
    20     H       0.109336   0.036251  -0.024838
    21     H      -0.003608  -0.093466   0.079453
    22     H       0.107211   0.112158   0.262251
    23     H       0.012718   0.016837   0.009111
    24     H       0.266715  -0.428397  -0.153618
    25     H       0.003886  -0.018190   0.021035
    26    Sn       0.000002   0.000003  -0.000003
    27    Cl       0.000005  -0.000000   0.000005
    28    Cl       0.000003  -0.000007   0.000001
 
 Mode:    83      Frequency (cm-1):     3085.4670     Intensity (km/mol):       41.1233
 Index  Atom      ---- Displacements (x/y/z) ----
     1     H      -0.001917   0.003557  -0.006008
     2     C      -0.000503   0.001921  -0.002413
     3     C       0.000311  -0.000388   0.000455
     4     C       0.000006   0.000118  -0.000108
     5     O       0.000002  -0.000013   0.000015
     6     H       0.005726  -0.021035   0.026410
     7     H      -0.000615  -0.000216   0.000535
     8     H       0.045415  -0.124476   0.175520
     9     C      -0.008110   0.022715  -0.010943
    10     H      -0.047422  -0.010963   0.017835
    11     H       0.095665  -0.135456  -0.057423
    12     C      -0.005155   0.001419   0.002325
    13     C      -0.001433  -0.000528  -0.001427
    14     C      -0.043681  -0.014667  -0.061793
    15     C      -0.015781  -0.026665  -0.027243
    16     H       0.173046   0.134900   0.314840
    17     H       0.054402   0.014500  -0.013070
    18     H       0.014807  -0.029329  -0.010209
    19     H      -0.001551   0.000755   0.001572
    20     H       0.277706   0.091768  -0.061901
    21     H      -0.007822  -0.192449   0.163160
    22     H       0.258113   0.275996   0.637103
    23     H       0.121168   0.028872  -0.040449
    24     H      -0.101739   0.156108   0.055432
    25     H       0.000053  -0.000937   0.000811
    26    Sn       0.000000  -0.000000  -0.000003
    27    Cl       0.000004   0.000001   0.000005
    28    Cl       0.000001  -0.000000   0.000002
 
 Mode:    84      Frequency (cm-1):     3102.7439     Intensity (km/mol):       17.5558
 Index  Atom      ---- Displacements (x/y/z) ----
     1     H      -0.010561   0.019207  -0.021343
     2     C       0.001577  -0.002774   0.002670
     3     C       0.000843  -0.000900   0.002190
     4     C      -0.000004  -0.000148   0.000395
     5     O       0.000036  -0.000005  -0.000075
     6     H      -0.009129   0.024861  -0.031050
     7     H      -0.002693  -0.003569  -0.003899
     8     H      -0.059972   0.189688  -0.280630
     9     C       0.057107  -0.065538  -0.005902
    10     H      -0.164612  -0.087160   0.078582
    11     H      -0.466331   0.678266   0.270614
    12     C       0.000397  -0.000626   0.000182
    13     C      -0.000321  -0.000159  -0.000392
    14     C      -0.013320  -0.005939  -0.020348
    15     C       0.001933   0.001116   0.001752
    16     H      -0.012980  -0.011564  -0.024010
    17     H      -0.001573  -0.000162   0.000564
    18     H      -0.002431   0.005118   0.001958
    19     H      -0.000090   0.003083  -0.003356
    20     H       0.078698   0.027098  -0.017086
    21     H      -0.003229  -0.048485   0.039374
    22     H       0.091852   0.096448   0.221802
    23     H      -0.011653  -0.003042   0.003002
    24     H       0.000757   0.000781   0.000589
    25     H      -0.000240   0.002159  -0.002460
    26    Sn      -0.000003  -0.000004   0.000004
    27    Cl      -0.000001   0.000000  -0.000005
    28    Cl       0.000000   0.000012  -0.000003

PES point character: Geometry corresponds to a local minimum on the PES.




 ============================
 Statistical Thermal Analysis  ***  ideal gas assumed  ***
 ============================
  
 Pressure:                  1.000000 atm.
 Temperature:             298.150000 K



 Moments of Inertia [amu*bohr^2] and principal axis
 ==================================================

        1975.9808      11267.9397      11838.6444
 ------------------------------------------------
          -0.8683          0.2657         -0.4188
          -0.0800          0.7583          0.6470
           0.4895          0.5953         -0.6372


 The rotational contribution to the molecular entropy includes
 a term, dependent on the symmetry number sigma. The results 
 reported below were computed using sigma = 1, determined from
 the point group symmetry of the input geometry (NOSYM). 
 If this is not the correct symmetry, try symmetrizing the molecule before
 running the calculation (note: linear molecules should be aligned along one
 of the Cartesian axes).
 Contributions from frequencies below 20 1/cm are not included in vibrational sums.
 Their contributions, if any, are reported separately.


     Temp                                                        Transl      Rotat     Vibrat     Total
     ----                                                        ------      -----     ------     -----

     298.15   Entropy (cal/mol-K):                               43.166     33.932     62.613    139.711
              Nuclear Internal Energy (kcal/mol):                 0.889      0.889    149.545    151.323
              Constant Volume Heat Capacity (cal/mol-K):          2.981      2.981     52.252     58.214
          (c) Constant Volume Heat Capacity (cal/mol-K):          2.981      2.981     47.024     52.986

 Contributions from frequencies below 20 1/cm
 Frequency (1/cm):                                    7.726
 Entropy (cal/mol-K):                                 8.524
 Nuclear Internal Energy (kcal/mol):                  0.593
 Constant Volume Heat Capacity (cal/mol-K):           1.987

       Summary of energy terms
                                                   hartree              eV         kcal/mol           kJ/mol
                                      --------------------     -----------       ----------      -----------
      Energy from Engine:               -5.237141363736130       -142.5099         -3286.36        -13750.11
      Nuclear Internal Energy:           0.241148177263222          6.5620           151.32           633.13
  (c) Nuclear Internal Energy:           0.238494070623419          6.4898           149.66           626.17
      Internal Energy U:                -4.995993186472909       -135.9479         -3135.03        -13116.98
      pV/n = RT:                         0.000944186013486          0.0257             0.59             2.48
      Enthalpy H:                       -4.995049000459423       -135.9222         -3134.44        -13114.50
      -T*S:                             -0.066381241031853         -1.8063           -41.65          -174.28
  (c) -T*S:                             -0.065260241723567         -1.7758           -40.95          -171.34
      Gibbs free energy:                -5.061430241491276       -137.7285         -3176.10        -13288.78
 
 
 
  (c) The properties marked with this symbol have been corrected using 'low vibrational frequency free rotor
      interpolation corrections'. For those terms all positive frequencies are used (also ones below 20 1/cm),
      but the contribution to the partition function of small vibrational frequencies is modified as described
      in the following paper:
      S. Grimme, 'Supramolecular Binding Thermodynamics by Dispersion-Corrected Density Functional Theory'
      (Chem. Eur. J. 2012, 18, 9955-9964)
      Configuration: Dampener Frequency          :   100.000 1/cm
                     Dampener Alpha              :     4.000
                     Averaging Moment of Inertia : 1.000E-44 kg m2

--------------
Atomic charges
--------------
  Index   Atom    Charge
      1      H   -0.1846
      2      C    0.1855
      3      C    0.4291
      4      C    0.7765
      5      O   -0.5527
      6      H   -0.1723
      7      H   -0.1743
      8      H   -0.2219
      9      C    0.7171
     10      H   -0.2256
     11      H   -0.2445
     12      C    0.7571
     13      C   -0.0409
     14      C    0.7648
     15      C    0.7556
     16      H   -0.2441
     17      H   -0.2407
     18      H   -0.2569
     19      H   -0.2468
     20      H   -0.2492
     21      H   -0.2473
     22      H   -0.2427
     23      H   -0.2376
     24      H   -0.2546
     25      H   -0.2381
     26     Sn    0.7143
     27     Cl   -0.4118
     28     Cl   -0.4134


Dipole moment vector    (Debye):    -3.34593733   -2.32127621    4.07608663
              magnitude (Debye):     5.76177942


Final PES point is a local minimum. Geometry optimization successful!


AMS application finished. Exiting.
NORMAL TERMINATION
     Total cpu time:   92354.15
  Total system time:     341.58
 Total elapsed time:  112666.27
