
 *******************************************************************************
 *                                                                             *
 *  --------------------------------                                           *
 *   Amsterdam Modeling Suite (AMS)              2021.102                      *
 *  --------------------------------                                           *
 *                                               r95042 2021-06-07             *
 *                                                                             *
 *                                                                             *
 *                              =================                              *
 *                              |               |                              *
 *                              |     A M S     |                              *
 *                              |               |                              *
 *                              =================                              *
 *                                                                             *
 *                                                                             *
 *   Online information and documentation:  https://www.scm.com/support/       *
 *   E-mail:  support@scm.com   info@scm.com                                   *
 *                                                                             *
 *   Scientific publications using AMS results must be properly referenced     *
 *   See the User Manuals (or the web site) for recommended citations          *
 *   The terms and conditions of the End User License Agreement apply to       *
 *   the use of AMS, https://www.scm.com/license-terms/                        *
 *                                                                             *
 **********************  x86_64_linux_intel / intelmpi  ************************
 
 Licensed to: VU/FEW (+ SARA) / ALGEMEEN / Amsterdam / THE NETHERLANDS
 SCM User ID: u7668
  
 AMS 2021.102  RunTime: Jan20-2022 01:12:25  ShM Nodes: 1  Procs: 1

 AMS jobname: 7.no_catalyst_H_H.TS
 AMS jobid  : 730548130

 Start   directory: /scistor/tc/yhk800/MasterProject/calculations/no_catalyst_H_H.002/7.no_catalyst_H_H.TS/
 Results directory: /scistor/tc/yhk800/MasterProject/calculations/no_catalyst_H_H.002/7.no_catalyst_H_H.TS/
 Scratch directory: /scratch/3449/amstmp_7.no_catalyst_H_H.TS_kid0.730548130/

 RNG seed: -1244703421 191748620 -108285584 742122502 549349085 1567247613 1952233175 -1736783598



                      ************************************************************************
                      *  ADF 2021.102  RunTime: Jan20-2022 01:12:25  ShM Nodes: 1  Procs: 1  *
                      ************************************************************************
  
       *****************************
       *  TRANSITION STATE SEARCH  *
       *****************************

Optimization Method                    Quasi Newton
Optimization Coordinates               Delocalized Coordinates
Optimize lattice                       F
 
 ------------------------------------------------------
 Convergence criteria (Hartree,Angstrom)
 ------------------------------------------------------
 Maximum gradient               0.001000000000
 Maximum rms gradient           0.000666666667
 Maximum step allowed           0.010000000000
 Maximum rms step allowed       0.006666666667
 Maximum energy change allowe   0.000120000000
 Maximum stress energy allowe   0.000500000000
 
Initial model Hessian                  Automatic Hessian
 
------------------------------------
Quasi-Newton Optimizer Parameters
------------------------------------
Hessian Update Method                  Bofill
Maximum number of steps                  250
First GDIIS cycle                          0
Maximum GDIIS vectors                      0
Trust radius (bohr)                        0.200000
Trust radius varies                        F
Constraints converged at all steps         T
Use projector                              T
 
 Rigid motions settings for: old optimizer
 Atomic rotations (x,y,z):     T T T
 Atomic translations (x,y,z):  T T T
 Tolerance:                   1.000000000000000E-006
 
           1  TSRC entries:
    i   type      a1    a2    a3    a4    coef
    1 Distance     1     2               -1.000
 
--------
Geometry
--------
Formula: C4H7O
Atoms
  Index Symbol   x (angstrom)   y (angstrom)   z (angstrom)
      1      C     0.81668000    -0.23471900     0.88197500
      2      C     0.81678400    -0.23413100    -0.47719300
      3      C    -1.53160000    -0.46998000    -1.30857600
      4      H     0.85636200    -1.16386700     1.44859300
      5      C     0.73893400     1.00063500     1.66014300
      6      H    -1.75224300    -1.42324600    -0.84366900
      7      H     0.86540100     0.70149500    -1.02879400
      8      H    -1.29572100    -0.45322200    -2.36675600
      9      H    -1.93437200     0.42729600    -0.85485600
     10      O     0.73088900     1.05622100     2.88164900
     11      H     0.99495642    -1.13003362    -1.03443002
     12      H     0.69350848     1.89581258     1.07576845
 
Total System Charge             0.00000
 
 
----------------
ADF Engine Input
----------------
 
 NumericalQuality VeryGood
 SCF
 Converge 1.0e-6
 Iterations 99
 End
 SYMMETRY NOSYM
 SpinPolarization 1.0
 Unrestricted Yes
 XC
 GGA OLYP
 End
 basis
 core None
 type TZ2P
 End
 

 Title: *** (NO TITLE) ***

 Using automatic Hessian for delocalized coordinates.
 *** GOStep1 ***

 Energy gradients wrt nuclear displacements
 ==========================================

     Atom      Cartesian (a.u./angstrom)
                 X         Y         Z
 ----------------------------------------
     1 C    -0.000025  0.001563 -0.001522
     2 C     0.002964 -0.015709 -0.009620
     3 C    -0.000008  0.000021  0.000005
     4 H    -0.000038  0.000322  0.000297
     5 C    -0.002315  0.043857 -0.022547
     6 H     0.000015 -0.000012 -0.000028
     7 H     0.000049 -0.000274 -0.000085
     8 H     0.000026 -0.000013  0.000004
     9 H     0.000041 -0.000001 -0.000000
    10 O    -0.000024  0.000785 -0.006440
    11 H    -0.003064  0.016232  0.010263
    12 H     0.002380 -0.046770  0.029673
 ----------------------------------------
 Mulliken charges used for AMS results%charges...
           Primitive Internal Coordinates (atoms in internal order)
-------------------------------------------------------------------------------
    index    type      i       j       k       l   value(A,deg)     TSRC Vect
-------------------------------------------------------------------------------
       1     bnd       1       5       0       0     1.46208392     0.00000000
       2     bnd       1       2       0       0     1.35916813    -0.48531209
       3     bnd       3       9       0       0     1.08313958    -0.00422752
       4     bnd       1       4       0       0     1.08901177    -0.00000000
       5     bnd       3       6       0       0     1.08329955    -0.00366948
       6     bnd       2       7       0       0     1.08720894    -0.01157629
       7     bnd       3       8       0       0     1.08428070    -0.01947751
       8     bnd       5      10       0       0     1.22279656     0.00000000
       9     bnd       2      11       0       0     1.07000001    -0.01078579
      10     bnd       5      12       0       0     1.07000000    -0.00000000
      11     bnd       2       3       0       0     2.50234487     0.04479268
      12     bnd       1       3       0       0     3.21998143    -0.21075067
      13     bnd       2       6       0       0     2.85450501     0.02261123
      14     bnd       2       8       0       0     2.84273224     0.03872695
      15     bnd       2       9       0       0     2.85464085     0.02267470
      16     bnd       3       7       0       0     2.68258186     0.01467715
      17     bnd       3      11       0       0     2.62570260     0.01528547
      18     ang       5       1       2       0   122.13193049    -0.00822863
      19     ang       5       1       4       0   116.48149708     0.01094609
      20     ang       5       1       3       0   112.64562536    -0.01558659
      21     ang       2       1       4       0   121.37727346    -0.00258179
      22     ang       2       1       3       0    47.13980479     0.03175565
      23     ang       4       1       3       0   108.55407601    -0.01199232
      24     ang       1       2       7       0   120.51279539    -0.00098065
      25     ang       1       2      11       0   121.36128216     0.00101742
      26     ang       1       2       3       0   109.39804563     0.04157551
      27     ang       1       2       6       0    97.36189422     0.04046564
      28     ang       1       2       8       0   131.65236189     0.03455124
      29     ang       1       2       9       0    97.60393042     0.04051100
      30     ang       7       2      11       0   116.67222783    -0.00511725
      31     ang       7       2       3       0    87.39281970    -0.01153287
      32     ang       7       2       6       0   109.48758492    -0.01345692
      33     ang       7       2       8       0    76.25016237    -0.00791067
      34     ang       7       2       9       0    77.08981866    -0.00965703
      35     ang      11       2       3       0    84.51010404    -0.01159676
      36     ang      11       2       6       0    74.58595081    -0.00976978
      37     ang      11       2       8       0    73.32443789    -0.00809313
      38     ang      11       2       9       0   106.59375947    -0.01365090
      39     ang       6       2       8       0    38.16371016    -0.00767443
      40     ang       6       2       9       0    38.01699289    -0.00322242
      41     ang       8       2       9       0    38.16203879    -0.00774046
      42     ang       9       3       6       0   118.25885447     0.00484922
      43     ang       9       3       8       0   118.48323850     0.00093085
      44     ang       9       3       2       0    97.56929804    -0.00940999
      45     ang       9       3       1       0    85.73843521     0.02822307
      46     ang       9       3       7       0    85.80331135    -0.00650988
      47     ang       9       3      11       0   121.48827574    -0.01365827
      48     ang       6       3       8       0   118.47247906     0.00077498
      49     ang       6       3       2       0    97.55621160    -0.00959817
      50     ang       6       3       1       0    85.46171991     0.02878896
      51     ang       6       3       7       0   121.43376470    -0.01362014
      52     ang       6       3      11       0    85.98434689    -0.00657975
      53     ang       8       3       2       0    96.81291220     0.00376012
      54     ang       8       3       1       0   120.27444570    -0.06956927
      55     ang       8       3       7       0    84.29830723     0.00522494
      56     ang       8       3      11       0    84.05640983     0.00528833
      57     ang       1       3       7       0    41.01789145    -0.06553979
      58     ang       1       3      11       0    41.02628758    -0.06565108
      59     ang       7       3      11       0    40.45513557    -0.00740868
      60     ang       1       5      10       0   124.78014579     0.00000000
      61     ang       1       5      12       0   114.73739870    -0.00000000
      62     ang      10       5      12       0   120.48134627    -0.00000000
      63     ang       3       6       2       0    60.34468769     0.01151103
      64     ang       2       7       3       0    68.72451165     0.01554220
      65     ang       3       8       2       0    60.93212808     0.00326367
      66     ang       3       9       2       0    60.33684884     0.01144707
      67     ang       2      11       3       0    71.55860906     0.01582582
      68     dih       2       1       5      10   179.74813341     0.01259504
      69     dih       2       1       5      12    -0.63506965     0.01259504
      70     dih       4       1       5      10     0.84367616     0.00462144
      71     dih       4       1       5      12   180.46047311     0.00462144
      72     dih       3       1       5      10   127.21624574    -0.01721647
      73     dih       3       1       5      12   -53.16695732    -0.01721647
      74     dih       5       1       2       7     6.57009342     0.00913981
      75     dih       5       1       2      11   172.35502872    -0.01599884
      76     dih       5       1       2       3   267.85385074    -0.00311196
      77     dih       5       1       2       6   248.75690649    -0.00334637
      78     dih       5       1       2       8   267.65479661    -0.00323638
      79     dih       5       1       2       9   -72.88759900    -0.00290085
      80     dih       4       1       2       7   185.42152053     0.01764037
      81     dih       4       1       2      11    -8.79354417    -0.00749828
      82     dih       4       1       2       3    86.70527785     0.00538861
      83     dih       4       1       2       6    67.60833360     0.00515420
      84     dih       4       1       2       8    86.50622373     0.00526418
      85     dih       4       1       2       9   105.96382811     0.00559972
      86     dih       3       1       2       7    98.71624268     0.01225177
      87     dih       3       1       2      11   264.50117798    -0.01288689
      88     dih       3       1       2       6   -19.09694425    -0.00023441
      89     dih       3       1       2       8    -0.19905413    -0.00012443
      90     dih       3       1       2       9    19.25855026     0.00021111
      91     dih       6       3       9       2   102.82836572    -0.01539402
      92     dih       8       3       9       2   257.98018397     0.00087121
      93     dih       1       3       9       2    20.30570963    -0.06321646
      94     dih       7       3       9       2   -20.82918846     0.00307729
      95     dih      11       3       9       2    -0.82262789    -0.00050433
      96     dih       9       3       6       2   257.16400671     0.01528461
      97     dih       8       3       6       2   102.00948582    -0.00101785
      98     dih       1       3       6       2   -20.14929510     0.06277352
      99     dih       7       3       6       2     0.52968161     0.00056829
     100     dih      11       3       6       2    20.99355189    -0.00328342
     101     dih       1       2       7       3   248.95626953    -0.04156740
     102     dih      11       2       7       3    82.52763162    -0.01838210
     103     dih       6       2       7       3     0.44547776     0.00053942
     104     dih       8       2       7       3    19.49721097    -0.00562953
     105     dih       9       2       7       3   -19.75505464     0.00083177
     106     dih       9       3       8       2   102.45974316    -0.00853173
     107     dih       6       3       8       2   257.55808319     0.00878822
     108     dih       1       3       8       2    -0.18104675     0.00059191
     109     dih       7       3       8       2    20.38290605    -0.00380768
     110     dih      11       3       8       2   -20.29058747     0.00404182
     111     dih       1       2      11       3   109.40048384     0.04192771
     112     dih       7       2      11       3   -84.29422306     0.01823155
     113     dih       6       2      11       3    20.10982482    -0.00055157
     114     dih       8       2      11       3   -19.64380594     0.00556547
     115     dih       9       2      11       3    -0.67870888    -0.00052045
     116     dih       1       2       3       9    60.36685908     0.00037683
     117     dih       1       2       3       6   -59.59533627    -0.00027246
     118     dih       1       2       3       8   180.39271465     0.00015248
     119     dih       1       2       3       7   121.52101014     0.00126404
     120     dih       1       2       3      11   238.63730914    -0.00122412
     121     dih       7       2       3       9   -61.15415106    -0.00088721
     122     dih       7       2       3       6   178.88365359    -0.00153650
     123     dih       7       2       3       8    58.87170451    -0.00111156
     124     dih       7       2       3       1   238.47898986    -0.00126404
     125     dih       7       2       3      11   117.11629900    -0.00248816
     126     dih      11       2       3       9   181.72954994     0.00160095
     127     dih      11       2       3       6    61.76735459     0.00095166
     128     dih      11       2       3       8   -58.24459449     0.00137660
     129     dih      11       2       3       1   121.36269086     0.00122412
     130     dih      11       2       3       7   242.88370100     0.00248816
     131     dih       6       2       3       9   119.96219535     0.00064929
     132     dih       6       2       3       8   239.98805092     0.00042494
     133     dih       6       2       3       1    59.59533627     0.00027246
     134     dih       6       2       3       7   181.11634641     0.00153650
     135     dih       6       2       3      11   -61.76735459    -0.00095166
     136     dih       8       2       3       9   239.97414443     0.00022435
     137     dih       8       2       3       6   120.01194908    -0.00042494
     138     dih       8       2       3       1   179.60728535    -0.00015248
     139     dih       8       2       3       7   -58.87170451     0.00111156
     140     dih       8       2       3      11    58.24459449    -0.00137660
     141     dih       9       2       3       6   240.03780465    -0.00064929
     142     dih       9       2       3       8   120.02585557    -0.00022435
     143     dih       9       2       3       1   -60.36685908    -0.00037683
     144     dih       9       2       3       7    61.15415106     0.00088721
     145     dih       9       2       3      11   178.27045006    -0.00160095
     146     dih       5       1       3       9    -6.70885435     0.00223865
     147     dih       5       1       3       6   234.46351100     0.00475520
     148     dih       5       1       3       8   113.97123608     0.00318579
     149     dih       5       1       3       2   113.51971531     0.00333406
     150     dih       5       1       3       7    81.79279287    -0.03717271
     151     dih       5       1       3      11   145.36861586     0.04382288
     152     dih       2       1       3       9   239.77143035    -0.00109541
     153     dih       2       1       3       6   120.94379569     0.00142114
     154     dih       2       1       3       8     0.45152078    -0.00014827
     155     dih       2       1       3       7   -31.72692244    -0.04050677
     156     dih       2       1       3      11    31.84890055     0.04048882
     157     dih       4       1       3       9   123.80841936    -0.00549115
     158     dih       4       1       3       6     4.98078471    -0.00297459
     159     dih       4       1       3       8   244.48850980    -0.00454400
     160     dih       4       1       3       2   244.03698902    -0.00439573
     161     dih       4       1       3       7   212.31006658    -0.04490250
     162     dih       4       1       3      11   -84.11411043     0.03609309
     163     dih       1       2       6       3   124.88764731     0.01326762
     164     dih       7       2       6       3    -1.18296723    -0.00151904
     165     dih      11       2       6       3   245.46600317     0.00457893
     166     dih       8       2       6       3   -32.05539858     0.00447965
     167     dih       9       2       6       3    31.94330304    -0.00079219
     168     dih       1       2       8       3     0.49575478     0.00033174
     169     dih       7       2       8       3   241.68513846     0.00137212
     170     dih      11       2       8       3   117.92511051    -0.00086347
     171     dih       6       2       8       3    31.81706571     0.00328808
     172     dih       9       2       8       3   -31.80538315    -0.00307671
     173     dih       1       2       9       3   235.80616395    -0.01327110
     174     dih       7       2       9       3   116.14173452    -0.00443579
     175     dih      11       2       9       3     1.79645291     0.00150037
     176     dih       6       2       9       3   -31.95136330     0.00060082
     177     dih       8       2       9       3    32.05169900    -0.00449853
     178     dih       9       3       7       2   119.46891254    -0.00392311
     179     dih       6       3       7       2    -1.29702339    -0.00162560
     180     dih       8       3       7       2   238.67074179    -0.00269781
     181     dih       1       3       7       2    31.14063561    -0.05702689
     182     dih      11       3       7       2   -33.81065462    -0.00028998
     183     dih       9       3      11       2     2.01064384     0.00161154
     184     dih       6       3      11       2   241.10811001     0.00407014
     185     dih       8       3      11       2   121.91193176     0.00297372
     186     dih       1       3      11       2   -31.19334464     0.05706390
     187     dih       7       3      11       2    33.73730423     0.00060602
Hessian eigenvector     1(    -0.018) has overlap with TSRC:    0.55908E+00
Hessian eigenvector     1 has the largest overlap with TSRC:  0.55908
           Primitive Internal Coordinates (atoms in internal order)
-------------------------------------------------------------------------------
    index    type      i       j       k       l   value(A,deg)     Max Ovl Vect
-------------------------------------------------------------------------------
       1     bnd       1       5       0       0     1.46208392     0.00000000
       2     bnd       1       2       0       0     1.35916813     0.79065808
       3     bnd       3       9       0       0     1.08313958     0.00007233
       4     bnd       1       4       0       0     1.08901177    -0.00000000
       5     bnd       3       6       0       0     1.08329955    -0.00000420
       6     bnd       2       7       0       0     1.08720894     0.00037788
       7     bnd       3       8       0       0     1.08428070     0.00994571
       8     bnd       5      10       0       0     1.22279656     0.00000000
       9     bnd       2      11       0       0     1.07000001     0.00016700
      10     bnd       5      12       0       0     1.07000000    -0.00000000
      11     bnd       2       3       0       0     2.50234487    -0.06402661
      12     bnd       1       3       0       0     3.21998143     0.20297133
      13     bnd       2       6       0       0     2.85450501    -0.01865709
      14     bnd       2       8       0       0     2.84273224    -0.06389067
      15     bnd       2       9       0       0     2.85464085    -0.01906514
      16     bnd       3       7       0       0     2.68258186    -0.00949751
      17     bnd       3      11       0       0     2.62570260    -0.00956383
      18     ang       5       1       2       0   122.13193049     0.00000690
      19     ang       5       1       4       0   116.48149708     0.00017072
      20     ang       5       1       3       0   112.64562536    -0.00135221
      21     ang       2       1       4       0   121.37727346    -0.00014413
      22     ang       2       1       3       0    47.13980479     0.00511155
      23     ang       4       1       3       0   108.55407601    -0.00163550
      24     ang       1       2       7       0   120.51279539     0.01025129
      25     ang       1       2      11       0   121.36128216     0.00603662
      26     ang       1       2       3       0   109.39804563    -0.14665527
      27     ang       1       2       6       0    97.36189422    -0.13707972
      28     ang       1       2       8       0   131.65236189    -0.13953974
      29     ang       1       2       9       0    97.60393042    -0.13759608
      30     ang       7       2      11       0   116.67222783     0.00835413
      31     ang       7       2       3       0    87.39281970     0.02554698
      32     ang       7       2       6       0   109.48758492     0.02570142
      33     ang       7       2       8       0    76.25016237     0.02136999
      34     ang       7       2       9       0    77.08981866     0.02186389
      35     ang      11       2       3       0    84.51010404     0.02549601
      36     ang      11       2       6       0    74.58595081     0.02225710
      37     ang      11       2       8       0    73.32443789     0.02086182
      38     ang      11       2       9       0   106.59375947     0.02568031
      39     ang       6       2       8       0    38.16371016     0.00535538
      40     ang       6       2       9       0    38.01699289     0.00200223
      41     ang       8       2       9       0    38.16203879     0.00540483
      42     ang       9       3       6       0   118.25885447    -0.00203098
      43     ang       9       3       8       0   118.48323850    -0.00761577
      44     ang       9       3       2       0    97.56929804     0.02261563
      45     ang       9       3       1       0    85.73843521    -0.04896534
      46     ang       9       3       7       0    85.80331135     0.01826606
      47     ang       9       3      11       0   121.48827574     0.02453988
      48     ang       6       3       8       0   118.47247906    -0.00766580
      49     ang       6       3       2       0    97.55621160     0.02285994
      50     ang       6       3       1       0    85.46171991    -0.04954656
      51     ang       6       3       7       0   121.43376470     0.02426458
      52     ang       6       3      11       0    85.98434689     0.01871222
      53     ang       8       3       2       0    96.81291220    -0.00528536
      54     ang       8       3       1       0   120.27444570     0.13625719
      55     ang       8       3       7       0    84.29830723    -0.00501023
      56     ang       8       3      11       0    84.05640983    -0.00581845
      57     ang       1       3       7       0    41.01789145     0.12098389
      58     ang       1       3      11       0    41.02628758     0.12202783
      59     ang       7       3      11       0    40.45513557     0.00339901
      60     ang       1       5      10       0   124.78014579     0.00000006
      61     ang       1       5      12       0   114.73739870     0.00000007
      62     ang      10       5      12       0   120.48134627     0.00000006
      63     ang       3       6       2       0    60.34468769    -0.02303222
      64     ang       2       7       3       0    68.72451165    -0.02697305
      65     ang       3       8       2       0    60.93212808    -0.00182621
      66     ang       3       9       2       0    60.33684884    -0.02284469
      67     ang       2      11       3       0    71.55860906    -0.02747555
      68     dih       2       1       5      10   179.74813341     0.00212505
      69     dih       2       1       5      12    -0.63506965     0.00215952
      70     dih       4       1       5      10     0.84367616     0.00015419
      71     dih       4       1       5      12   180.46047311     0.00018866
      72     dih       3       1       5      10   127.21624574    -0.00327794
      73     dih       3       1       5      12   -53.16695732    -0.00324347
      74     dih       5       1       2       7     6.57009342    -0.06002373
      75     dih       5       1       2      11   172.35502872     0.05960523
      76     dih       5       1       2       3   267.85385074    -0.00101682
      77     dih       5       1       2       6   248.75690649     0.00391275
      78     dih       5       1       2       8   267.65479661    -0.00012897
      79     dih       5       1       2       9   -72.88759900    -0.00661070
      80     dih       4       1       2       7   185.42152053    -0.05795398
      81     dih       4       1       2      11    -8.79354417     0.06167498
      82     dih       4       1       2       3    86.70527785     0.00105293
      83     dih       4       1       2       6    67.60833360     0.00598250
      84     dih       4       1       2       8    86.50622373     0.00194077
      85     dih       4       1       2       9   105.96382811    -0.00454095
      86     dih       3       1       2       7    98.71624268    -0.05900690
      87     dih       3       1       2      11   264.50117798     0.06062205
      88     dih       3       1       2       6   -19.09694425     0.00492957
      89     dih       3       1       2       8    -0.19905413     0.00088785
      90     dih       3       1       2       9    19.25855026    -0.00559388
      91     dih       6       3       9       2   102.82836572     0.03924475
      92     dih       8       3       9       2   257.98018397    -0.00511288
      93     dih       1       3       9       2    20.30570963     0.12268524
      94     dih       7       3       9       2   -20.82918846     0.00057462
      95     dih      11       3       9       2    -0.82262789    -0.00200848
      96     dih       9       3       6       2   257.16400671    -0.03910147
      97     dih       8       3       6       2   102.00948582     0.00523897
      98     dih       1       3       6       2   -20.14929510    -0.12222175
      99     dih       7       3       6       2     0.52968161     0.00120689
     100     dih      11       3       6       2    20.99355189     0.00023649
     101     dih       1       2       7       3   248.95626953     0.15470969
     102     dih      11       2       7       3    82.52763162     0.04083588
     103     dih       6       2       7       3     0.44547776     0.00094868
     104     dih       8       2       7       3    19.49721097     0.00472567
     105     dih       9       2       7       3   -19.75505464     0.00281495
     106     dih       9       3       8       2   102.45974316     0.02138559
     107     dih       6       3       8       2   257.55808319    -0.02165749
     108     dih       1       3       8       2    -0.18104675    -0.00081158
     109     dih       7       3       8       2    20.38290605     0.00182745
     110     dih      11       3       8       2   -20.29058747    -0.00199630
     111     dih       1       2      11       3   109.40048384    -0.15624883
     112     dih       7       2      11       3   -84.29422306    -0.04072411
     113     dih       6       2      11       3    20.10982482    -0.00301805
     114     dih       8       2      11       3   -19.64380594    -0.00409157
     115     dih       9       2      11       3    -0.67870888    -0.00152350
     116     dih       1       2       3       9    60.36685908     0.00315344
     117     dih       1       2       3       6   -59.59533627    -0.00519486
     118     dih       1       2       3       8   180.39271465    -0.00102004
     119     dih       1       2       3       7   121.52101014    -0.00300274
     120     dih       1       2       3      11   238.63730914    -0.00048177
     121     dih       7       2       3       9   -61.15415106     0.00615618
     122     dih       7       2       3       6   178.88365359    -0.00219211
     123     dih       7       2       3       8    58.87170451     0.00198270
     124     dih       7       2       3       1   238.47898986     0.00300274
     125     dih       7       2       3      11   117.11629900     0.00252098
     126     dih      11       2       3       9   181.72954994     0.00363520
     127     dih      11       2       3       6    61.76735459    -0.00471309
     128     dih      11       2       3       8   -58.24459449    -0.00053828
     129     dih      11       2       3       1   121.36269086     0.00048177
     130     dih      11       2       3       7   242.88370100    -0.00252098
     131     dih       6       2       3       9   119.96219535     0.00834829
     132     dih       6       2       3       8   239.98805092     0.00417481
     133     dih       6       2       3       1    59.59533627     0.00519486
     134     dih       6       2       3       7   181.11634641     0.00219211
     135     dih       6       2       3      11   -61.76735459     0.00471309
     136     dih       8       2       3       9   239.97414443     0.00417348
     137     dih       8       2       3       6   120.01194908    -0.00417481
     138     dih       8       2       3       1   179.60728535     0.00102004
     139     dih       8       2       3       7   -58.87170451    -0.00198270
     140     dih       8       2       3      11    58.24459449     0.00053828
     141     dih       9       2       3       6   240.03780465    -0.00834829
     142     dih       9       2       3       8   120.02585557    -0.00417348
     143     dih       9       2       3       1   -60.36685908    -0.00315344
     144     dih       9       2       3       7    61.15415106    -0.00615618
     145     dih       9       2       3      11   178.27045006    -0.00363520
     146     dih       5       1       3       9    -6.70885435     0.00557657
     147     dih       5       1       3       6   234.46351100    -0.00519264
     148     dih       5       1       3       8   113.97123608     0.00085274
     149     dih       5       1       3       2   113.51971531     0.00139372
     150     dih       5       1       3       7    81.79279287     0.08425687
     151     dih       5       1       3      11   145.36861586    -0.08314039
     152     dih       2       1       3       9   239.77143035     0.00418285
     153     dih       2       1       3       6   120.94379569    -0.00658635
     154     dih       2       1       3       8     0.45152078    -0.00054098
     155     dih       2       1       3       7   -31.72692244     0.08286315
     156     dih       2       1       3      11    31.84890055    -0.08453410
     157     dih       4       1       3       9   123.80841936     0.00336050
     158     dih       4       1       3       6     4.98078471    -0.00740871
     159     dih       4       1       3       8   244.48850980    -0.00136333
     160     dih       4       1       3       2   244.03698902    -0.00082235
     161     dih       4       1       3       7   212.31006658     0.08204080
     162     dih       4       1       3      11   -84.11411043    -0.08535646
     163     dih       1       2       6       3   124.88764731    -0.05303018
     164     dih       7       2       6       3    -1.18296723    -0.00253480
     165     dih      11       2       6       3   245.46600317    -0.01361976
     166     dih       8       2       6       3   -32.05539858    -0.00812566
     167     dih       9       2       6       3    31.94330304    -0.00424564
     168     dih       1       2       8       3     0.49575478    -0.00191482
     169     dih       7       2       8       3   241.68513846    -0.00532402
     170     dih      11       2       8       3   117.92511051     0.00653832
     171     dih       6       2       8       3    31.81706571    -0.00246847
     172     dih       9       2       8       3   -31.80538315     0.00241943
     173     dih       1       2       9       3   235.80616395     0.05160826
     174     dih       7       2       9       3   116.14173452     0.01474964
     175     dih      11       2       9       3     1.79645291     0.00409278
     176     dih       6       2       9       3   -31.95136330     0.00433430
     177     dih       8       2       9       3    32.05169900     0.00808521
     178     dih       9       3       7       2   119.46891254     0.01369129
     179     dih       6       3       7       2    -1.29702339    -0.00281414
     180     dih       8       3       7       2   238.67074179     0.00382623
     181     dih       1       3       7       2    31.14063561     0.11411677
     182     dih      11       3       7       2   -33.81065462     0.00054681
     183     dih       9       3      11       2     2.01064384     0.00464865
     184     dih       6       3      11       2   241.10811001    -0.01246112
     185     dih       8       3      11       2   121.91193176    -0.00252173
     186     dih       1       3      11       2   -31.19334464    -0.11235976
     187     dih       7       3      11       2    33.73730423    -0.00137329
 
----------------------------------------------------------------------
Geometry Convergence after Step   1       (Hartree/Angstrom,Angstrom)
----------------------------------------------------------------------
current energy                               -2.32665185 Hartree
energy change                      -2.32665185     0.00012000    F
constrained gradient max            0.04677457     0.00100000    F
constrained gradient rms            0.01321218     0.00066667    F
gradient max                        0.04677457
gradient rms                        0.01321218
cart. step max                      0.02602828     0.01000000    F
cart. step rms                      0.00551878     0.00666667    T
 
 
--------
Geometry
--------
Formula: C4H7O
Atoms
  Index Symbol   x (angstrom)   y (angstrom)   z (angstrom)
      1      C     0.81660322    -0.23720842     0.88142640
      2      C     0.81593843    -0.23474440    -0.47256292
      3      C    -1.53115840    -0.47008473    -1.30832403
      4      H     0.85669001    -1.16757525     1.44614365
      5      C     0.73944839     0.99821306     1.66100407
      6      H    -1.75225888    -1.42406887    -0.84512671
      7      H     0.86475075     0.70212652    -1.02222795
      8      H    -1.29392588    -0.45135508    -2.36609973
      9      H    -1.93455463     0.42638536    -0.85343523
     10      O     0.73162315     1.04721420     2.88577642
     11      H     0.99451567    -1.13848229    -1.03730340
     12      H     0.69190708     1.92184086     1.06458386
 
Total System Charge             0.00000
 
 *** GOStep2 ***

 Energy gradients wrt nuclear displacements
 ==========================================

     Atom      Cartesian (a.u./angstrom)
                 X         Y         Z
 ----------------------------------------
     1 C     0.000097 -0.000507 -0.008806
     2 C     0.000018 -0.004588  0.006169
     3 C     0.000650 -0.000058  0.000038
     4 H     0.000050 -0.000365 -0.000406
     5 C    -0.000647  0.016281 -0.015695
     6 H    -0.000016  0.000024 -0.000001
     7 H     0.000137  0.000113  0.000355
     8 H    -0.000018  0.000016  0.000059
     9 H    -0.000016  0.000033  0.000023
    10 O    -0.000098 -0.000428  0.005604
    11 H    -0.000824  0.004425  0.003099
    12 H     0.000668 -0.014947  0.009562
 ----------------------------------------
 Mulliken charges used for AMS results%charges...
Hessian eigenvector     1(    -0.035) has overlap with TSRC:    0.55927E+00
Hessian eigenvector     1 has the largest overlap with TSRC:  0.55927
           Primitive Internal Coordinates (atoms in internal order)
-------------------------------------------------------------------------------
    index    type      i       j       k       l   value(A,deg)     Max Ovl Vect
-------------------------------------------------------------------------------
       1     bnd       1       5       0       0     1.46286036    -0.00098990
       2     bnd       1       2       0       0     1.35399173     0.79134349
       3     bnd       3       9       0       0     1.08319479    -0.00003353
       4     bnd       1       4       0       0     1.08907987    -0.00046520
       5     bnd       3       6       0       0     1.08329262     0.00087589
       6     bnd       2       7       0       0     1.08730925     0.00253779
       7     bnd       3       8       0       0     1.08421377     0.01210808
       8     bnd       5      10       0       0     1.22577716    -0.02266508
       9     bnd       2      11       0       0     1.08053867     0.06563661
      10     bnd       5      12       0       0     1.10048423     0.17648704
      11     bnd       2       3       0       0     2.50254775    -0.06686834
      12     bnd       1       3       0       0     3.21888536     0.24045935
      13     bnd       2       6       0       0     2.85463376    -0.02390067
      14     bnd       2       8       0       0     2.84322515    -0.06451352
      15     bnd       2       9       0       0     2.85435953    -0.02518945
      16     bnd       3       7       0       0     2.68259405    -0.01444052
      17     bnd       3      11       0       0     2.62663987    -0.02026847
      18     ang       5       1       2       0   122.09668199     0.00307146
      19     ang       5       1       4       0   116.55536250    -0.00133804
      20     ang       5       1       3       0   112.65375435     0.00978852
      21     ang       2       1       4       0   121.33887250    -0.00162477
      22     ang       2       1       3       0    47.11669005    -0.01016208
      23     ang       4       1       3       0   108.52918201     0.00403769
      24     ang       1       2       7       0   120.46905071     0.00480608
      25     ang       1       2      11       0   121.40224293     0.00695309
      26     ang       1       2       3       0   109.52711143    -0.12560667
      27     ang       1       2       6       0    97.48087493    -0.11947374
      28     ang       1       2       8       0   131.77495426    -0.11803583
      29     ang       1       2       9       0    97.71986109    -0.11848820
      30     ang       7       2      11       0   116.68117546     0.01183734
      31     ang       7       2       3       0    87.38096105     0.02391297
      32     ang       7       2       6       0   109.47503195     0.02480044
      33     ang       7       2       8       0    76.24828811     0.02040110
      34     ang       7       2       9       0    77.06941516     0.01955299
      35     ang      11       2       3       0    84.36461181     0.01047260
      36     ang      11       2       6       0    74.45547091     0.00923886
      37     ang      11       2       8       0    73.19270081     0.00746447
      38     ang      11       2       9       0   106.45343497     0.01124499
      39     ang       6       2       8       0    38.16198330     0.00767201
      40     ang       6       2       9       0    38.01621982     0.00150355
      41     ang       8       2       9       0    38.16042177     0.00640668
      42     ang       9       3       6       0   118.24570810    -0.00861056
      43     ang       9       3       8       0   118.48313512    -0.00657299
      44     ang       9       3       2       0    97.53907130     0.02068217
      45     ang       9       3       1       0    85.76007083    -0.04837658
      46     ang       9       3       7       0    85.76678331     0.01547704
      47     ang       9       3      11       0   121.69311867     0.03733564
      48     ang       6       3       8       0   118.49145169    -0.00076728
      49     ang       6       3       2       0    97.55281562     0.02114771
      50     ang       6       3       1       0    85.50908933    -0.05029349
      51     ang       6       3       7       0   121.43273198     0.02350102
      52     ang       6       3      11       0    85.87357944     0.01143338
      53     ang       8       3       2       0    96.83332886    -0.00475121
      54     ang       8       3       1       0   120.18895085     0.13101871
      55     ang       8       3       7       0    84.32286245    -0.00414324
      56     ang       8       3      11       0    83.95359303    -0.01208878
      57     ang       1       3       7       0    40.92313846     0.11617338
      58     ang       1       3      11       0    41.13888145     0.12922481
      59     ang       7       3      11       0    40.65823621     0.01751021
      60     ang       1       5      10       0   124.51162555    -0.00026827
      61     ang       1       5      12       0   114.97753090     0.00581032
      62     ang      10       5      12       0   120.51010903    -0.00547664
      63     ang       3       6       2       0    60.34909880    -0.02198147
      64     ang       2       7       3       0    68.73438458    -0.02620332
      65     ang       3       8       2       0    60.91822253    -0.00281355
      66     ang       3       9       2       0    60.36196994    -0.02145538
      67     ang       2      11       3       0    71.46895613    -0.02713812
      68     dih       2       1       5      10   179.70475615    -0.00656032
      69     dih       2       1       5      12    -0.60682479     0.00471826
      70     dih       4       1       5      10     0.78786272    -0.01293850
      71     dih       4       1       5      12   180.47628178    -0.00165991
      72     dih       3       1       5      10   127.19792052     0.00069633
      73     dih       3       1       5      12   -53.11366042     0.01197491
      74     dih       5       1       2       7     6.58934776    -0.05553485
      75     dih       5       1       2      11   172.40507948     0.05954548
      76     dih       5       1       2       3   267.82355395    -0.00575012
      77     dih       5       1       2       6   248.72445604    -0.00091739
      78     dih       5       1       2       8   267.63018102    -0.00458289
      79     dih       5       1       2       9   -72.90999303    -0.01027639
      80     dih       4       1       2       7   185.45500698    -0.04884136
      81     dih       4       1       2      11    -8.72926130     0.06623897
      82     dih       4       1       2       3    86.68921318     0.00094337
      83     dih       4       1       2       6    67.59011526     0.00577610
      84     dih       4       1       2       8    86.49584024     0.00211060
      85     dih       4       1       2       9   105.95566620    -0.00358289
      86     dih       3       1       2       7    98.76579380    -0.04978473
      87     dih       3       1       2      11   264.58152552     0.06529560
      88     dih       3       1       2       6   -19.09909792     0.00483273
      89     dih       3       1       2       8    -0.19337294     0.00116723
      90     dih       3       1       2       9    19.26645302    -0.00452626
      91     dih       6       3       9       2   102.80344713     0.03442459
      92     dih       8       3       9       2   257.97404428    -0.00487012
      93     dih       1       3       9       2    20.21273397     0.11743642
      94     dih       7       3       9       2   -20.82757737     0.00008512
      95     dih      11       3       9       2    -0.82983316    -0.00085589
      96     dih       9       3       6       2   257.20456702    -0.03415350
      97     dih       8       3       6       2   102.03605814     0.00659499
      98     dih       1       3       6       2   -20.05587421    -0.11603159
      99     dih       7       3       6       2     0.50977778    -0.00315577
     100     dih      11       3       6       2    21.20336169     0.01395225
     101     dih       1       2       7       3   248.81981221     0.13196436
     102     dih      11       2       7       3    82.35689316     0.02271265
     103     dih       6       2       7       3     0.42865742    -0.00272177
     104     dih       8       2       7       3    19.49572473     0.00570604
     105     dih       9       2       7       3   -19.75715398     0.00245573
     106     dih       9       3       8       2   102.43644104     0.01970007
     107     dih       6       3       8       2   257.54555346    -0.02164626
     108     dih       1       3       8       2    -0.17469275    -0.00044182
     109     dih       7       3       8       2    20.38784674     0.00304979
     110     dih      11       3       8       2   -20.49201297    -0.01513178
     111     dih       1       2      11       3   109.46783103    -0.14058077
     112     dih       7       2      11       3   -84.20460923    -0.03063987
     113     dih       6       2      11       3    20.12542704    -0.00032390
     114     dih       8       2      11       3   -19.65374941    -0.00655578
     115     dih       9       2      11       3    -0.67655224    -0.00005263
     116     dih       1       2       3       9    60.35709083     0.00168442
     117     dih       1       2       3       6   -59.58378857     0.00098117
     118     dih       1       2       3       8   180.38088491    -0.00170995
     119     dih       1       2       3       7   121.49053278    -0.00605122
     120     dih       1       2       3      11   238.63216334     0.00170896
     121     dih       7       2       3       9   -61.13344195     0.00773565
     122     dih       7       2       3       6   178.92567865     0.00703239
     123     dih       7       2       3       8    58.89035213     0.00434128
     124     dih       7       2       3       1   238.50946722     0.00605122
     125     dih       7       2       3      11   117.14163055     0.00776019
     126     dih      11       2       3       9   181.72492750    -0.00002454
     127     dih      11       2       3       6    61.78404809    -0.00072779
     128     dih      11       2       3       8   -58.25127842    -0.00341891
     129     dih      11       2       3       1   121.36783666    -0.00170896
     130     dih      11       2       3       7   242.85836945    -0.00776019
     131     dih       6       2       3       9   119.94087940     0.00070326
     132     dih       6       2       3       8   239.96467348    -0.00269111
     133     dih       6       2       3       1    59.58378857    -0.00098117
     134     dih       6       2       3       7   181.07432135    -0.00703239
     135     dih       6       2       3      11   -61.78404809     0.00072779
     136     dih       8       2       3       9   239.97620592     0.00339437
     137     dih       8       2       3       6   120.03532652     0.00269111
     138     dih       8       2       3       1   179.61911509     0.00170995
     139     dih       8       2       3       7   -58.89035213    -0.00434128
     140     dih       8       2       3      11    58.25127842     0.00341891
     141     dih       9       2       3       6   240.05912060    -0.00070326
     142     dih       9       2       3       8   120.02379408    -0.00339437
     143     dih       9       2       3       1   -60.35709083    -0.00168442
     144     dih       9       2       3       7    61.13344195    -0.00773565
     145     dih       9       2       3      11   178.27507250     0.00002454
     146     dih       5       1       3       9    -6.77034695    -0.00134112
     147     dih       5       1       3       6   234.42422345    -0.00547459
     148     dih       5       1       3       8   113.90116093    -0.00581428
     149     dih       5       1       3       2   113.46364067    -0.00445548
     150     dih       5       1       3       7    81.65480414     0.07262569
     151     dih       5       1       3      11   145.55887998    -0.07274141
     152     dih       2       1       3       9   239.76601238     0.00311436
     153     dih       2       1       3       6   120.96058278    -0.00101911
     154     dih       2       1       3       8     0.43752026    -0.00135880
     155     dih       2       1       3       7   -31.80883653     0.07708117
     156     dih       2       1       3      11    32.09523931    -0.06828593
     157     dih       4       1       3       9   123.83202792     0.00804403
     158     dih       4       1       3       6     5.02659832     0.00391056
     159     dih       4       1       3       8   244.50353581     0.00357087
     160     dih       4       1       3       2   244.06601554     0.00492967
     161     dih       4       1       3       7   212.25717902     0.08201084
     162     dih       4       1       3      11   -83.83874515    -0.06335626
     163     dih       1       2       6       3   124.94049954    -0.04046582
     164     dih       7       2       6       3    -1.13833457     0.00724847
     165     dih      11       2       6       3   245.53386107    -0.00423160
     166     dih       8       2       6       3   -32.03835469    -0.00448970
     167     dih       9       2       6       3    31.95942390    -0.00026430
     168     dih       1       2       8       3     0.48135565    -0.00268438
     169     dih       7       2       8       3   241.70588847    -0.00237838
     170     dih      11       2       8       3   117.86921143    -0.00167288
     171     dih       6       2       8       3    31.80849728    -0.00574724
     172     dih       9       2       8       3   -31.81519904     0.00265798
     173     dih       1       2       9       3   235.75386128     0.04322440
     174     dih       7       2       9       3   116.15654625     0.01559454
     175     dih      11       2       9       3     1.78990698     0.00011118
     176     dih       6       2       9       3   -31.95808225     0.00017170
     177     dih       8       2       9       3    32.04377050     0.00769845
     178     dih       9       3       7       2   119.47724807     0.01441403
     179     dih       6       3       7       2    -1.24819073     0.00790922
     180     dih       8       3       7       2   238.68120565     0.00591918
     181     dih       1       3       7       2    31.07008022     0.11054861
     182     dih      11       3       7       2   -33.99657067    -0.00873590
     183     dih       9       3      11       2     2.00982581     0.00067784
     184     dih       6       3      11       2   241.13946899    -0.00724600
     185     dih       8       3      11       2   121.89186562    -0.00633065
     186     dih       1       3      11       2   -30.96609702    -0.10010410
     187     dih       7       3      11       2    33.57363921    -0.01291339
 
----------------------------------------------------------------------
Geometry Convergence after Step   2       (Hartree/Angstrom,Angstrom)
----------------------------------------------------------------------
current energy                               -2.32786166 Hartree
energy change                      -0.00120981     0.00012000    F
constrained gradient max            0.01627946     0.00100000    F
constrained gradient rms            0.00533963     0.00066667    F
gradient max                        0.01627946
gradient rms                        0.00533963
cart. step max                      0.04520432     0.01000000    F
cart. step rms                      0.01647690     0.00666667    F
 
 
--------
Geometry
--------
Formula: C4H7O
Atoms
  Index Symbol   x (angstrom)   y (angstrom)   z (angstrom)
      1      C     0.81674346    -0.23788651     0.85368248
      2      C     0.80383675    -0.23201556    -0.42942223
      3      C    -1.53250177    -0.46949758    -1.30936273
      4      H     0.85928746    -1.16888007     1.41710955
      5      C     0.73894798     0.99386379     1.63849518
      6      H    -1.75457279    -1.42745619    -0.85496785
      7      H     0.85740620     0.70566677    -0.97702363
      8      H    -1.27819141    -0.44359554    -2.36214146
      9      H    -1.94305375     0.42293337    -0.85279483
     10      O     0.74587136     1.04191125     2.86165113
     11      H     0.99373213    -1.12993307    -0.99630173
     12      H     0.69207326     1.91715031     1.04493055
 
Total System Charge             0.00000
 
 *** GOStep3 ***

 Energy gradients wrt nuclear displacements
 ==========================================

     Atom      Cartesian (a.u./angstrom)
                 X         Y         Z
 ----------------------------------------
     1 C     0.003273  0.005896 -0.157559
     2 C    -0.012860 -0.006923  0.154695
     3 C     0.007513  0.000907  0.001697
     4 H    -0.000470 -0.000962 -0.004354
     5 C    -0.003818  0.013767 -0.024822
     6 H    -0.000154  0.000080 -0.000215
     7 H     0.002617 -0.000391  0.004389
     8 H    -0.000439 -0.000236  0.000924
     9 H    -0.000254 -0.000015  0.000057
    10 O     0.001102 -0.001034  0.005289
    11 H     0.001692  0.006144  0.008560
    12 H     0.001798 -0.017233  0.011341
 ----------------------------------------
 Mulliken charges used for AMS results%charges...
Hessian eigenvector     1(     0.003) has overlap with TSRC:    0.14814E-02
Hessian eigenvector     2(     0.007) has overlap with TSRC:    0.25059E-02
Hessian eigenvector     3(     0.008) has overlap with TSRC:    0.20740E-02
Hessian eigenvector     4(     0.009) has overlap with TSRC:    0.38271E-02
Hessian eigenvector     5(     0.010) has overlap with TSRC:    0.39616E-02
Hessian eigenvector     6(     0.021) has overlap with TSRC:    0.11886E-02
Hessian eigenvector     7(     0.022) has overlap with TSRC:    0.18120E-02
Hessian eigenvector     8(     0.024) has overlap with TSRC:    0.93629E-03
Hessian eigenvector     9(     0.024) has overlap with TSRC:    0.56056E-03
Hessian eigenvector    10(     0.039) has overlap with TSRC:    0.12149E-01
Hessian eigenvector    11(     0.047) has overlap with TSRC:    0.24433E-02
Hessian eigenvector    12(     0.056) has overlap with TSRC:    0.23172E-02
Hessian eigenvector    13(     0.062) has overlap with TSRC:    0.40441E-02
Hessian eigenvector    14(     0.062) has overlap with TSRC:    0.35774E-02
Hessian eigenvector    15(     0.066) has overlap with TSRC:    0.18568E-01
Hessian eigenvector    16(     0.074) has overlap with TSRC:    0.11266E-01
Hessian eigenvector    17(     0.103) has overlap with TSRC:    0.42792E-01
Hessian eigenvector    18(     0.139) has overlap with TSRC:    0.30555E-01
Hessian eigenvector    19(     0.226) has overlap with TSRC:    0.17025E-01
Hessian eigenvector    20(     0.248) has overlap with TSRC:    0.24641E-01
Hessian eigenvector    21(     0.313) has overlap with TSRC:    0.19395E-01
Hessian eigenvector    22(     0.361) has overlap with TSRC:    0.76385E-01
Hessian eigenvector    23(     0.367) has overlap with TSRC:    0.37387E-01
Hessian eigenvector    24(     0.376) has overlap with TSRC:    0.10326E+00
Hessian eigenvector    25(     0.382) has overlap with TSRC:    0.72392E-01
Hessian eigenvector    26(     0.401) has overlap with TSRC:    0.10434E+00
Hessian eigenvector    27(     0.440) has overlap with TSRC:    0.52352E+00
Hessian eigenvector    28(     0.501) has overlap with TSRC:    0.31098E-01
Hessian eigenvector    29(     0.535) has overlap with TSRC:    0.15642E+00
Hessian eigenvector    30(     0.606) has overlap with TSRC:    0.37632E-01
Hessian eigenvector    27 has the largest overlap with TSRC:  0.52352
           Primitive Internal Coordinates (atoms in internal order)
-------------------------------------------------------------------------------
    index    type      i       j       k       l   value(A,deg)     Max Ovl Vect
-------------------------------------------------------------------------------
       1     bnd       1       5       0       0     1.46259765    -0.26105732
       2     bnd       1       2       0       0     1.28318306     0.74408132
       3     bnd       3       9       0       0     1.08325444     0.04174536
       4     bnd       1       4       0       0     1.08904044    -0.06740380
       5     bnd       3       6       0       0     1.08327048     0.03945997
       6     bnd       2       7       0       0     1.08719140     0.18306574
       7     bnd       3       8       0       0     1.08336870     0.14990292
       8     bnd       5      10       0       0     1.22411886     0.06826150
       9     bnd       2      11       0       0     1.07873466     0.17716746
      10     bnd       5      12       0       0     1.09862378    -0.10115005
      11     bnd       2       3       0       0     2.50782190    -0.06701213
      12     bnd       1       3       0       0     3.20177473     0.34942859
      13     bnd       2       6       0       0     2.85580580    -0.02402589
      14     bnd       2       8       0       0     2.84868583    -0.00558565
      15     bnd       2       9       0       0     2.85545266    -0.02368337
      16     bnd       3       7       0       0     2.68386301     0.01561257
      17     bnd       3      11       0       0     2.62983649     0.00846802
      18     ang       5       1       2       0   122.15200849     0.02934824
      19     ang       5       1       4       0   116.38591535    -0.04803286
      20     ang       5       1       3       0   112.60652019     0.03998748
      21     ang       2       1       4       0   121.44189917     0.01858955
      22     ang       2       1       3       0    46.95403438    -0.05796128
      23     ang       4       1       3       0   108.44176425     0.03394510
      24     ang       1       2       7       0   120.47113358     0.00641679
      25     ang       1       2      11       0   121.32507539     0.00410899
      26     ang       1       2       3       0   111.08756154    -0.05058246
      27     ang       1       2       6       0    98.98044062    -0.05306434
      28     ang       1       2       8       0   133.26943984    -0.01977145
      29     ang       1       2       9       0    99.14795407    -0.05332712
      30     ang       7       2      11       0   116.39458013    -0.00105821
      31     ang       7       2       3       0    87.18254647     0.00546408
      32     ang       7       2       6       0   109.27621001     0.01453182
      33     ang       7       2       8       0    76.01556538    -0.00983607
      34     ang       7       2       9       0    76.99089451     0.00144766
      35     ang      11       2       3       0    84.30612099     0.00712925
      36     ang      11       2       6       0    74.39304141     0.00360489
      37     ang      11       2       8       0    73.16016827    -0.00817774
      38     ang      11       2       9       0   106.40040980     0.01663498
      39     ang       6       2       8       0    38.09857501     0.03399078
      40     ang       6       2       9       0    38.01191542     0.01558828
      41     ang       8       2       9       0    38.12700161     0.03432853
      42     ang       9       3       6       0   118.29754446    -0.00546183
      43     ang       9       3       8       0   118.61008203     0.00025130
      44     ang       9       3       2       0    97.30669023     0.00997876
      45     ang       9       3       1       0    86.20121832    -0.04553488
      46     ang       9       3       7       0    85.67389611    -0.00894281
      47     ang       9       3      11       0   121.38508357     0.04837120
      48     ang       6       3       8       0   118.48226285     0.00038376
      49     ang       6       3       2       0    97.32765463     0.01042109
      50     ang       6       3       1       0    86.04369940    -0.04611326
      51     ang       6       3       7       0   121.18593101     0.04860562
      52     ang       6       3      11       0    85.69357350    -0.00813559
      53     ang       8       3       2       0    96.89313880    -0.00915458
      54     ang       8       3       1       0   118.85111727     0.09938694
      55     ang       8       3       7       0    84.30882075    -0.02883011
      56     ang       8       3      11       0    84.04151924    -0.02937835
      57     ang       1       3       7       0    39.76280621     0.12517864
      58     ang       1       3      11       0    39.90739528     0.12544177
      59     ang       7       3      11       0    40.52060083     0.06313519
      60     ang       1       5      10       0   124.67501008     0.03662348
      61     ang       1       5      12       0   114.84218327    -0.02418730
      62     ang      10       5      12       0   120.47152787    -0.01238217
      63     ang       3       6       2       0    60.57234593    -0.01949497
      64     ang       2       7       3       0    68.95171125    -0.04366361
      65     ang       3       8       2       0    60.92449708    -0.02165612
      66     ang       3       9       2       0    60.58968440    -0.01950168
      67     ang       2      11       3       0    71.60414093    -0.04556087
      68     dih       2       1       5      10   179.90579501    -0.02283094
      69     dih       2       1       5      12    -1.31592449    -0.01357428
      70     dih       4       1       5      10     1.51849397    -0.01739203
      71     dih       4       1       5      12   180.29677448    -0.00813536
      72     dih       3       1       5      10   127.61105612     0.02550646
      73     dih       3       1       5      12   -53.61066338     0.03476313
      74     dih       5       1       2       7     7.58241713    -0.02174646
      75     dih       5       1       2      11   171.71349306     0.02362146
      76     dih       5       1       2       3   268.04098381     0.00148177
      77     dih       5       1       2       6   248.84738888    -0.00383186
      78     dih       5       1       2       8   267.86509086     0.00146012
      79     dih       5       1       2       9   -72.64155730     0.00704804
      80     dih       4       1       2       7   185.88907354    -0.02815576
      81     dih       4       1       2      11    -9.97985053     0.01721216
      82     dih       4       1       2       3    86.34764022    -0.00492753
      83     dih       4       1       2       6    67.15404529    -0.01024116
      84     dih       4       1       2       8    86.17174727    -0.00494918
      85     dih       4       1       2       9   105.66509911     0.00063874
      86     dih       3       1       2       7    99.54143332    -0.02322823
      87     dih       3       1       2      11   263.67250925     0.02213969
      88     dih       3       1       2       6   -19.19359493    -0.00531363
      89     dih       3       1       2       8    -0.17589295    -0.00002165
      90     dih       3       1       2       9    19.31745889     0.00556627
      91     dih       6       3       9       2   102.41979552     0.01652452
      92     dih       8       3       9       2   258.00843486     0.00478538
      93     dih       1       3       9       2    18.98192907     0.09364199
      94     dih       7       3       9       2   -20.88191344    -0.03338270
      95     dih      11       3       9       2    -0.79153329    -0.00215288
      96     dih       9       3       6       2   257.59243443    -0.01626703
      97     dih       8       3       6       2   101.97225969    -0.00449611
      98     dih       1       3       6       2   -18.87621564    -0.09305247
      99     dih       7       3       6       2     0.63866158     0.00131903
     100     dih      11       3       6       2    21.13810901     0.03385812
     101     dih       1       2       7       3   247.10769803     0.05490281
     102     dih      11       2       7       3    82.22300460     0.01093723
     103     dih       6       2       7       3     0.53822857     0.00042130
     104     dih       8       2       7       3    19.40927789     0.02727154
     105     dih       9       2       7       3   -19.83201004    -0.00859938
     106     dih       9       3       8       2   102.23160140     0.00633979
     107     dih       6       3       8       2   257.77488210    -0.00688759
     108     dih       1       3       8       2    -0.14482128    -0.00081091
     109     dih       7       3       8       2    20.32042460     0.03287382
     110     dih      11       3       8       2   -20.41893365    -0.03283174
     111     dih       1       2      11       3   111.25979868    -0.05468204
     112     dih       7       2      11       3   -83.99420866    -0.00999005
     113     dih       6       2      11       3    20.12967273     0.00820788
     114     dih       8       2      11       3   -19.59405299    -0.02744421
     115     dih       9       2      11       3    -0.64935142    -0.00073598
     116     dih       1       2       3       9    60.22122012    -0.00071820
     117     dih       1       2       3       6   -59.67003058     0.00024511
     118     dih       1       2       3       8   180.33922131    -0.00035282
     119     dih       1       2       3       7   121.68047786     0.00076530
     120     dih       1       2       3      11   238.56554039    -0.00173611
     121     dih       7       2       3       9   -61.45925775    -0.00148349
     122     dih       7       2       3       6   178.64949155    -0.00052019
     123     dih       7       2       3       8    58.65874344    -0.00111812
     124     dih       7       2       3       1   238.31952214    -0.00076530
     125     dih       7       2       3      11   116.88506252    -0.00250141
     126     dih      11       2       3       9   181.65567973     0.00101791
     127     dih      11       2       3       6    61.76442903     0.00198121
     128     dih      11       2       3       8   -58.22631908     0.00138329
     129     dih      11       2       3       1   121.43445961     0.00173611
     130     dih      11       2       3       7   243.11493748     0.00250141
     131     dih       6       2       3       9   119.89125070    -0.00096330
     132     dih       6       2       3       8   240.00925189    -0.00059793
     133     dih       6       2       3       1    59.67003058    -0.00024511
     134     dih       6       2       3       7   181.35050845     0.00052019
     135     dih       6       2       3      11   -61.76442903    -0.00198121
     136     dih       8       2       3       9   239.88199881    -0.00036537
     137     dih       8       2       3       6   119.99074811     0.00059793
     138     dih       8       2       3       1   179.66077869     0.00035282
     139     dih       8       2       3       7   -58.65874344     0.00111812
     140     dih       8       2       3      11    58.22631908    -0.00138329
     141     dih       9       2       3       6   240.10874930     0.00096330
     142     dih       9       2       3       8   120.11800119     0.00036537
     143     dih       9       2       3       1   -60.22122012     0.00071820
     144     dih       9       2       3       7    61.45925775     0.00148349
     145     dih       9       2       3      11   178.34432027    -0.00101791
     146     dih       5       1       3       9    -6.79722257     0.00674053
     147     dih       5       1       3       6   234.46371871     0.00033470
     148     dih       5       1       3       8   113.95517357     0.00395435
     149     dih       5       1       3       2   113.57067887     0.00389418
     150     dih       5       1       3       7    81.00229595     0.03981985
     151     dih       5       1       3      11   146.44839115    -0.03252765
     152     dih       2       1       3       9   239.63209856     0.00284635
     153     dih       2       1       3       6   120.89303984    -0.00355948
     154     dih       2       1       3       8     0.38449470     0.00006018
     155     dih       2       1       3       7   -32.56838292     0.03592568
     156     dih       2       1       3      11    32.87771228    -0.03642182
     157     dih       4       1       3       9   123.46720206     0.00237986
     158     dih       4       1       3       6     4.72814334    -0.00402597
     159     dih       4       1       3       8   244.21959820    -0.00040631
     160     dih       4       1       3       2   243.83510350    -0.00046649
     161     dih       4       1       3       7   211.26672058     0.03545918
     162     dih       4       1       3      11   -83.28718422    -0.03688831
     163     dih       1       2       6       3   125.38063439    -0.01550455
     164     dih       7       2       6       3    -1.42900356    -0.00066257
     165     dih      11       2       6       3   245.53621154     0.00165424
     166     dih       8       2       6       3   -32.00378346    -0.01984880
     167     dih       9       2       6       3    31.98786045     0.00254059
     168     dih       1       2       8       3     0.43467751    -0.00044346
     169     dih       7       2       8       3   241.53490303     0.00367572
     170     dih      11       2       8       3   117.89079260    -0.00429907
     171     dih       6       2       8       3    31.87758721    -0.01318370
     172     dih       9       2       8       3   -31.81488952     0.01267297
     173     dih       1       2       9       3   235.11053880     0.01513497
     174     dih       7       2       9       3   115.77239199    -0.00149569
     175     dih      11       2       9       3     1.71740621     0.00123428
     176     dih       6       2       9       3   -31.98228436    -0.00184781
     177     dih       8       2       9       3    31.93521172     0.01965926
     178     dih       9       3       7       2   119.09276064    -0.00026067
     179     dih       6       3       7       2    -1.56579188    -0.00124574
     180     dih       8       3       7       2   238.44203713     0.00541630
     181     dih       1       3       7       2    29.83548332     0.06386765
     182     dih      11       3       7       2   -34.07777303    -0.00926880
     183     dih       9       3      11       2     1.92379186     0.00217708
     184     dih       6       3      11       2   241.19786273     0.00045762
     185     dih       8       3      11       2   121.94307409    -0.00529291
     186     dih       1       3      11       2   -29.82273979    -0.06348664
     187     dih       7       3      11       2    33.73924019     0.00902571
 
----------------------------------------------------------------------
Geometry Convergence after Step   3       (Hartree/Angstrom,Angstrom)
----------------------------------------------------------------------
current energy                               -2.32182276 Hartree
energy change                       0.00603889     0.00012000    F
constrained gradient max            0.15756589     0.00100000    F
constrained gradient rms            0.03745929     0.00066667    F
gradient max                        0.15756589
gradient rms                        0.03745929
cart. step max                      0.04848820     0.01000000    F
cart. step rms                      0.01872292     0.00666667    F
 
 
--------
Geometry
--------
Formula: C4H7O
Atoms
  Index Symbol   x (angstrom)   y (angstrom)   z (angstrom)
      1      C     0.81266077    -0.25692748     0.82311941
      2      C     0.81445835    -0.23878580    -0.41794226
      3      C    -1.52693726    -0.46713515    -1.29993860
      4      H     0.85030303    -1.20601017     1.37707315
      5      C     0.72777803     1.00842000     1.63042387
      6      H    -1.74885641    -1.42379466    -0.85758063
      7      H     0.86865854     0.67997144    -0.94019020
      8      H    -1.28062893    -0.43151842    -2.33104733
      9      H    -1.93514899     0.41577114    -0.83856471
     10      O     0.73119489     1.04143287     2.84117500
     11      H     0.99775854    -1.11480132    -0.98038283
     12      H     0.68833835     1.96563851     1.02770956
 
Total System Charge             0.00000
 
 *** GOStep4 ***

 Energy gradients wrt nuclear displacements
 ==========================================

     Atom      Cartesian (a.u./angstrom)
                 X         Y         Z
 ----------------------------------------
     1 C     0.006734 -0.008248 -0.293640
     2 C    -0.013516 -0.003067  0.238146
     3 C     0.015465  0.002252 -0.017376
     4 H     0.000406 -0.015150 -0.004463
     5 C    -0.005972  0.020016  0.019169
     6 H     0.001082  0.007020 -0.004144
     7 H     0.001623 -0.034272  0.026865
     8 H    -0.008307 -0.001172  0.030859
     9 H     0.002620 -0.006964 -0.004475
    10 O     0.001870 -0.004520 -0.015518
    11 H    -0.002720  0.030812  0.027180
    12 H     0.000717  0.013293 -0.002602
 ----------------------------------------
 Mulliken charges used for AMS results%charges...
Hessian eigenvector     1(     0.003) has overlap with TSRC:    0.15344E-02
Hessian eigenvector     2(     0.007) has overlap with TSRC:    0.42758E-03
Hessian eigenvector     3(     0.008) has overlap with TSRC:    0.95282E-03
Hessian eigenvector     4(     0.009) has overlap with TSRC:    0.17173E-01
Hessian eigenvector     5(     0.010) has overlap with TSRC:    0.36480E-02
Hessian eigenvector     6(     0.017) has overlap with TSRC:    0.33411E-01
Hessian eigenvector     7(     0.021) has overlap with TSRC:    0.46651E-02
Hessian eigenvector     8(     0.024) has overlap with TSRC:    0.56068E-02
Hessian eigenvector     9(     0.024) has overlap with TSRC:    0.11695E-03
Hessian eigenvector    10(     0.035) has overlap with TSRC:    0.18557E-01
Hessian eigenvector    11(     0.042) has overlap with TSRC:    0.27706E-01
Hessian eigenvector    12(     0.055) has overlap with TSRC:    0.18385E-01
Hessian eigenvector    13(     0.058) has overlap with TSRC:    0.27524E-01
Hessian eigenvector    14(     0.062) has overlap with TSRC:    0.20668E-02
Hessian eigenvector    15(     0.063) has overlap with TSRC:    0.14208E-02
Hessian eigenvector    16(     0.072) has overlap with TSRC:    0.56927E-02
Hessian eigenvector    17(     0.098) has overlap with TSRC:    0.47463E-01
Hessian eigenvector    18(     0.133) has overlap with TSRC:    0.18763E-01
Hessian eigenvector    19(     0.225) has overlap with TSRC:    0.27397E-01
Hessian eigenvector    20(     0.248) has overlap with TSRC:    0.27550E-01
Hessian eigenvector    21(     0.289) has overlap with TSRC:    0.67276E-01
Hessian eigenvector    22(     0.317) has overlap with TSRC:    0.23348E-01
Hessian eigenvector    23(     0.364) has overlap with TSRC:    0.12197E-01
Hessian eigenvector    24(     0.368) has overlap with TSRC:    0.49622E-02
Hessian eigenvector    25(     0.380) has overlap with TSRC:    0.11106E-01
Hessian eigenvector    26(     0.391) has overlap with TSRC:    0.47944E-01
Hessian eigenvector    27(     0.445) has overlap with TSRC:    0.30425E+00
Hessian eigenvector    28(     0.501) has overlap with TSRC:    0.75921E-01
Hessian eigenvector    29(     0.543) has overlap with TSRC:    0.47515E+00
Hessian eigenvector    30(     0.606) has overlap with TSRC:    0.12233E-01
Hessian eigenvector    29 has the largest overlap with TSRC:  0.47515
           Primitive Internal Coordinates (atoms in internal order)
-------------------------------------------------------------------------------
    index    type      i       j       k       l   value(A,deg)     Max Ovl Vect
-------------------------------------------------------------------------------
       1     bnd       1       5       0       0     1.50334620    -0.43006702
       2     bnd       1       2       0       0     1.24119557    -0.67471679
       3     bnd       3       9       0       0     1.07658079    -0.04568817
       4     bnd       1       4       0       0     1.09956339     0.06018910
       5     bnd       3       6       0       0     1.07709151    -0.04367586
       6     bnd       2       7       0       0     1.05820387    -0.19659062
       7     bnd       3       8       0       0     1.06071746    -0.16080232
       8     bnd       5      10       0       0     1.21120593    -0.02417714
       9     bnd       2      11       0       0     1.05704377    -0.16905549
[...]
     179     dih       6       3       7       2     2.66696576     0.11367193
     180     dih       8       3       7       2   241.75521940     0.09454629
     181     dih       1       3       7       2    29.77091762    -0.05064854
     182     dih      11       3       7       2   -34.27080026    -0.02095843
     183     dih       9       3      11       2     6.50579511     0.15654819
     184     dih       6       3      11       2   244.80639647     0.13472394
     185     dih       8       3      11       2   125.76497159     0.13798689
     186     dih       1       3      11       2   -29.58366328     0.04499637
     187     dih       7       3      11       2    33.60134328     0.02567268
 
----------------------------------------------------------------------
Geometry Convergence after Step   8       (Hartree/Angstrom,Angstrom)
----------------------------------------------------------------------
current energy                               -2.31103260 Hartree
energy change                      -0.00508696     0.00012000    F
constrained gradient max            0.24680493     0.00100000    F
constrained gradient rms            0.05886537     0.00066667    F
gradient max                        0.24680493
gradient rms                        0.05886537
cart. step max                      0.02870773     0.01000000    F
cart. step rms                      0.01128796     0.00666667    F
 
 
--------
Geometry
--------
Formula: C4H7O
Atoms
  Index Symbol   x (angstrom)   y (angstrom)   z (angstrom)
      1      C     0.81514383    -0.24187125     0.84478750
      2      C     0.81440956    -0.21368799    -0.42370517
      3      C    -1.52655496    -0.46479446    -1.30104097
      4      H     0.86421943    -1.18854180     1.39495653
      5      C     0.72357750     0.96684743     1.62711783
      6      H    -1.77065066    -1.37975691    -0.78499863
      7      H     0.85535092     0.71325428    -0.94540005
      8      H    -1.27331350    -0.51651286    -2.33496982
      9      H    -1.91805506     0.46187565    -0.91258468
     10      O     0.74932238     0.99684753     2.84278905
     11      H     1.00769846    -1.08774176    -1.00106041
     12      H     0.65843100     1.92634311     1.02796324
 
Total System Charge             0.00000
 
 *** GOStep9 ***

 Energy gradients wrt nuclear displacements
 ==========================================

     Atom      Cartesian (a.u./angstrom)
                 X         Y         Z
 ----------------------------------------
     1 C     0.003556  0.031429 -0.182270
     2 C    -0.010512  0.003399  0.173086
     3 C     0.011686  0.000094 -0.013930
     4 H    -0.000165 -0.009087 -0.001745
     5 C    -0.003760 -0.026486 -0.008000
     6 H     0.000944  0.005138 -0.003620
     7 H     0.001742 -0.026814  0.019094
     8 H    -0.006561  0.001012  0.023850
     9 H     0.001788 -0.005352 -0.002924
    10 O     0.002401 -0.006513 -0.016295
    11 H    -0.001855  0.021538  0.018630
    12 H     0.000737  0.011642 -0.005876
 ----------------------------------------
 Mulliken charges used for AMS results%charges...
Hessian eigenvector     1(    -0.009) has overlap with TSRC:    0.35759E-01
Hessian eigenvector     1 has the largest overlap with TSRC:  0.03576
           Primitive Internal Coordinates (atoms in internal order)
-------------------------------------------------------------------------------
    index    type      i       j       k       l   value(A,deg)     Max Ovl Vect
-------------------------------------------------------------------------------
       1     bnd       1       5       0       0     1.44271480     0.03685838
       2     bnd       1       2       0       0     1.26880593    -0.05407422
       3     bnd       3       9       0       0     1.07837291     0.00759756
       4     bnd       1       4       0       0     1.09602897    -0.01411905
       5     bnd       3       6       0       0     1.07844271     0.00580814
       6     bnd       2       7       0       0     1.06445465     0.03062895
       7     bnd       3       8       0       0     1.06574617     0.02364364
       8     bnd       5      10       0       0     1.21631383     0.00066932
       9     bnd       2      11       0       0     1.06520875     0.02273174
      10     bnd       5      12       0       0     1.13307645    -0.05186667
      11     bnd       2       3       0       0     2.51254601     0.01991377
      12     bnd       1       3       0       0     3.18399557     0.13194027
      13     bnd       2       6       0       0     2.85880850     0.00366763
      14     bnd       2       8       0       0     2.84661608     0.03440767
      15     bnd       2       9       0       0     2.85687807    -0.00585056
      16     bnd       3       7       0       0     2.68099887     0.00503428
      17     bnd       3      11       0       0     2.62687877     0.02421254
      18     ang       5       1       2       0   121.56612564     0.00430518
      19     ang       5       1       4       0   117.01880561    -0.02639148
      20     ang       5       1       3       0   112.17479503     0.00929714
      21     ang       2       1       4       0   121.40292734     0.02170727
      22     ang       2       1       3       0    47.72837880    -0.04915176
      23     ang       4       1       3       0   108.10466846     0.03238322
      24     ang       1       2       7       0   120.61754446     0.00636953
      25     ang       1       2      11       0   121.57042477     0.00230517
      26     ang       1       2       3       0   110.32928787     0.07991363
      27     ang       1       2       6       0    96.76578469     0.03156055
      28     ang       1       2       8       0   132.01399171     0.08142485
      29     ang       1       2       9       0   100.18851768     0.11644241
      30     ang       7       2      11       0   116.22658153    -0.02679836
      31     ang       7       2       3       0    87.23324844    -0.01268642
      32     ang       7       2       6       0   109.14945897    -0.01030582
      33     ang       7       2       8       0    77.98202721     0.02959735
      34     ang       7       2       9       0    75.34476993    -0.05433521
      35     ang      11       2       3       0    84.13400291    -0.00061524
      36     ang      11       2       6       0    76.16610336     0.05024685
      37     ang      11       2       8       0    71.45045441    -0.05263102
      38     ang      11       2       9       0   105.95231528     0.00044543
      39     ang       6       2       8       0    37.68145961     0.00236429
      40     ang       6       2       9       0    37.81083102     0.00297838
      41     ang       8       2       9       0    37.70165800     0.00515937
      42     ang       9       3       6       0   118.32785424     0.00282991
      43     ang       9       3       8       0   118.51821193     0.00811943
      44     ang       9       3       2       0    97.27253514    -0.01577763
      45     ang       9       3       1       0    87.94100911     0.04776499
      46     ang       9       3       7       0    84.09777036    -0.06062278
      47     ang       9       3      11       0   120.85666812    -0.01507585
      48     ang       6       3       8       0   118.47874300    -0.00096267
      49     ang       6       3       2       0    97.38807333    -0.00992520
      50     ang       6       3       1       0    84.45536864    -0.04124591
      51     ang       6       3       7       0   120.69131074    -0.00287635
      52     ang       6       3      11       0    87.85210868     0.04273135
      53     ang       8       3       2       0    97.01997139     0.00250719
      54     ang       8       3       1       0   118.84622043    -0.02870048
      55     ang       8       3       7       0    86.49736196     0.04335697
      56     ang       8       3      11       0    82.53265480    -0.05173465
      57     ang       1       3       7       0    39.32392610    -0.01798355
      58     ang       1       3      11       0    39.65643432    -0.02155388
      59     ang       7       3      11       0    39.82011081     0.00152681
      60     ang       1       5      10       0   124.14554934     0.00073689
      61     ang       1       5      12       0   115.23737647    -0.00832647
      62     ang      10       5      12       0   120.58639310     0.00779264
      63     ang       3       6       2       0    60.64303035     0.00851467
      64     ang       2       7       3       0    69.40258919     0.00678098
      65     ang       3       8       2       0    61.16669008    -0.00448557
      66     ang       3       9       2       0    60.73844647     0.01297954
      67     ang       2      11       3       0    72.07633382    -0.00218212
      68     dih       2       1       5      10   181.66437411    -0.01360616
      69     dih       2       1       5      12    -0.34627634     0.02149457
      70     dih       4       1       5      10     2.91515180     0.00849488
      71     dih       4       1       5      12   180.90450135     0.04359561
      72     dih       3       1       5      10   128.68474433     0.03990209
      73     dih       3       1       5      12   -53.32590612     0.07500282
      74     dih       5       1       2       7     6.87356433     0.05827498
      75     dih       5       1       2      11   171.97457797    -0.03257892
      76     dih       5       1       2       3   267.69881782     0.01924736
      77     dih       5       1       2       6   249.86919409     0.04503971
      78     dih       5       1       2       8   264.89858969    -0.05319169
      79     dih       5       1       2       9   -72.03723936     0.05428375
      80     dih       4       1       2       7   185.56806814     0.03457484
      81     dih       4       1       2      11    -9.33091822    -0.05627907
      82     dih       4       1       2       3    86.39332164    -0.00445279
      83     dih       4       1       2       6    68.56369790     0.02133956
      84     dih       4       1       2       8    83.59309351    -0.07689183
      85     dih       4       1       2       9   106.65726445     0.03058361
      86     dih       3       1       2       7    99.17474650     0.03902763
      87     dih       3       1       2      11   264.27576014    -0.05182628
      88     dih       3       1       2       6   -17.82962374     0.02579235
      89     dih       3       1       2       8    -2.80022813    -0.07243904
      90     dih       3       1       2       9    20.26394282     0.03503639
      91     dih       6       3       9       2   102.47783304    -0.02000021
      92     dih       8       3       9       2   257.90329987     0.00423649
      93     dih       1       3       9       2    19.90220184     0.00126111
      94     dih       7       3       9       2   -19.33951101     0.01877950
      95     dih      11       3       9       2    -3.33382443    -0.06997225
      96     dih       9       3       6       2   257.58951978     0.02341113
      97     dih       8       3       6       2   102.15425594    -0.00310415
      98     dih       1       3       6       2   -17.76619206     0.05491011
      99     dih       7       3       6       2    -1.80079866    -0.05914325
     100     dih      11       3       6       2    21.84335106     0.03221783
     101     dih       1       2       7       3   247.94065258    -0.08718791
     102     dih      11       2       7       3    82.07530773    -0.00419877
     103     dih       6       2       7       3    -1.54631665    -0.04983217
     104     dih       8       2       7       3    19.94450006     0.02639987
     105     dih       9       2       7       3   -18.75209575     0.01716659
     106     dih       9       3       8       2   102.24352998    -0.01492659
     107     dih       6       3       8       2   257.63165071     0.01031796
     108     dih       1       3       8       2    -2.38833854    -0.06536479
     109     dih       7       3       8       2    20.89995977     0.03194595
     110     dih      11       3       8       2   -18.92046712     0.03064068
     111     dih       1       2      11       3   110.29041535     0.09390216
     112     dih       7       2      11       3   -83.98973791     0.01070177
     113     dih       6       2      11       3    20.80106467     0.02573079
     114     dih       8       2      11       3   -18.20344150     0.02640097
     115     dih       9       2      11       3    -2.76243501    -0.05784726
     116     dih       1       2       3       9    65.56209656     0.13684392
     117     dih       1       2       3       6   -54.36624943     0.13982176
     118     dih       1       2       3       8   185.60576090     0.14238737
     119     dih       1       2       3       7   121.72651792     0.01493476
     120     dih       1       2       3      11   238.45299874    -0.01039368
     121     dih       7       2       3       9   -56.16442136     0.12190916
     122     dih       7       2       3       6   183.90723265     0.12488700
     123     dih       7       2       3       8    63.87924298     0.12745261
     124     dih       7       2       3       1   238.27348208    -0.01493476
     125     dih       7       2       3      11   116.72648082    -0.02532844
     126     dih      11       2       3       9   187.10909782     0.14723759
     127     dih      11       2       3       6    67.18075183     0.15021543
     128     dih      11       2       3       8   -52.84723784     0.15278105
     129     dih      11       2       3       1   121.54700126     0.01039368
     130     dih      11       2       3       7   243.27351918     0.02532844
     131     dih       6       2       3       9   119.92834599    -0.00297784
     132     dih       6       2       3       8   239.97201033     0.00256561
     133     dih       6       2       3       1    54.36624943    -0.13982176
     134     dih       6       2       3       7   176.09276735    -0.12488700
     135     dih       6       2       3      11   -67.18075183    -0.15021543
     136     dih       8       2       3       9   239.95633566    -0.00554345
     137     dih       8       2       3       6   120.02798967    -0.00256561
     138     dih       8       2       3       1   174.39423910    -0.14238737
     139     dih       8       2       3       7   -63.87924298    -0.12745261
     140     dih       8       2       3      11    52.84723784    -0.15278105
     141     dih       9       2       3       6   240.07165401     0.00297784
     142     dih       9       2       3       8   120.04366434     0.00554345
     143     dih       9       2       3       1   -65.56209656    -0.13684392
     144     dih       9       2       3       7    56.16442136    -0.12190916
     145     dih       9       2       3      11   172.89090218    -0.14723759
     146     dih       5       1       3       9    -2.18617540     0.12672751
     147     dih       5       1       3       6   239.09283473     0.12484186
     148     dih       5       1       3       8   119.52392159     0.15921879
     149     dih       5       1       3       2   113.16913447    -0.00435647
     150     dih       5       1       3       7    81.00897172    -0.01972175
     151     dih       5       1       3      11   145.76178374     0.01101235
     152     dih       2       1       3       9   244.64469014     0.13108398
     153     dih       2       1       3       6   125.92370027     0.12919833
     154     dih       2       1       3       8     6.35478712     0.16357526
     155     dih       2       1       3       7   -32.16016275    -0.01536527
     156     dih       2       1       3      11    32.59264928     0.01536882
     157     dih       4       1       3       9   128.30824249     0.12569224
     158     dih       4       1       3       6     9.58725262     0.12380659
     159     dih       4       1       3       8   250.01833948     0.15818352
     160     dih       4       1       3       2   243.66355236    -0.00539174
     161     dih       4       1       3       7   211.50338961    -0.02075702
     162     dih       4       1       3      11   -83.74379836     0.00997708
     163     dih       1       2       6       3   129.87214482     0.15217437
     164     dih       7       2       6       3     4.13165631     0.13242924
     165     dih      11       2       6       3   250.78628912     0.14622276
     166     dih       8       2       6       3   -31.75562909    -0.00207162
     167     dih       9       2       6       3    31.95905626     0.00299264
     168     dih       1       2       8       3     7.08172557     0.18013172
     169     dih       7       2       8       3   246.47962450     0.12834607
     170     dih      11       2       8       3   123.24841200     0.14877772
     171     dih       6       2       8       3    31.99637464     0.00120827
     172     dih       9       2       8       3   -32.00553063     0.00178370
     173     dih       1       2       9       3   240.15555780     0.09603291
     174     dih       7       2       9       3   120.95505561     0.11261305
     175     dih      11       2       9       3     7.35644946     0.15293906
     176     dih       6       2       9       3   -31.92797072    -0.00086112
     177     dih       8       2       9       3    31.73384837    -0.00308967
     178     dih       9       3       7       2   124.07061062     0.10724994
     179     dih       6       3       7       2     4.50709877     0.14511597
     180     dih       8       3       7       2   243.22788401     0.11884456
     181     dih       1       3       7       2    30.10262011    -0.03586590
     182     dih      11       3       7       2   -34.23656839    -0.01170863
     183     dih       9       3      11       2     8.22179411     0.17093498
     184     dih       6       3      11       2   246.16646455     0.14310508
     185     dih       8       3      11       2   127.07761708     0.14368445
     186     dih       1       3      11       2   -29.93338616     0.03174960
     187     dih       7       3      11       2    33.58117797     0.01637393
 
----------------------------------------------------------------------
Geometry Convergence after Step   9       (Hartree/Angstrom,Angstrom)
----------------------------------------------------------------------
current energy                               -2.31774218 Hartree
energy change                      -0.00670958     0.00012000    F
constrained gradient max            0.18227559     0.00100000    F
constrained gradient rms            0.04364573     0.00066667    F
gradient max                        0.18227559
gradient rms                        0.04364573
cart. step max                      0.03207998     0.01000000    F
cart. step rms                      0.01148525     0.00666667    F
 
 
--------
Geometry
--------
Formula: C4H7O
Atoms
  Index Symbol   x (angstrom)   y (angstrom)   z (angstrom)
      1      C     0.81762395    -0.24396463     0.84247480
      2      C     0.82809383    -0.21193560    -0.44020227
      3      C    -1.52392744    -0.46277568    -1.29123275
      4      H     0.86417452    -1.19180253     1.38898636
      5      C     0.72906985     0.96472441     1.63122027
      6      H    -1.77218225    -1.36425107    -0.75291865
      7      H     0.86026493     0.71985756    -0.96008059
      8      H    -1.27757364    -0.53821274    -2.32795925
      9      H    -1.90436868     0.47675783    -0.92083971
     10      O     0.71919545     0.99104229     2.84880135
     11      H     1.01125873    -1.08987332    -1.01922905
     12      H     0.64794965     1.92269444     1.03483393
 
Total System Charge             0.00000
 
 *** GOStep10 ***
