

 Parallel Execution: Process Information
 ==============================================================================
 Rank   Node Name                              NodeID   MyNodeRank  NodeMaster
    0   DESKTOP-1M8FOJT                           0          0          0
    1   DESKTOP-1M8FOJT                           0          1         -1
    2   DESKTOP-1M8FOJT                           0          2         -1
    3   DESKTOP-1M8FOJT                           0          3         -1
 ==============================================================================


May use up to 4096MB of RAM as shared memory on node 0

 *******************************************************************************
 *                                                                             *
 *  --------------------------------                                           *
 *   Amsterdam Modeling Suite (AMS)              2021.106                      *
 *  --------------------------------                                           *
 *                                               r99350 2021-12-03             *
 *                                                                             *
 *                                                                             *
 *                              =================                              *
 *                              |               |                              *
 *                              |     A M S     |                              *
 *                              |               |                              *
 *                              =================                              *
 *                                                                             *
 *                                                                             *
 *   Online information and documentation:  https://www.scm.com/support/       *
 *   E-mail:  support@scm.com   info@scm.com                                   *
 *                                                                             *
 *   Scientific publications using AMS results must be properly referenced     *
 *   See the User Manuals (or the web site) for recommended citations          *
 *   The terms and conditions of the End User License Agreement apply to       *
 *   the use of AMS, https://www.scm.com/license-terms/                        *
 *                                                                             *
 *********************  x86_64_windows_amdZen / intelmpi  **********************
 
 Licensed to: Mr. Yuman Hordijk / SCM / Amsterdam / Netherlands 2021-10-04 09:39:26
 SCM User ID: u24430
  
 AMS 2021.106  RunTime: Jan28-2022 15:20:05  ShM Nodes: 1  Procs: 4

 AMS jobname: ams
 AMS jobid  : 401601257

 Start   directory: D:/Users/Yuman/Desktop/MasterProject/manual_calculations/urea/sub_cat_complex/tmp..3908.0.noindex/
 Results directory: D:/Users/Yuman/Desktop/MasterProject/manual_calculations/urea/sub_cat_complex/Ph.results/
 Scratch directory: Z:/SCMTMP/amstmp_ams_kid0.401601257/


 Communication costs MPI_COMM_WORLD:      1.478 usec per message,   0.0040 usec per 8-byte item
 Communication costs for intra-node:      1.315 usec per message,   0.0043 usec per 8-byte item

 RNG seed: -1953428209 1989731295 -458401536 -1404103790 1646349944 -1539778384 262121566 -1855264031



                      ************************************************************************
                      *  ADF 2021.106  RunTime: Jan28-2022 15:20:05  ShM Nodes: 1  Procs: 4  *
                      ************************************************************************
  
       ***************************
       *  GEOMETRY OPTIMIZATION  *
       ***************************

Optimization Method                    Quasi Newton
Optimization Coordinates               Delocalized Coordinates
Optimize lattice                       F
 
 ------------------------------------------------------
 Convergence criteria (Hartree,Angstrom)
 ------------------------------------------------------
 Maximum gradient               0.001000000000
 Maximum rms gradient           0.000666666667
 Maximum step allowed           0.010000000000
 Maximum rms step allowed       0.006666666667
 Maximum energy change allowe   0.000260000000
 Maximum stress energy allowe   0.000500000000
 
Initial model Hessian                  Automatic Hessian
 
------------------------------------
Quasi-Newton Optimizer Parameters
------------------------------------
Hessian Update Method                  BFGS
Maximum number of steps                  250
First GDIIS cycle                          0
Maximum GDIIS vectors                      0
Trust radius (bohr)                        0.200000
Trust radius varies                        T
Constraints converged at all steps         T
Use projector                              T
 
 Rigid motions settings for: old optimizer
 Atomic rotations (x,y,z):     T T T
 Atomic translations (x,y,z):  T T T
 Tolerance:                   1.000000000000000E-006
 
--------
Geometry
--------
Formula: C10H12N2O2
Atoms
  Index Symbol   x (angstrom)   y (angstrom)   z (angstrom)
      1      C    -0.76439074    -1.49111036    -0.13636252
      2      C     0.51339520    -1.34808172     0.25832756
      3      C     1.49324349    -2.39815000     0.11305967
      4      O     2.67782915    -2.28693621     0.35520090
      5      H     2.37255708     1.13641131    -2.08996199
      6      H    -1.08361763    -2.45309374    -0.52366610
      7      H     0.86102996    -0.41692433     0.67646913
      8      H     1.09062936    -3.35694358    -0.26703852
      9      N     3.34932254     0.54773740     0.89180032
     10      C     2.61133228     1.17637255    -0.07269521
     11      O     1.91985006     2.15283462     0.13756350
     12      N     2.70441711     0.59652518    -1.30985283
     13      H     3.16562888     0.84640739     1.83627458
     14      H     3.53971948    -0.43920479     0.77421201
     15      H     3.42484964    -0.08098492    -1.48683021
     16      C    -1.78376684    -0.46691651    -0.08345853
     17      C    -3.12479925    -0.83835271    -0.23595566
     18      C    -4.13109622     0.10450077    -0.17816132
     19      C    -3.81769954     1.44093855     0.01662255
     20      C    -2.49247892     1.82634123     0.14988668
     21      C    -1.48083614     0.88743138     0.10278793
     22      H    -3.37115672    -1.88000466    -0.38705458
     23      H    -5.16165028    -0.19943204    -0.28911422
     24      H    -4.60406064     2.17997574     0.05704321
     25      H    -2.24344233     2.86741847     0.28868867
     26      H    -0.45612375     1.21566423     0.18438135
 
Total System Charge             0.00000
Bonding info available!
 
 
----------------
ADF Engine Input
----------------
 
 Basis
 Type TZ2P
 Core None
 End
 XC
 GGA OLYP
 End
 

 Title: *** (NO TITLE) ***

 Using automatic Hessian for delocalized coordinates.
 *** GOStep1 ***

 Energy gradients wrt nuclear displacements
 ==========================================

     Atom      Cartesian (a.u./angstrom)
                 X         Y         Z
 ----------------------------------------
     1 C     0.002031  0.002382 -0.001429
     2 C    -0.004486 -0.003425 -0.004570
     3 C     0.031971  0.007887  0.008434
     4 O    -0.048443  0.007430 -0.009366
     5 H     0.000841 -0.002400  0.001116
     6 H     0.001131  0.008992  0.002695
     7 H     0.000430 -0.002179 -0.003572
     8 H     0.002460  0.010689  0.003627
     9 N    -0.020473  0.002796 -0.010772
    10 C    -0.016812  0.012563  0.003802
    11 O     0.030425 -0.047590 -0.009635
    12 N    -0.000611  0.008643  0.014793
    13 H     0.002306 -0.001529 -0.000147
    14 H     0.002342  0.001665 -0.004397
    15 H    -0.003983  0.001862  0.005951
    16 C     0.001206  0.004419  0.002272
    17 C    -0.000113  0.006334  0.001637
    18 C     0.009651  0.001414  0.000664
    19 C     0.007153 -0.003420 -0.000035
    20 C    -0.003313 -0.005847 -0.001913
    21 C    -0.005269 -0.003508 -0.000663
    22 H     0.002464  0.009037  0.001993
    23 H     0.009472  0.003215  0.001030
    24 H     0.007535 -0.006748 -0.000064
    25 H    -0.002486 -0.009861 -0.001019
    26 H    -0.005429 -0.002822 -0.000434
 ----------------------------------------
 Mulliken charges used for AMS results%charges...
 
----------------------------------------------------------------------
Geometry Convergence after Step   1       (Hartree/Angstrom,Angstrom)
----------------------------------------------------------------------
current energy                               -5.82462561 Hartree
energy change                      -5.82462561     0.00026000    F
constrained gradient max            0.04804167     0.00100000    F
constrained gradient rms            0.01095943     0.00066667    F
gradient max                        0.04804167
gradient rms                        0.01095943
cart. step max                      0.08612777     0.01000000    F
cart. step rms                      0.03190823     0.00666667    F
 
 
--------
Geometry
--------
Formula: C10H12N2O2
Atoms
  Index Symbol   x (angstrom)   y (angstrom)   z (angstrom)
      1      C    -0.76016690    -1.50245571    -0.08178933
      2      C     0.53643842    -1.36488406     0.29169160
      3      C     1.51549252    -2.42658280     0.11792595
      4      O     2.72710065    -2.32020939     0.34351782
      5      H     2.29698053     1.18223746    -2.07248047
      6      H    -1.07822411    -2.46980931    -0.47095969
      7      H     0.89656495    -0.43779519     0.71615154
      8      H     1.10134360    -3.38991933    -0.25764468
      9      N     3.40532043     0.52731902     0.87028589
     10      C     2.62138085     1.18017268    -0.05918511
     11      O     1.93468258     2.18022763     0.20140658
     12      N     2.66326763     0.62134846    -1.32170269
     13      H     3.25175665     0.81884812     1.82276041
     14      H     3.58335239    -0.46284725     0.74418216
     15      H     3.37972371    -0.04759025    -1.55496824
     16      C    -1.79264312    -0.47350062    -0.05031854
     17      C    -3.14067760    -0.83973812    -0.23835013
     18      C    -4.15382338     0.11260235    -0.21474344
     19      C    -3.84128054     1.45790563    -0.02063785
     20      C    -2.51012787     1.84093573     0.14691936
     21      C    -1.49578728     0.89254582     0.13045737
     22      H    -3.38943245    -1.88433703    -0.40039052
     23      H    -5.18661484    -0.19005161    -0.35655844
     24      H    -4.62858131     2.20526801    -0.01282007
     25      H    -2.25695519     2.88803222     0.27839137
     26      H    -0.47040508     1.22470080     0.23102551
 
Total System Charge             0.00000
Bonding info available!
 
 *** GOStep2 ***

 Energy gradients wrt nuclear displacements
 ==========================================

     Atom      Cartesian (a.u./angstrom)
                 X         Y         Z
 ----------------------------------------
     1 C    -0.003358 -0.000999  0.001035
     2 C     0.002826  0.003432 -0.001716
     3 C    -0.010206 -0.000386 -0.004130
     4 O     0.013439  0.010897  0.003873
     5 H     0.000566 -0.002129 -0.000408
     6 H     0.000398  0.003382  0.000019
     7 H     0.001520  0.000650 -0.000864
     8 H    -0.002014  0.001592  0.000721
     9 N    -0.006134 -0.009213  0.002633
    10 C     0.003367 -0.021654 -0.002685
    11 O    -0.010245  0.013965  0.003787
    12 N     0.001862 -0.000228 -0.002504
    13 H     0.001790 -0.001628 -0.000620
    14 H     0.004429 -0.000308 -0.001417
    15 H    -0.001287 -0.001025  0.001956
    16 C     0.001932  0.000242  0.000949
    17 C    -0.001104  0.000100  0.000336
    18 C    -0.001102  0.000488  0.000434
    19 C     0.000292  0.001939  0.000116
    20 C    -0.000614  0.001563  0.000636
    21 C     0.000520 -0.000940 -0.001278
    22 H     0.000931  0.003058  0.000101
    23 H     0.002329  0.001733  0.000379
    24 H     0.002250 -0.001300 -0.000194
    25 H    -0.000563 -0.002281 -0.000427
    26 H    -0.001825 -0.000951 -0.000735
 ----------------------------------------
 Mulliken charges used for AMS results%charges...

 dE(predicted):    -0.33739E-02, dE(actual):    -0.25028E-02, Trust radius:    0.200000, all in a.u.
 
----------------------------------------------------------------------
Geometry Convergence after Step   2       (Hartree/Angstrom,Angstrom)
----------------------------------------------------------------------
current energy                               -5.82712846 Hartree
energy change                      -0.00250284     0.00026000    F
constrained gradient max            0.02118751     0.00100000    F
constrained gradient rms            0.00441529     0.00066667    F
gradient max                        0.02118751
gradient rms                        0.00441529
cart. step max                      0.10721213     0.01000000    F
cart. step rms                      0.03025900     0.00666667    F
 
 
--------
Geometry
--------
Formula: C10H12N2O2
Atoms
  Index Symbol   x (angstrom)   y (angstrom)   z (angstrom)
      1      C    -0.75603533    -1.51007541    -0.05133239
      2      C     0.54263161    -1.37166995     0.31967205
      3      C     1.51442810    -2.44449267     0.15609946
      4      O     2.72592944    -2.33872882     0.36469222
      5      H     2.22664414     1.20753466    -2.07218797
      6      H    -1.07482308    -2.48399587    -0.43002536
      7      H     0.90949337    -0.44099685     0.73391593
      8      H     1.09859941    -3.41203533    -0.21136321
      9      N     3.42884624     0.52796600     0.83109645
     10      C     2.62140393     1.18592588    -0.07563703
     11      O     1.95303112     2.18608046     0.20732251
     12      N     2.61750861     0.63428378    -1.34267781
     13      H     3.29915426     0.83157719     1.78401015
     14      H     3.58149301    -0.46863276     0.71536885
     15      H     3.33148410    -0.02487080    -1.61254752
     16      C    -1.78992295    -0.47832006    -0.03378821
     17      C    -3.13391536    -0.83757560    -0.27201969
     18      C    -4.14474649     0.12044389    -0.27232658
     19      C    -3.83445281     1.46306045    -0.04435091
     20      C    -2.50689101     1.83858569     0.17940365
     21      C    -1.49536409     0.88528145     0.18568761
     22      H    -3.38323989    -1.88074916    -0.45528483
     23      H    -5.17503985    -0.17685914    -0.45398843
     24      H    -4.62063819     2.21487753    -0.04880211
     25      H    -2.25397401     2.88360801     0.34299188
     26      H    -0.47291904     1.21220070     0.33823764
 
Total System Charge             0.00000
Bonding info available!
 
 *** GOStep3 ***

 Energy gradients wrt nuclear displacements
 ==========================================

     Atom      Cartesian (a.u./angstrom)
                 X         Y         Z
 ----------------------------------------
     1 C    -0.002303 -0.001079  0.000637
     2 C     0.005664  0.005452 -0.002275
     3 C    -0.004666 -0.001315  0.000677
     4 O     0.005986  0.009511  0.000900
     5 H     0.000147 -0.001489 -0.000603
     6 H    -0.000251  0.000452 -0.000653
     7 H     0.001810  0.002512  0.000140
     8 H    -0.000688 -0.000111 -0.000786
     9 N    -0.006023 -0.007473  0.002264
    10 C    -0.001833 -0.013954 -0.000039
    11 O    -0.003185  0.003981  0.001045
    12 N     0.000698  0.001581 -0.001889
    13 H     0.001126 -0.000944 -0.000406
    14 H     0.004247 -0.001250 -0.000531
    15 H    -0.000630 -0.001593  0.000914
    16 C     0.000896 -0.000248  0.000180
    17 C    -0.001463 -0.000945  0.000475
    18 C    -0.001759 -0.000178 -0.000473
    19 C    -0.000474  0.002238  0.000276
    20 C     0.000302  0.002143 -0.000010
    21 C     0.001734  0.000305 -0.000620
    22 H    -0.000102  0.000458  0.000072
    23 H    -0.000198  0.000855  0.000141
    24 H     0.000223  0.000738  0.000238
    25 H     0.000449  0.000494  0.000092
    26 H     0.000291 -0.000138  0.000234
 ----------------------------------------
 Mulliken charges used for AMS results%charges...

 dE(predicted):    -0.50254E-03, dE(actual):    -0.66218E-03, Trust radius:    0.400000, all in a.u.
 
----------------------------------------------------------------------
Geometry Convergence after Step   3       (Hartree/Angstrom,Angstrom)
----------------------------------------------------------------------
current energy                               -5.82779064 Hartree
energy change                      -0.00066218     0.00026000    F
constrained gradient max            0.01348707     0.00100000    F
constrained gradient rms            0.00279568     0.00066667    F
gradient max                        0.01348707
gradient rms                        0.00279568
cart. step max                      0.20642112     0.01000000    F
cart. step rms                      0.06572660     0.00666667    F
 
 
--------
Geometry
--------
Formula: C10H12N2O2
Atoms
  Index Symbol   x (angstrom)   y (angstrom)   z (angstrom)
      1      C    -0.75018890    -1.53396301     0.02849257
      2      C     0.55201124    -1.39869208     0.38631887
      3      C     1.51359212    -2.48206386     0.20943638
      4      O     2.72540991    -2.37749856     0.38573844
      5      H     2.05238325     1.26576807    -2.05137238
      6      H    -1.07392697    -2.51416101    -0.33769853
      7      H     0.93469581    -0.46397606     0.77989785
      8      H     1.08611584    -3.46408590    -0.10890942
      9      N     3.46330191     0.53330464     0.73986372
     10      C     2.59882976     1.20708208    -0.10208796
     11      O     1.96542914     2.20471695     0.23653847
     12      N     2.49526564     0.66878557    -1.37111430
     13      H     3.39013142     0.85091490     1.69550420
     14      H     3.56014522    -0.47434588     0.63807124
     15      H     3.20431090     0.03925561    -1.71820022
     16      C    -1.77851290    -0.49313490     0.01966806
     17      C    -3.10453377    -0.83016524    -0.32872337
     18      C    -4.10208119     0.14174353    -0.38457542
     19      C    -3.79656242     1.47500374    -0.09885616
     20      C    -2.48653871     1.82735577     0.24463358
     21      C    -1.48864311     0.86171006     0.30369004
     22      H    -3.35256637    -1.86601463    -0.56287661
     23      H    -5.11875985    -0.13800965    -0.66040955
     24      H    -4.57135030     2.24031067    -0.15278866
     25      H    -2.23347879     2.86699904     0.45328450
     26      H    -0.47579367     1.17558344     0.53864103
 
Total System Charge             0.00000
Bonding info available!
 
 *** GOStep4 ***

 Energy gradients wrt nuclear displacements
 ==========================================

     Atom      Cartesian (a.u./angstrom)
                 X         Y         Z
 ----------------------------------------
     1 C     0.000868 -0.000726  0.002569
     2 C     0.005738  0.006904 -0.000004
     3 C     0.005727  0.000617 -0.005107
     4 O    -0.006522  0.006269  0.000630
     5 H    -0.000316 -0.000279  0.000130
     6 H    -0.000881 -0.003013 -0.001271
     7 H     0.001803  0.004279  0.001004
     8 H     0.000361 -0.003226  0.001084
     9 N    -0.005606 -0.004461 -0.000830
    10 C    -0.007959 -0.002117  0.003943
    11 O     0.004668 -0.008893 -0.002841
    12 N     0.000865  0.002012  0.001488
    13 H    -0.000569  0.000582 -0.000619
    14 H     0.003445 -0.003763  0.000759
    15 H     0.000072 -0.002169 -0.000958
    16 C    -0.001450  0.000128 -0.000262
    17 C    -0.000335 -0.000242 -0.000240
    18 C    -0.000379 -0.000163  0.000217
    19 C    -0.000134  0.000790 -0.000043
    20 C     0.000839  0.000430  0.000725
    21 C     0.001058  0.001624  0.000866
    22 H    -0.001290 -0.002325 -0.000844
    23 H    -0.002739  0.000008 -0.000924
    24 H    -0.001784  0.003152 -0.000265
    25 H     0.001643  0.003471  0.000506
    26 H     0.002877  0.001110  0.000287
 ----------------------------------------
 Mulliken charges used for AMS results%charges...

 dE(predicted):    -0.93355E-03, dE(actual):    -0.43544E-03, Trust radius:    0.400000, all in a.u.
 
----------------------------------------------------------------------
Geometry Convergence after Step   4       (Hartree/Angstrom,Angstrom)
----------------------------------------------------------------------
current energy                               -5.82822608 Hartree
energy change                      -0.00043544     0.00026000    F
constrained gradient max            0.00853451     0.00100000    F
constrained gradient rms            0.00281072     0.00066667    F
gradient max                        0.00853451
gradient rms                        0.00281072
cart. step max                      0.13507564     0.01000000    F
cart. step rms                      0.04770704     0.00666667    F
 
 
--------
Geometry
--------
Formula: C10H12N2O2
Atoms
  Index Symbol   x (angstrom)   y (angstrom)   z (angstrom)
      1      C    -0.74467148    -1.54560667     0.07025277
      2      C     0.55550221    -1.42064058     0.43506106
      3      C     1.50374168    -2.52135075     0.28377671
      4      O     2.72114731    -2.41883652     0.41694075
      5      H     1.92857312     1.31077299    -2.02505139
      6      H    -1.07639104    -2.53062104    -0.27717057
      7      H     0.95225247    -0.48335441     0.80823446
      8      H     1.06589036    -3.49811519    -0.03883645
      9      N     3.49543496     0.53457234     0.66313004
     10      C     2.59007774     1.22891299    -0.12064283
     11      O     1.99609845     2.23492680     0.25903810
     12      N     2.40276867     0.69456348    -1.38303713
     13      H     3.47702010     0.86209884     1.61931703
     14      H     3.52839616    -0.48168778     0.57834262
     15      H     3.10669354     0.09303613    -1.78660535
     16      C    -1.76672773    -0.49890382     0.03845798
     17      C    -3.07483436    -0.82161589    -0.37911600
     18      C    -4.06419610     0.15589184    -0.46548494
     19      C    -3.76971739     1.48000541    -0.13600437
     20      C    -2.47785646     1.81780379     0.28159600
     21      C    -1.48887434     0.84704490     0.37071791
     22      H    -3.31872714    -1.85228573    -0.64095857
     23      H    -5.06877714    -0.11503151    -0.79160113
     24      H    -4.53952542     2.24967013    -0.20640506
     25      H    -2.23346137     2.85015586     0.53449805
     26      H    -0.49115156     1.15101765     0.67371667
 
Total System Charge             0.00000
Bonding info available!
 
 *** GOStep5 ***

 Energy gradients wrt nuclear displacements
 ==========================================

     Atom      Cartesian (a.u./angstrom)
                 X         Y         Z
 ----------------------------------------
     1 C     0.003255  0.001593  0.000554
     2 C     0.003947  0.007548 -0.004026
     3 C     0.004730 -0.002641  0.009462
     4 O    -0.005599  0.005374 -0.004432
     5 H    -0.000262  0.000323  0.000890
     6 H    -0.001202 -0.003833 -0.000785
     7 H     0.001889  0.004036  0.000820
     8 H     0.000657 -0.002576 -0.003558
     9 N    -0.003309 -0.001760 -0.003260
    10 C    -0.009068  0.000271  0.004501
    11 O     0.004431 -0.008947 -0.002971
    12 N     0.002641 -0.000430  0.003024
    13 H    -0.001634  0.001566 -0.000542
    14 H     0.001638 -0.006598  0.001433
    15 H    -0.000040 -0.001690 -0.001869
    16 C    -0.003474  0.000018 -0.000366
    17 C     0.001212  0.001604  0.000183
    18 C     0.001611  0.001041 -0.000218
    19 C     0.000715 -0.001006  0.000071
    20 C     0.000947 -0.001639 -0.000871
    21 C    -0.000545  0.001747  0.001316
    22 H    -0.001831 -0.002818 -0.000637
    23 H    -0.003186 -0.000104 -0.000880
    24 H    -0.002192  0.003560  0.000024
    25 H     0.001822  0.003852  0.001239
    26 H     0.002848  0.001508  0.000897
 ----------------------------------------
 Mulliken charges used for AMS results%charges...

 dE(predicted):    -0.76141E-03, dE(actual):    -0.34929E-03, Trust radius:    0.400000, all in a.u.
 
----------------------------------------------------------------------
Geometry Convergence after Step   5       (Hartree/Angstrom,Angstrom)
----------------------------------------------------------------------
current energy                               -5.82857536 Hartree
energy change                      -0.00034929     0.00026000    F
constrained gradient max            0.00941910     0.00100000    F
constrained gradient rms            0.00313211     0.00066667    F
gradient max                        0.00941910
gradient rms                        0.00313211
cart. step max                      0.11694984     0.01000000    F
cart. step rms                      0.04010216     0.00666667    F
 
 
--------
Geometry
--------
Formula: C10H12N2O2
Atoms
  Index Symbol   x (angstrom)   y (angstrom)   z (angstrom)
      1      C    -0.74456810    -1.55981549     0.10162793
      2      C     0.55645067    -1.44981093     0.46524872
      3      C     1.49308517    -2.55874036     0.30477494
      4      O     2.71436852    -2.46754659     0.42452968
      5      H     1.81162328     1.39495657    -1.95686444
      6      H    -1.08867823    -2.54439029    -0.23056271
      7      H     0.96919327    -0.51721567     0.83131851
      8      H     1.03592972    -3.53778264     0.02106818
      9      N     3.52998976     0.52464904     0.60611369
     10      C     2.59014307     1.25737461    -0.10459165
     11      O     2.04670148     2.27024842     0.33085109
     12      N     2.31052146     0.74916146    -1.36314035
     13      H     3.57752129     0.84156868     1.56611683
     14      H     3.49083649    -0.49468552     0.52759824
     15      H     3.00429892     0.18271619    -1.82947279
     16      C    -1.75545079    -0.50556733     0.04779250
     17      C    -3.05692040    -0.82370106    -0.38844044
     18      C    -4.03875472     0.15718295    -0.50214366
     19      C    -3.74326695     1.48127979    -0.18160413
     20      C    -2.45896874     1.81450147     0.25907990
     21      C    -1.47923216     0.83913225     0.37855919
     22      H    -3.30298907    -1.85468406    -0.64170314
     23      H    -5.03857124    -0.11236105    -0.84006673
     24      H    -4.50723324     2.25309146    -0.26996347
     25      H    -2.21578469     2.84565852     0.51228294
     26      H    -0.49155953     1.13720284     0.71375753
 
Total System Charge             0.00000
Bonding info available!
 
 *** GOStep6 ***

 Energy gradients wrt nuclear displacements
 ==========================================

     Atom      Cartesian (a.u./angstrom)
                 X         Y         Z
 ----------------------------------------
     1 C     0.003194  0.002655  0.000123
     2 C     0.001585  0.005698 -0.001976
     3 C     0.002302 -0.000927  0.001076
     4 O    -0.001022  0.003266 -0.001636
     5 H    -0.000258  0.000502  0.000791
     6 H    -0.001311 -0.002421  0.000666
     7 H     0.001947  0.002593  0.001231
     8 H    -0.000541 -0.002258 -0.000607
     9 N     0.000266  0.001998 -0.003986
    10 C    -0.007939 -0.002056  0.002574
    11 O     0.002800 -0.005450 -0.001790
    12 N     0.003209 -0.002512  0.002192
    13 H    -0.001682  0.001333  0.000380
    14 H    -0.001298 -0.008865  0.002486
    15 H    -0.000737  0.000055 -0.001380
    16 C    -0.002950  0.000711 -0.001921
    17 C     0.002356  0.002327  0.000850
    18 C     0.002299  0.002071  0.000051
    19 C     0.000642 -0.001891 -0.000375
    20 C     0.001234 -0.002119 -0.001581
    21 C    -0.001607  0.001013  0.000625
    22 H    -0.001580 -0.001415  0.000073
    23 H    -0.001911  0.000235 -0.000302
    24 H    -0.001185  0.002321  0.000428
    25 H     0.001273  0.002294  0.000879
    26 H     0.000910  0.000842  0.001128
 ----------------------------------------
 Mulliken charges used for AMS results%charges...

 dE(predicted):    -0.72495E-03, dE(actual):    -0.37171E-03, Trust radius:    0.400000, all in a.u.
 
----------------------------------------------------------------------
Geometry Convergence after Step   6       (Hartree/Angstrom,Angstrom)
----------------------------------------------------------------------
current energy                               -5.82894707 Hartree
energy change                      -0.00037171     0.00026000    F
constrained gradient max            0.00824974     0.00100000    F
constrained gradient rms            0.00232821     0.00066667    F
gradient max                        0.00824974
gradient rms                        0.00232821
cart. step max                      0.11019219     0.01000000    F
cart. step rms                      0.04096333     0.00666667    F
 
 
--------
Geometry
--------
Formula: C10H12N2O2
Atoms
  Index Symbol   x (angstrom)   y (angstrom)   z (angstrom)
      1      C    -0.75226391    -1.58422896     0.12864848
      2      C     0.55050901    -1.48414238     0.48830516
      3      C     1.48087161    -2.59513961     0.32195490
      4      O     2.70594802    -2.50849540     0.42256350
      5      H     1.70143109     1.48230474    -1.87246317
      6      H    -1.10145239    -2.56023315    -0.21507572
      7      H     0.97379920    -0.55409047     0.84655285
      8      H     1.01191532    -3.57009683     0.05210252
      9      N     3.55502486     0.52134692     0.56027389
     10      C     2.58739287     1.29446564    -0.07302031
     11      O     2.09576815     2.31205040     0.41510749
     12      N     2.21772735     0.81144389    -1.32194787
     13      H     3.68040187     0.81582170     1.52089599
     14      H     3.45264923    -0.49419093     0.48468303
     15      H     2.89875452     0.27569674    -1.84092279
     16      C    -1.75105775    -0.52271134     0.06699293
     17      C    -3.05373349    -0.83418539    -0.36955528
     18      C    -4.02392807     0.15409406    -0.50636517
     19      C    -3.71283374     1.48100621    -0.21712732
     20      C    -2.42829989     1.80813365     0.22433508
     21      C    -1.45965310     0.82450210     0.36491946
     22      H    -3.30375621    -1.86311941    -0.61737449
     23      H    -5.01946614    -0.10876529    -0.85516501
     24      H    -4.45981321     2.26050502    -0.34513765
     25      H    -2.17096478     2.84228239     0.43783695
     26      H    -0.46628521     1.11816895     0.68114890
 
Total System Charge             0.00000
Bonding info available!
 
 *** GOStep7 ***

 Energy gradients wrt nuclear displacements
 ==========================================

     Atom      Cartesian (a.u./angstrom)
                 X         Y         Z
 ----------------------------------------
     1 C    -0.000206  0.001605  0.001602
     2 C     0.000594  0.003927 -0.002059
     3 C    -0.001611 -0.000876  0.001024
     4 O     0.003784  0.001775 -0.001519
     5 H    -0.000207  0.000242  0.000340
     6 H    -0.000305  0.000908 -0.000272
     7 H     0.002239  0.001256  0.000095
     8 H    -0.001065  0.000308  0.000064
     9 N     0.003351  0.002853 -0.004235
    10 C    -0.005326 -0.005778 -0.000209
    11 O    -0.000324  0.000745  0.001036
    12 N     0.001552 -0.003936 -0.000401
    13 H    -0.000663 -0.000458  0.001086
    14 H    -0.003774 -0.007868  0.003946
    15 H    -0.000343  0.001287 -0.000421
    16 C    -0.001075  0.000300  0.000424
    17 C     0.001863  0.001009  0.000392
    18 C     0.000363  0.001820  0.001442
    19 C    -0.000165 -0.000729 -0.000441
    20 C     0.000265 -0.000515  0.001424
    21 C    -0.000629 -0.000094 -0.000524
    22 H    -0.000253  0.001379 -0.000397
    23 H     0.000729  0.000923 -0.000068
    24 H     0.001250  0.000293 -0.000600
    25 H     0.000504 -0.000356 -0.000949
    26 H    -0.000548 -0.000022 -0.000780
 ----------------------------------------
 Mulliken charges used for AMS results%charges...

 dE(predicted):    -0.51435E-03, dE(actual):    -0.39452E-04, Trust radius:    0.100000, all in a.u.
 
----------------------------------------------------------------------
Geometry Convergence after Step   7       (Hartree/Angstrom,Angstrom)
----------------------------------------------------------------------
current energy                               -5.82898653 Hartree
energy change                      -0.00003945     0.00026000    T
constrained gradient max            0.00726732     0.00100000    F
constrained gradient rms            0.00192149     0.00066667    F
gradient max                        0.00726732
gradient rms                        0.00192149
cart. step max                      0.03792100     0.01000000    F
cart. step rms                      0.01308067     0.00666667    F
 
 
--------
Geometry
--------
Formula: C10H12N2O2
Atoms
  Index Symbol   x (angstrom)   y (angstrom)   z (angstrom)
      1      C    -0.75669817    -1.58472849     0.10686085
      2      C     0.54415800    -1.48364543     0.47508408
      3      C     1.47457787    -2.59427885     0.31955500
      4      O     2.69845869    -2.50925657     0.43503865
      5      H     1.73172850     1.48426449    -1.87527642
      6      H    -1.10618208    -2.56151829    -0.23176298
      7      H     0.96714067    -0.55329528     0.83200414
      8      H     1.00645980    -3.56985207     0.05346613
      9      N     3.56535736     0.52413867     0.57276810
     10      C     2.60627081     1.30365770    -0.06677392
     11      O     2.12049453     2.32880980     0.41358420
     12      N     2.23756005     0.81401198    -1.31468545
     13      H     3.69644560     0.81627079     1.53273241
     14      H     3.45675662    -0.48754023     0.49669156
     15      H     2.91901088     0.26774741    -1.82293879
     16      C    -1.75497734    -0.52324269     0.04602723
     17      C    -3.06487202    -0.83741922    -0.36951673
     18      C    -4.03833484     0.14946657    -0.49246724
     19      C    -3.72441389     1.47748353    -0.20783734
     20      C    -2.43292994     1.80756910     0.21013358
     21      C    -1.46059082     0.82480234     0.33708650
     22      H    -3.31799247    -1.86818478    -0.60346498
     23      H    -5.04058553    -0.11568864    -0.81768559
     24      H    -4.47694667     2.25380082    -0.31606056
     25      H    -2.17694367     2.84084432     0.42637602
     26      H    -0.46426669     1.11820627     0.64322790
 
Total System Charge             0.00000
Bonding info available!
 
 *** GOStep8 ***

 Energy gradients wrt nuclear displacements
 ==========================================

     Atom      Cartesian (a.u./angstrom)
                 X         Y         Z
 ----------------------------------------
     1 C    -0.001165  0.000463 -0.000314
     2 C     0.001502  0.003386 -0.000602
     3 C    -0.002203  0.000135 -0.000735
     4 O     0.003505  0.001542 -0.000836
     5 H    -0.000168 -0.000080  0.000282
     6 H    -0.000268  0.001621  0.000401
     7 H     0.002502  0.000674 -0.000045
     8 H    -0.001042  0.001037  0.000903
     9 N     0.003344 -0.001198 -0.003543
    10 C    -0.004086 -0.007020 -0.000904
    11 O    -0.001722  0.003549  0.002155
    12 N     0.000366 -0.003686 -0.001461
    13 H    -0.000092 -0.001421  0.000598
    14 H    -0.003449 -0.003377  0.004304
    15 H     0.000423  0.000750 -0.000272
    16 C     0.000506  0.000127  0.000345
    17 C     0.000512 -0.000104 -0.000158
    18 C    -0.000584  0.001274  0.000174
    19 C    -0.000405  0.000534 -0.000180
    20 C     0.000330  0.001094  0.000475
    21 C     0.000368 -0.000432 -0.000283
    22 H     0.000026  0.001940  0.000370
    23 H     0.001262  0.001046  0.000442
    24 H     0.001539 -0.000361 -0.000083
    25 H     0.000013 -0.001083 -0.000566
    26 H    -0.001012 -0.000408 -0.000466
 ----------------------------------------
 Mulliken charges used for AMS results%charges...

 dE(predicted):    -0.21185E-03, dE(actual):    -0.29985E-03, Trust radius:    0.200000, all in a.u.
 
----------------------------------------------------------------------
Geometry Convergence after Step   8       (Hartree/Angstrom,Angstrom)
----------------------------------------------------------------------
current energy                               -5.82928638 Hartree
energy change                      -0.00029985     0.00026000    F
constrained gradient max            0.00654406     0.00100000    F
constrained gradient rms            0.00172384     0.00066667    F
gradient max                        0.00654406
gradient rms                        0.00172384
cart. step max                      0.06913042     0.01000000    F
cart. step rms                      0.02160958     0.00666667    F
 
 
--------
Geometry
--------
Formula: C10H12N2O2
Atoms
  Index Symbol   x (angstrom)   y (angstrom)   z (angstrom)
      1      C    -0.76944868    -1.59573239     0.08327525
      2      C     0.53073044    -1.49156766     0.45613630
      3      C     1.46448892    -2.59849772     0.30983069
      4      O     2.68630215    -2.50925508     0.44076246
      5      H     1.76558744     1.50111829    -1.86254166
      6      H    -1.11959103    -2.57448149    -0.24777457
      7      H     0.95340621    -0.56101232     0.81193118
      8      H     1.00404850    -3.57504057     0.03521347
      9      N     3.58400413     0.53507792     0.59215563
     10      C     2.63551837     1.32643830    -0.04761626
     11      O     2.16611550     2.36115035     0.42516179
     12      N     2.25603520     0.82927859    -1.29087506
     13      H     3.73095324     0.82056597     1.55072060
     14      H     3.47105441    -0.47025374     0.50783321
     15      H     2.92870685     0.26093017    -1.78797124
     16      C    -1.76584361    -0.53170737     0.02414770
     17      C    -3.08848055    -0.84626366    -0.35588261
     18      C    -4.06132390     0.14304365    -0.46494871
     19      C    -3.73495749     1.47438882    -0.20228852
     20      C    -2.43189722     1.80510085     0.17759781
     21      C    -1.46001742     0.81906736     0.29361314
     22      H    -3.34937479    -1.87982458    -0.56786185
     23      H    -5.07360568    -0.12143320    -0.75785734
     24      H    -4.48960725     2.25084148    -0.29426304
     25      H    -2.16885755     2.83953785     0.37957050
     26      H    -0.45526095     1.11095347     0.57409748
 
Total System Charge             0.00000
Bonding info available!
 
 *** GOStep9 ***

 Energy gradients wrt nuclear displacements
 ==========================================

     Atom      Cartesian (a.u./angstrom)
                 X         Y         Z
 ----------------------------------------
     1 C    -0.002256 -0.001377 -0.001965
     2 C     0.003000  0.003267  0.000301
     3 C    -0.002896  0.001289 -0.000383
     4 O     0.002532  0.001479 -0.000725
     5 H    -0.000107 -0.000499  0.000370
     6 H    -0.000166  0.001705  0.000923
     7 H     0.002883 -0.000128 -0.000091
     8 H    -0.000701  0.001397  0.000767
     9 N     0.002072 -0.007048 -0.002879
    10 C    -0.003819 -0.004344  0.000499
    11 O    -0.001091  0.001880  0.001185
    12 N    -0.001130 -0.002710 -0.002117
    13 H     0.000578 -0.002370 -0.000376
    14 H    -0.002569  0.003683  0.004360
    15 H     0.001607 -0.000322 -0.000009
    16 C     0.002631 -0.000203  0.000132
    17 C    -0.002198 -0.001113 -0.000667
    18 C    -0.001741 -0.000204 -0.000568
    19 C    -0.000109  0.002412 -0.000094
    20 C     0.000293  0.002584 -0.000251
    21 C     0.001150 -0.000368  0.000553
    22 H     0.000373  0.001802  0.000708
    23 H     0.001205  0.001090  0.000585
    24 H     0.001255 -0.000403  0.000259
    25 H    -0.000205 -0.000988 -0.000300
    26 H    -0.000592 -0.000512 -0.000217
 ----------------------------------------
 Mulliken charges used for AMS results%charges...

 dE(predicted):    -0.37597E-03, dE(actual):    -0.44670E-03, Trust radius:    0.399999, all in a.u.
 
----------------------------------------------------------------------
Geometry Convergence after Step   9       (Hartree/Angstrom,Angstrom)
----------------------------------------------------------------------
current energy                               -5.82973308 Hartree
energy change                      -0.00044670     0.00026000    F
constrained gradient max            0.00644659     0.00100000    F
constrained gradient rms            0.00183512     0.00066667    F
gradient max                        0.00644659
gradient rms                        0.00183512
cart. step max                      0.09400421     0.01000000    F
cart. step rms                      0.02732530     0.00666667    F
 
 
--------
Geometry
--------
Formula: C10H12N2O2
Atoms
  Index Symbol   x (angstrom)   y (angstrom)   z (angstrom)
      1      C    -0.79175991    -1.61838959     0.05936280
      2      C     0.50755865    -1.51269255     0.43568114
      3      C     1.44613589    -2.61766824     0.31313776
      4      O     2.66439617    -2.51834332     0.46553108
      5      H     1.79198273     1.53691294    -1.83776465
      6      H    -1.14327420    -2.59862820    -0.26693584
      7      H     0.93188302    -0.57808142     0.77873281
      8      H     0.99799444    -3.60165962     0.04288400
      9      N     3.62034212     0.55878890     0.59983357
     10      C     2.68563972     1.37124150    -0.03158975
     11      O     2.26011971     2.42734228     0.43046639
     12      N     2.26116218     0.85836658    -1.25649777
     13      H     3.80215142     0.84208519     1.55220439
     14      H     3.49198243    -0.44111045     0.51208202
     15      H     2.90365020     0.25170583    -1.74930532
     16      C    -1.78337408    -0.54828167     0.00099777
     17      C    -3.11641968    -0.85646063    -0.35260999
     18      C    -4.08390053     0.13918197    -0.44979890
     19      C    -3.74431532     1.47046896    -0.19534820
     20      C    -2.43127491     1.79539556     0.15341913
     21      C    -1.46257179     0.80342567     0.25247545
     22      H    -3.38708240    -1.89119649    -0.54961200
     23      H    -5.10492860    -0.11921381    -0.71886539
     24      H    -4.49810511     2.25046673    -0.27157460
     25      H    -2.15886954     2.82925022     0.34984713
     26      H    -0.45043737     1.08951692     0.51541331
 
Total System Charge             0.00000
Bonding info available!
 
 *** GOStep10 ***

 Energy gradients wrt nuclear displacements
 ==========================================

     Atom      Cartesian (a.u./angstrom)
                 X         Y         Z
 ----------------------------------------
     1 C    -0.002654 -0.002351 -0.002444
     2 C     0.003198  0.002890  0.001344
     3 C    -0.003352  0.002045 -0.000734
     4 O     0.001674  0.001670 -0.000246
     5 H     0.000047 -0.000671  0.000574
     6 H     0.000205  0.001135  0.000392
     7 H     0.003204 -0.000328 -0.000526
     8 H    -0.000272  0.000708  0.000750
     9 N     0.000682 -0.009956 -0.002387
    10 C    -0.003211 -0.000104  0.002316
    11 O    -0.000793 -0.000641  0.000485
    12 N    -0.001784 -0.003062 -0.002954
    13 H     0.001037 -0.002714 -0.001032
    14 H    -0.001791  0.007281  0.003707
    15 H     0.002110 -0.001228  0.000256
    16 C     0.003428 -0.000627  0.000931
    17 C    -0.004543 -0.000794 -0.000728
    18 C    -0.001549 -0.001648 -0.001874
    19 C     0.000728  0.003591  0.001112
    20 C    -0.000137  0.002736 -0.000723
    21 C     0.001725  0.000200 -0.000599
    22 H     0.000468  0.000851  0.000813
    23 H     0.000432  0.001028  0.000581
    24 H     0.000488  0.000194  0.000236
    25 H    -0.000058 -0.000121  0.000185
    26 H     0.000718 -0.000083  0.000563
 ----------------------------------------
 Mulliken charges used for AMS results%charges...

 dE(predicted):    -0.53035E-03, dE(actual):    -0.57313E-03, Trust radius:    0.799999, all in a.u.
 
----------------------------------------------------------------------
Geometry Convergence after Step  10       (Hartree/Angstrom,Angstrom)
----------------------------------------------------------------------
current energy                               -5.83030621 Hartree
energy change                      -0.00057313     0.00026000    F
constrained gradient max            0.00934018     0.00100000    F
constrained gradient rms            0.00217696     0.00066667    F
gradient max                        0.00934018
gradient rms                        0.00217696
cart. step max                      0.21155729     0.01000000    F
cart. step rms                      0.04807544     0.00666667    F
 
 
--------
Geometry
--------
Formula: C10H12N2O2
Atoms
  Index Symbol   x (angstrom)   y (angstrom)   z (angstrom)
      1      C    -0.82782780    -1.64354792     0.03940626
      2      C     0.47303444    -1.54021994     0.41060395
      3      C     1.40880773    -2.65086388     0.31935750
      4      O     2.62307326    -2.54549175     0.49173158
      5      H     1.83133187     1.61905357    -1.77342801
      6      H    -1.18738188    -2.62855569    -0.26576841
      7      H     0.91075404    -0.60352991     0.73116620
      8      H     0.96838863    -3.64125712     0.05596987
      9      N     3.70629766     0.58284952     0.59451873
     10      C     2.79553832     1.44074509    -0.00787137
     11      O     2.47167700     2.53431375     0.44354446
     12      N     2.26788605     0.91827525    -1.19285698
     13      H     3.95312755     0.85793473     1.53393858
     14      H     3.53948347    -0.40928340     0.50094681
     15      H     2.83717221     0.25147106    -1.69848660
     16      C    -1.81641417    -0.56840403    -0.01987903
     17      C    -3.15713340    -0.87485791    -0.34718844
     18      C    -4.12254558     0.12324288    -0.43547342
     19      C    -3.77278800     1.45705445    -0.20458211
     20      C    -2.45330411     1.78008166     0.11972593
     21      C    -1.48783962     0.78443687     0.21665547
     22      H    -3.43373893    -1.91175345    -0.52941940
     23      H    -5.14979984    -0.13265074    -0.68594424
     24      H    -4.52672524     2.23886595    -0.27411616
     25      H    -2.17300290     2.81559294     0.30139404
     26      H    -0.46938555     1.06892126     0.45822113
 
Total System Charge             0.00000
Bonding info available!
 
 *** GOStep11 ***

 Energy gradients wrt nuclear displacements
 ==========================================

     Atom      Cartesian (a.u./angstrom)
                 X         Y         Z
 ----------------------------------------
     1 C    -0.001768 -0.002496 -0.003624
     2 C     0.002724  0.002802  0.001927
     3 C    -0.003203  0.002392  0.000086
     4 O    -0.000046  0.001913 -0.000120
     5 H     0.000403 -0.000336  0.001352
     6 H     0.000144  0.000050  0.000425
     7 H     0.003581 -0.001407 -0.000501
     8 H     0.000261 -0.000342  0.000153
     9 N     0.000020 -0.009875 -0.001504
    10 C    -0.003807  0.006064  0.004343
    11 O     0.000840 -0.002517  0.000893
    12 N    -0.000998 -0.006583 -0.004652
    13 H     0.001002 -0.002358 -0.001401
    14 H    -0.001096  0.007614  0.001895
    15 H     0.001603 -0.001988 -0.000224
    16 C     0.003231  0.000003  0.000293
    17 C    -0.005526  0.000545 -0.000706
    18 C    -0.000869 -0.002865 -0.000416
    19 C     0.002208  0.004118  0.000173
    20 C    -0.000673  0.001870 -0.001318
    21 C     0.001219  0.000293  0.001156
    22 H     0.000456 -0.000371  0.000619
    23 H    -0.000527  0.001034  0.000072
    24 H    -0.000531  0.000985  0.000455
    25 H     0.000425  0.001066  0.000426
    26 H     0.000929  0.000390  0.000197
 ----------------------------------------
 Mulliken charges used for AMS results%charges...

 dE(predicted):    -0.10744E-02, dE(actual):    -0.71439E-03, Trust radius:    0.799999, all in a.u.
 
----------------------------------------------------------------------
Geometry Convergence after Step  11       (Hartree/Angstrom,Angstrom)
----------------------------------------------------------------------
current energy                               -5.83102060 Hartree
energy change                      -0.00071439     0.00026000    F
constrained gradient max            0.00921000     0.00100000    F
constrained gradient rms            0.00247844     0.00066667    F
gradient max                        0.00921000
gradient rms                        0.00247844
cart. step max                      0.21166886     0.01000000    F
cart. step rms                      0.04878855     0.00666667    F
 
 
--------
Geometry
--------
Formula: C10H12N2O2
Atoms
  Index Symbol   x (angstrom)   y (angstrom)   z (angstrom)
      1      C    -0.86626683    -1.67552010     0.05301254
      2      C     0.43929185    -1.57298137     0.40332461
      3      C     1.37289290    -2.68896461     0.33380041
      4      O     2.58630000    -2.57674839     0.50755917
      5      H     1.82737587     1.71516359    -1.68866738
      6      H    -1.23558883    -2.66344030    -0.23279131
      7      H     0.89098505    -0.63316570     0.69500456
      8      H     0.93396846    -3.68499967     0.08639698
      9      N     3.79083566     0.60812282     0.56593691
     10      C     2.89786643     1.50876332     0.00390555
     11      O     2.68334586     2.63164769     0.44465640
     12      N     2.24570497     0.99105518    -1.12237039
     13      H     4.10739620     0.87343337     1.48705352
     14      H     3.58764553    -0.37819450     0.46815904
     15      H     2.72401540     0.27622200    -1.65523324
     16      C    -1.84683487    -0.59346011    -0.02183385
     17      C    -3.18700001    -0.89112039    -0.35429317
     18      C    -4.14277593     0.11461951    -0.45760720
     19      C    -3.78612014     1.44522981    -0.22408007
     20      C    -2.46489906     1.75985267     0.10091587
     21      C    -1.50678289     0.75824143     0.19988402
     22      H    -3.47249116    -1.92697026    -0.53089470
     23      H    -5.17175960    -0.13471765    -0.70924051
     24      H    -4.53389046     2.23267774    -0.30087503
     25      H    -2.17716105     2.79390892     0.28147849
     26      H    -0.48736813     1.03376830     0.44896515
 
Total System Charge             0.00000
Bonding info available!
 
 *** GOStep12 ***

 Energy gradients wrt nuclear displacements
 ==========================================

     Atom      Cartesian (a.u./angstrom)
                 X         Y         Z
 ----------------------------------------
     1 C    -0.000736 -0.001774 -0.000521
     2 C    -0.000107  0.003557  0.000737
     3 C    -0.003349  0.001334  0.000190
     4 O     0.000294  0.001991  0.000383
     5 H     0.000805  0.000460  0.001844
     6 H     0.000055 -0.000422 -0.000461
     7 H     0.003751 -0.002108 -0.000250
     8 H     0.000102 -0.001045 -0.000360
     9 N     0.000615 -0.006699  0.000159
    10 C    -0.003750  0.010408  0.002931
    11 O     0.001769 -0.004045  0.001068
    12 N     0.000308 -0.010425 -0.004268
    13 H     0.000565 -0.001254 -0.000757
    14 H    -0.001011  0.004352 -0.000353
    15 H    -0.000141 -0.001537 -0.000739
    16 C     0.001608  0.000728  0.001179
    17 C    -0.004332  0.001593 -0.000019
    18 C     0.000850 -0.001914 -0.002258
    19 C     0.002070  0.002665  0.002130
    20 C    -0.000974  0.000607 -0.001012
    21 C     0.001010  0.000028 -0.002127
    22 H     0.000141 -0.000710  0.000456
    23 H    -0.001068  0.001000  0.000421
    24 H    -0.000705  0.001309  0.000029
    25 H     0.000755  0.001376  0.000616
    26 H     0.001475  0.000522  0.000982
 ----------------------------------------
 Mulliken charges used for AMS results%charges...
 Rebuilding optimization coordinates

 dE(predicted):    -0.76118E-03, dE(actual):    -0.46158E-03, Trust radius:    0.799999, all in a.u.
 
----------------------------------------------------------------------
Geometry Convergence after Step  12       (Hartree/Angstrom,Angstrom)
----------------------------------------------------------------------
current energy                               -5.83148218 Hartree
energy change                      -0.00046158     0.00026000    F
constrained gradient max            0.01097982     0.00100000    F
constrained gradient rms            0.00245191     0.00066667    F
gradient max                        0.01097982
gradient rms                        0.00245191
cart. step max                      0.21668262     0.01000000    F
cart. step rms                      0.05157722     0.00666667    F
 
 
--------
Geometry
--------
Formula: C10H12N2O2
Atoms
  Index Symbol   x (angstrom)   y (angstrom)   z (angstrom)
      1      C    -0.90078028    -1.70048368     0.06320551
      2      C     0.40975130    -1.60133758     0.39239681
      3      C     1.33727305    -2.72643509     0.34437420
      4      O     2.55174443    -2.61387183     0.51333007
      5      H     1.81937395     1.82386973    -1.58245021
      6      H    -1.28293649    -2.69192746    -0.19314330
      7      H     0.87438557    -0.65981324     0.65871395
      8      H     0.89200617    -3.72582814     0.12154491
      9      N     3.88110173     0.62274144     0.52808889
     10      C     3.00517495     1.56785467     0.01863307
     11      O     2.90002848     2.70952017     0.44997247
     12      N     2.22905341     1.07601109    -1.03972550
     13      H     4.27298359     0.86971706     1.42492002
     14      H     3.63737686    -0.35618149     0.42647302
     15      H     2.61422722     0.33087729    -1.60514619
     16      C    -1.87780030    -0.61540458    -0.01686994
     17      C    -3.21677983    -0.90961462    -0.35054084
     18      C    -4.16721107     0.09987683    -0.46857603
     19      C    -3.80309620     1.43123866    -0.25970502
     20      C    -2.48349207     1.74155513     0.07625269
     21      C    -1.53418237     0.73545066     0.20033692
     22      H    -3.50835530    -1.94480429    -0.52057812
     23      H    -5.19463276    -0.14693226    -0.72894334
     24      H    -4.54374617     2.22289789    -0.35762895
     25      H    -2.18933128     2.77655062     0.24003683
     26      H    -0.51345136     1.00689628     0.44719444
 
Total System Charge             0.00000
Bonding info available!
 
 *** GOStep13 ***

 Energy gradients wrt nuclear displacements
 ==========================================

     Atom      Cartesian (a.u./angstrom)
                 X         Y         Z
 ----------------------------------------
     1 C     0.000774 -0.000305 -0.001033
     2 C    -0.002583  0.004129 -0.000080
     3 C    -0.004174 -0.000560 -0.000168
     4 O     0.002636  0.002616  0.000931
     5 H     0.000971  0.001028  0.001430
     6 H    -0.000333 -0.000664  0.000042
     7 H     0.003768 -0.002651  0.000409
     8 H    -0.000194 -0.001332 -0.000423
     9 N     0.001529 -0.002421  0.001801
    10 C    -0.003854  0.010558  0.001782
    11 O     0.002003 -0.003683  0.000756
    12 N     0.001539 -0.012511 -0.002739
    13 H     0.000116 -0.000263 -0.000179
    14 H    -0.001776 -0.000116 -0.002425
    15 H    -0.001477 -0.000649 -0.001143
    16 C     0.000350  0.001257  0.000269
    17 C    -0.002123  0.002007  0.000011
    18 C     0.001099 -0.000921  0.000536
    19 C     0.002080  0.001527 -0.000021
    20 C    -0.000724 -0.000140 -0.000736
    21 C    -0.000333 -0.000417  0.000612
    22 H    -0.000110 -0.000499  0.000255
    23 H    -0.000871  0.001066 -0.000179
    24 H    -0.000479  0.001268  0.000086
    25 H     0.001019  0.001279  0.000189
    26 H     0.001149  0.000394  0.000018
 ----------------------------------------
 Mulliken charges used for AMS results%charges...

 dE(predicted):    -0.71809E-03, dE(actual):    -0.35965E-03, Trust radius:    0.799999, all in a.u.
 
----------------------------------------------------------------------
Geometry Convergence after Step  13       (Hartree/Angstrom,Angstrom)
----------------------------------------------------------------------
current energy                               -5.83184183 Hartree
energy change                      -0.00035965     0.00026000    F
constrained gradient max            0.01201844     0.00100000    F
constrained gradient rms            0.00238643     0.00066667    F
gradient max                        0.01201844
gradient rms                        0.00238643
cart. step max                      0.21512558     0.01000000    F
cart. step rms                      0.05179233     0.00666667    F
 
 
--------
Geometry
--------
Formula: C10H12N2O2
Atoms
  Index Symbol   x (angstrom)   y (angstrom)   z (angstrom)
      1      C    -0.93097986    -1.71465529     0.07668357
      2      C     0.38443101    -1.61937452     0.38563487
      3      C     1.29986385    -2.75748503     0.35690251
      4      O     2.51610081    -2.65145794     0.51785593
      5      H     1.82340200     1.92993953    -1.46325145
      6      H    -1.32248294    -2.70886925    -0.15373862
      7      H     0.86449508    -0.67847880     0.62790494
      8      H     0.84260380    -3.75654318     0.15788110
      9      N     3.97518964     0.62652524     0.48360690
     10      C     3.11682629     1.61497616     0.03395352
     11      O     3.11515406     2.76557884     0.45361029
     12      N     2.22584784     1.15783709    -0.94864044
     13      H     4.44507014     0.84831946     1.34875132
     14      H     3.68586571    -0.34146365     0.38353125
     15      H     2.51970711     0.39523316    -1.54484394
     16      C    -1.90666578    -0.62931891    -0.01607102
     17      C    -3.24359611    -0.92818828    -0.34937201
     18      C    -4.19476024     0.07885356    -0.48292902
     19      C    -3.83285746     1.41216862    -0.28999672
     20      C    -2.51444728     1.72741059     0.04665805
     21      C    -1.56484646     0.72408624     0.18491902
     22      H    -3.53535586    -1.96485620    -0.50866565
     23      H    -5.22080807    -0.17272774    -0.74364810
     24      H    -4.57249184     2.20245467    -0.40319555
     25      H    -2.22159423     2.76461310     0.19704812
     26      H    -0.54498597     0.99784581     0.43157749
 
Total System Charge             0.00000
Bonding info available!
 
 *** GOStep14 ***

 Energy gradients wrt nuclear displacements
 ==========================================

     Atom      Cartesian (a.u./angstrom)
                 X         Y         Z
 ----------------------------------------
     1 C     0.001349  0.000167 -0.000270
     2 C    -0.003512  0.005132 -0.000901
     3 C    -0.005127 -0.002776 -0.000281
     4 O     0.004076  0.003326  0.001153
     5 H     0.001456  0.001452  0.001355
     6 H    -0.000547 -0.000536  0.000073
     7 H     0.004106 -0.003136  0.000891
     8 H    -0.000355 -0.001350 -0.000478
     9 N     0.002430  0.000755  0.002826
    10 C    -0.003710  0.011003  0.001312
    11 O     0.002221 -0.002944  0.000651
    12 N     0.002528 -0.014840 -0.001951
    13 H    -0.000227  0.000333  0.000060
    14 H    -0.003088 -0.003261 -0.003843
    15 H    -0.002640  0.000089 -0.001651
    16 C    -0.000517  0.001504  0.000537
    17 C    -0.000521  0.002115  0.000086
    18 C     0.001460  0.000021  0.000724
    19 C     0.001502  0.000479  0.000015
    20 C    -0.000415 -0.000526 -0.000213
    21 C    -0.000900 -0.000175  0.000200
    22 H    -0.000264 -0.000218  0.000135
    23 H    -0.000689  0.001029 -0.000118
    24 H    -0.000162  0.001126 -0.000173
    25 H     0.001026  0.001007  0.000017
    26 H     0.000518  0.000222 -0.000157
 ----------------------------------------
 Mulliken charges used for AMS results%charges...

 dE(predicted):    -0.50994E-03, dE(actual):    -0.13927E-03, Trust radius:    0.799999, all in a.u.
 
----------------------------------------------------------------------
Geometry Convergence after Step  14       (Hartree/Angstrom,Angstrom)
----------------------------------------------------------------------
current energy                               -5.83198110 Hartree
energy change                      -0.00013927     0.00026000    T
constrained gradient max            0.01436723     0.00100000    F
constrained gradient rms            0.00275384     0.00066667    F
gradient max                        0.01436723
gradient rms                        0.00275384
cart. step max                      0.21797543     0.01000000    F
cart. step rms                      0.05485773     0.00666667    F
 
 
--------
Geometry
--------
Formula: C10H12N2O2
Atoms
  Index Symbol   x (angstrom)   y (angstrom)   z (angstrom)
      1      C    -0.95653900    -1.71316746     0.09306204
      2      C     0.36387954    -1.62046158     0.38073312
      3      C     1.26103275    -2.77546966     0.36488316
      4      O     2.47972794    -2.68902312     0.51088649
      5      H     1.84473019     2.03502629    -1.33277287
      6      H    -1.35275835    -2.71033334    -0.11445933
      7      H     0.86023326    -0.68225039     0.60284372
      8      H     0.78235386    -3.76833479     0.18836838
      9      N     4.07802190     0.61249383     0.43808148
     10      C     3.23972923     1.64389568     0.05463601
     11      O     3.33312949     2.79459948     0.46460510
     12      N     2.24658806     1.24123964    -0.85086179
     13      H     4.62342216     0.80167986     1.26560337
     14      H     3.74241127    -0.34124957     0.34050127
     15      H     2.45647208     0.47439354    -1.47647468
     16      C    -1.93634629    -0.63371662    -0.01668345
     17      C    -3.27046362    -0.94927191    -0.34165931
     18      C    -4.23113650     0.04658486    -0.49139930
     19      C    -3.88163138     1.38486844    -0.31929112
     20      C    -2.56424434     1.71728592     0.00585000
     21      C    -1.60435957     0.72583832     0.15509213
     22      H    -3.55532633    -1.99007784    -0.48273694
     23      H    -5.25521125    -0.21983132    -0.74364279
     24      H    -4.62732844     2.16694297    -0.44505880
     25      H    -2.28120850     2.75938040     0.13674861
     26      H    -0.58649294     1.01138165     0.39531186
 
Total System Charge             0.00000
Bonding info available!
 
 *** GOStep15 ***

 Energy gradients wrt nuclear displacements
 ==========================================

     Atom      Cartesian (a.u./angstrom)
                 X         Y         Z
 ----------------------------------------
     1 C     0.001148  0.000349  0.001463
     2 C    -0.003690  0.005961 -0.001971
     3 C    -0.004260 -0.004112  0.000271
     4 O     0.002989  0.002777  0.000798
     5 H     0.000453  0.000674 -0.000086
     6 H    -0.000760  0.000038 -0.000221
     7 H     0.004700 -0.003361  0.001440
     8 H    -0.000312 -0.000794 -0.000463
     9 N     0.004582  0.002014  0.004445
    10 C    -0.002439  0.005373  0.001467
    11 O     0.001295 -0.001374 -0.001006
    12 N     0.002547 -0.011225 -0.000694
    13 H    -0.000204  0.000394  0.000247
    14 H    -0.004057 -0.004165 -0.004825
    15 H    -0.002692  0.001394 -0.001524
    16 C    -0.001397  0.001669  0.000848
    17 C     0.001072  0.001791  0.000219
    18 C     0.001532  0.001105 -0.000050
    19 C     0.000321 -0.000556  0.000735
    20 C     0.000011 -0.000778  0.000443
    21 C    -0.000840  0.000236 -0.001054
    22 H    -0.000465  0.000325 -0.000002
    23 H    -0.000324  0.000925  0.000216
    24 H     0.000297  0.000784 -0.000428
    25 H     0.000796  0.000455 -0.000100
    26 H    -0.000304  0.000103 -0.000166
 ----------------------------------------
 Mulliken charges used for AMS results%charges...

 dE(predicted):    -0.12322E-02, dE(actual):    -0.28018E-03, Trust radius:    0.799999, all in a.u.
 
----------------------------------------------------------------------
Geometry Convergence after Step  15       (Hartree/Angstrom,Angstrom)
----------------------------------------------------------------------
current energy                               -5.83226128 Hartree
energy change                      -0.00028018     0.00026000    F
constrained gradient max            0.01074969     0.00100000    F
constrained gradient rms            0.00239052     0.00066667    F
gradient max                        0.01074969
gradient rms                        0.00239052
cart. step max                      0.21520258     0.01000000    F
cart. step rms                      0.06814415     0.00666667    F
 
 
--------
Geometry
--------
Formula: C10H12N2O2
Atoms
  Index Symbol   x (angstrom)   y (angstrom)   z (angstrom)
      1      C    -0.98755673    -1.73134555     0.10636015
      2      C     0.33746542    -1.64220087     0.37275411
      3      C     1.21882053    -2.81138940     0.36702414
      4      O     2.44048153    -2.74163630     0.49209835
      5      H     1.84257434     2.17893615    -1.12357670
      6      H    -1.39329636    -2.73114077    -0.06441051
      7      H     0.84530616    -0.70366366     0.57121114
      8      H     0.71863762    -3.79761015     0.21868287
      9      N     4.17039249     0.61274535     0.36865214
     10      C     3.35084346     1.69103774     0.09249676
     11      O     3.54833207     2.83106124     0.49721346
     12      N     2.24173964     1.35244906    -0.69705084
     13      H     4.81529064     0.75570057     1.13109987
     14      H     3.78185517    -0.32315226     0.28761895
     15      H     2.35732708     0.59989027    -1.36440879
     16      C    -1.96441873    -0.65289352    -0.02327335
     17      C    -3.30467305    -0.97366840    -0.31336952
     18      C    -4.26436652     0.02072672    -0.48239833
     19      C    -3.90566070     1.36205788    -0.36894834
     20      C    -2.58147890     1.69973518    -0.07703299
     21      C    -1.62415989     0.70996767     0.09669947
     22      H    -3.59803417    -2.01641530    -0.41072765
     23      H    -5.29293579    -0.25107288    -0.70662854
     24      H    -4.64885953     2.14296579    -0.51032550
     25      H    -2.29356321     2.74440623     0.00985941
     26      H    -0.60137733     0.99693249     0.31254659
 
Total System Charge             0.00000
Bonding info available!
 
 *** GOStep16 ***

 Energy gradients wrt nuclear displacements
 ==========================================

     Atom      Cartesian (a.u./angstrom)
                 X         Y         Z
 ----------------------------------------
     1 C     0.001233  0.001050  0.001282
     2 C    -0.004276  0.006100 -0.001947
     3 C    -0.004471 -0.006133 -0.000371
     4 O     0.003428  0.002516  0.000771
     5 H     0.001278  0.000380  0.000130
     6 H    -0.000862  0.000769  0.000401
     7 H     0.004640 -0.002536  0.001927
     8 H    -0.000687  0.000111 -0.000203
     9 N     0.004996  0.003022  0.003447
    10 C    -0.003043  0.002284 -0.000460
    11 O     0.000479  0.001576 -0.001020
    12 N     0.003518 -0.010337  0.001436
    13 H    -0.000206  0.000330  0.000224
    14 H    -0.005032 -0.005285 -0.004607
    15 H    -0.002211  0.001460 -0.001319
    16 C    -0.001325  0.001031 -0.000167
    17 C     0.002174  0.000845  0.000245
    18 C     0.000384  0.002008  0.000181
    19 C    -0.000504 -0.000871  0.000048
    20 C     0.000565 -0.000229  0.000235
    21 C    -0.000769  0.000019  0.000024
    22 H    -0.000574  0.001215  0.000091
    23 H     0.000411  0.000929  0.000343
    24 H     0.000886  0.000276 -0.000105
    25 H     0.000384 -0.000321 -0.000250
    26 H    -0.000415 -0.000209 -0.000337
 ----------------------------------------
 Mulliken charges used for AMS results%charges...

 dE(predicted):    -0.83605E-03, dE(actual):     0.15470E-03, Trust radius:    0.137298, all in a.u.
 
----------------------------------------------------------------------
Geometry Convergence after Step  16       (Hartree/Angstrom,Angstrom)
----------------------------------------------------------------------
current energy                               -5.83210658 Hartree
energy change                       0.00015470     0.00026000    T
constrained gradient max            0.00986489     0.00100000    F
constrained gradient rms            0.00241214     0.00066667    F
gradient max                        0.00986489
gradient rms                        0.00241214
cart. step max                      0.05998200     0.01000000    F
cart. step rms                      0.02222430     0.00666667    F
 
 
--------
Geometry
--------
Formula: C10H12N2O2
Atoms
  Index Symbol   x (angstrom)   y (angstrom)   z (angstrom)
      1      C    -0.99197912    -1.72830599     0.10669356
      2      C     0.33438624    -1.63371558     0.36815376
      3      C     1.21141206    -2.80577184     0.36312845
      4      O     2.43243039    -2.75749559     0.48099809
      5      H     1.85147393     2.22522930    -1.07545713
      6      H    -1.39369011    -2.73053901    -0.05769660
      7      H     0.83890714    -0.69226305     0.56264072
      8      H     0.69676235    -3.78522022     0.22261182
      9      N     4.19532256     0.59544910     0.35641463
     10      C     3.38503049     1.68845240     0.11094077
     11      O     3.60831407     2.81969479     0.52935662
     12      N     2.25499517     1.39365209    -0.66373510
     13      H     4.86039252     0.72336065     1.10393869
     14      H     3.79635810    -0.33414536     0.27964848
     15      H     2.36433916     0.64908839    -1.34192449
     16      C    -1.97344198    -0.65540222    -0.02653744
     17      C    -3.31674147    -0.98379528    -0.29435993
     18      C    -4.28097832     0.00619740    -0.46718399
     19      C    -3.92376123     1.35004209    -0.37949845
     20      C    -2.59630809     1.69534553    -0.11087266
     21      C    -1.63409814     0.71047981     0.06543232
     22      H    -3.60937172    -2.02814940    -0.37113533
     23      H    -5.31127218    -0.27211394    -0.67356564
     24      H    -4.66960730     2.12743779    -0.52451319
     25      H    -2.31063716     2.74196162    -0.04599021
     26      H    -0.60955212     1.00294981     0.26467861
 
Total System Charge             0.00000
Bonding info available!
 
 *** GOStep17 ***

 Energy gradients wrt nuclear displacements
 ==========================================

     Atom      Cartesian (a.u./angstrom)
                 X         Y         Z
 ----------------------------------------
     1 C    -0.000251  0.001088  0.001128
     2 C    -0.004052  0.004382 -0.001909
     3 C     0.001131 -0.002118  0.000091
     4 O    -0.001366 -0.000938  0.000056
     5 H    -0.001860 -0.001173 -0.001585
     6 H    -0.000710  0.001056  0.000263
     7 H     0.004322 -0.002231  0.002052
     8 H    -0.000278  0.001210  0.000148
     9 N     0.005971  0.001014  0.004751
    10 C    -0.001703 -0.008861 -0.002151
    11 O    -0.001662  0.002594 -0.002426
    12 N     0.000614  0.001956  0.003058
    13 H     0.000008 -0.000348  0.000101
    14 H    -0.003077 -0.002313 -0.003427
    15 H     0.001355  0.000921 -0.000402
    16 C    -0.001221 -0.000223  0.000107
    17 C     0.002127 -0.000234  0.000362
    18 C    -0.000521  0.002137 -0.000239
    19 C    -0.000922 -0.000421  0.000230
    20 C     0.000747  0.000453  0.000456
    21 C     0.000245  0.000307 -0.000489
    22 H    -0.000556  0.001540  0.000123
    23 H     0.000760  0.000819  0.000452
    24 H     0.001217  0.000149 -0.000150
    25 H     0.000187 -0.000606 -0.000403
    26 H    -0.000505 -0.000160 -0.000197
 ----------------------------------------
 Mulliken charges used for AMS results%charges...

 dE(predicted):    -0.35143E-03, dE(actual):    -0.20147E-03, Trust radius:    0.137298, all in a.u.
 
----------------------------------------------------------------------
Geometry Convergence after Step  17       (Hartree/Angstrom,Angstrom)
----------------------------------------------------------------------
current energy                               -5.83230805 Hartree
energy change                      -0.00020147     0.00026000    T
constrained gradient max            0.00828129     0.00100000    F
constrained gradient rms            0.00197239     0.00066667    F
gradient max                        0.00828129
gradient rms                        0.00197239
cart. step max                      0.06252955     0.01000000    F
cart. step rms                      0.01707838     0.00666667    F
 
 
--------
Geometry
--------
Formula: C10H12N2O2
Atoms
  Index Symbol   x (angstrom)   y (angstrom)   z (angstrom)
      1      C    -0.99795877    -1.73086211     0.10219786
      2      C     0.32900234    -1.63255801     0.36274824
      3      C     1.20104995    -2.80784615     0.36801243
      4      O     2.42209386    -2.76958325     0.48492432
      5      H     1.88235570     2.26725851    -1.03792455
      6      H    -1.39690057    -2.73544402    -0.05565629
      7      H     0.83278646    -0.68842209     0.54685510
      8      H     0.67869223    -3.78523288     0.23828239
      9      N     4.21480095     0.59116499     0.33978525
     10      C     3.41678709     1.69760626     0.11980993
     11      O     3.67084362     2.82063902     0.54155343
     12      N     2.26551948     1.42278340    -0.63384975
     13      H     4.90062733     0.70725264     1.07009622
     14      H     3.80390921    -0.33199048     0.27516611
     15      H     2.35356723     0.67615223    -1.31389326
     16      C    -1.98205330    -0.66002025    -0.03284920
     17      C    -3.32784945    -0.99180206    -0.28888433
     18      C    -4.29431254    -0.00369563    -0.46171289
     19      C    -3.93758469     1.34190854    -0.38636309
     20      C    -2.60869340     1.69071142    -0.12822584
     21      C    -1.64407761     0.70759864     0.04883090
     22      H    -3.61922551    -2.03745463    -0.35584184
     23      H    -5.32585104    -0.28445608    -0.65977559
     24      H    -4.68586063     2.11758290    -0.53063399
     25      H    -2.32444464     2.73851580    -0.07108837
     26      H    -0.61853809     1.00261656     0.24060318
 
Total System Charge             0.00000
Bonding info available!
 
 *** GOStep18 ***

 Energy gradients wrt nuclear displacements
 ==========================================

     Atom      Cartesian (a.u./angstrom)
                 X         Y         Z
 ----------------------------------------
     1 C    -0.000748  0.000215  0.000388
     2 C    -0.002821  0.004103 -0.000939
     3 C     0.001515 -0.000398  0.000174
     4 O    -0.001945 -0.001976 -0.000083
     5 H     0.000124 -0.000650 -0.000067
     6 H    -0.000488  0.000674  0.000021
     7 H     0.004146 -0.001840  0.001588
     8 H    -0.000378  0.000922  0.000248
     9 N     0.003116 -0.000185  0.003095
    10 C    -0.002125 -0.005649 -0.001946
    11 O    -0.000114  0.001677 -0.001177
    12 N    -0.001551  0.000103  0.000839
    13 H    -0.000385 -0.000539 -0.000151
    14 H    -0.001208  0.000210 -0.002223
    15 H     0.001731 -0.000849 -0.000311
    16 C    -0.000471 -0.000751  0.000277
    17 C     0.000999 -0.000552  0.000348
    18 C    -0.000931  0.001450 -0.000089
    19 C    -0.000693  0.000396 -0.000044
    20 C     0.000795  0.000929  0.000297
    21 C     0.000539  0.000729 -0.000179
    22 H    -0.000489  0.001138  0.000197
    23 H     0.000471  0.000684  0.000294
    24 H     0.000904  0.000447 -0.000084
    25 H     0.000198 -0.000160 -0.000336
    26 H    -0.000193 -0.000128 -0.000137
 ----------------------------------------
 Mulliken charges used for AMS results%charges...

 dE(predicted):    -0.25126E-03, dE(actual):    -0.11090E-03, Trust radius:    0.137298, all in a.u.
 
----------------------------------------------------------------------
Geometry Convergence after Step  18       (Hartree/Angstrom,Angstrom)
----------------------------------------------------------------------
current energy                               -5.83241895 Hartree
energy change                      -0.00011090     0.00026000    T
constrained gradient max            0.00508536     0.00100000    F
constrained gradient rms            0.00135270     0.00066667    F
gradient max                        0.00508536
gradient rms                        0.00135270
cart. step max                      0.05748098     0.01000000    F
cart. step rms                      0.01689013     0.00666667    F
 
 
--------
Geometry
--------
Formula: C10H12N2O2
Atoms
  Index Symbol   x (angstrom)   y (angstrom)   z (angstrom)
      1      C    -1.00303309    -1.73435285     0.10438925
      2      C     0.32482636    -1.63472726     0.36165118
      3      C     1.19117392    -2.81319555     0.37145272
      4      O     2.41301513    -2.78112091     0.48223107
      5      H     1.89269164     2.30594616    -0.99375914
      6      H    -1.40150285    -2.74111590    -0.04268535
      7      H     0.82677281    -0.68731288     0.53416221
      8      H     0.66290992    -3.78949900     0.24943929
      9      N     4.22949804     0.58725419     0.31775512
     10      C     3.44405012     1.70833873     0.13115079
     11      O     3.72832460     2.81990220     0.56058135
     12      N     2.27122281     1.45443615    -0.60010295
     13      H     4.93861422     0.68975901     1.02778823
     14      H     3.80748713    -0.33021916     0.26581020
     15      H     2.33334372     0.70749788    -1.28282854
     16      C    -1.98765687    -0.66379933    -0.03627316
     17      C    -3.33560433    -0.99807330    -0.28278722
     18      C    -4.30282996    -0.01175270    -0.45946424
     19      C    -3.94570947     1.33514951    -0.39784035
     20      C    -2.61560068     1.68654134    -0.14935490
     21      C    -1.64981480     0.70489656     0.03266257
     22      H    -3.62613619    -2.04517471    -0.33748569
     23      H    -5.33605499    -0.29387848    -0.64919340
     24      H    -4.69624115     2.10924361    -0.54304290
     25      H    -2.33170559     2.73541552    -0.10044267
     26      H    -0.62335521     1.00226444     0.21835288
 
Total System Charge             0.00000
Bonding info available!
 
 *** GOStep19 ***

 Energy gradients wrt nuclear displacements
 ==========================================

     Atom      Cartesian (a.u./angstrom)
                 X         Y         Z
 ----------------------------------------
     1 C    -0.000464 -0.000245 -0.000104
     2 C    -0.000721  0.003441  0.000052
     3 C     0.000208  0.000599  0.000303
     4 O    -0.001619 -0.002066 -0.000214
     5 H     0.000373 -0.000515 -0.000094
     6 H    -0.000227  0.000060  0.000048
     7 H     0.003322 -0.001178  0.001150
     8 H    -0.000684 -0.000019  0.000020
     9 N    -0.000461 -0.000912  0.001064
    10 C    -0.000393 -0.001072  0.000121
    11 O     0.000997 -0.000644 -0.000518
    12 N    -0.002620 -0.001848 -0.000838
    13 H    -0.000499 -0.000567 -0.000103
    14 H     0.000608  0.001605 -0.001045
    15 H     0.001313 -0.001619 -0.000257
    16 C     0.000162 -0.000452  0.000285
    17 C    -0.000273 -0.000088  0.000161
    18 C    -0.000549  0.000662 -0.000053
    19 C    -0.000113  0.000783 -0.000125
    20 C     0.000719  0.000776 -0.000214
    21 C     0.000417  0.000914  0.000155
    22 H    -0.000417  0.000456  0.000319
    23 H    -0.000087  0.000580  0.000186
    24 H     0.000318  0.000839 -0.000022
    25 H     0.000353  0.000485 -0.000177
    26 H     0.000338  0.000027 -0.000100
 ----------------------------------------
 Mulliken charges used for AMS results%charges...

 dE(predicted):    -0.23609E-03, dE(actual):    -0.12133E-04, Trust radius:    0.034325, all in a.u.
 
----------------------------------------------------------------------
Geometry Convergence after Step  19       (Hartree/Angstrom,Angstrom)
----------------------------------------------------------------------
current energy                               -5.83243108 Hartree
energy change                      -0.00001213     0.00026000    T
constrained gradient max            0.00348210     0.00100000    F
constrained gradient rms            0.00086210     0.00066667    F
gradient max                        0.00348210
gradient rms                        0.00086210
cart. step max                      0.01993946     0.01000000    F
cart. step rms                      0.00570474     0.00666667    T
 
 
--------
Geometry
--------
Formula: C10H12N2O2
Atoms
  Index Symbol   x (angstrom)   y (angstrom)   z (angstrom)
      1      C    -1.00508753    -1.73220730     0.10490458
      2      C     0.32320213    -1.63241452     0.36037661
      3      C     1.18799559    -2.81204970     0.37199779
      4      O     2.41020520    -2.78154538     0.48195222
      5      H     1.90515385     2.31638929    -0.98589888
      6      H    -1.40342902    -2.73950483    -0.03933226
      7      H     0.82551838    -0.68465993     0.52899406
      8      H     0.65850266    -3.78827479     0.25266326
      9      N     4.23846623     0.58347285     0.31365043
     10      C     3.45693129     1.70889954     0.13383130
     11      O     3.74826406     2.81749987     0.56523718
     12      N     2.27999288     1.46248896    -0.59384477
     13      H     4.95211187     0.68183165     1.01997426
     14      H     3.81257821    -0.33243042     0.26371341
     15      H     2.33546703     0.71584714    -1.27686267
     16      C    -1.99112792    -0.66288679    -0.03669318
     17      C    -3.33867825    -1.00024352    -0.28134385
     18      C    -4.30790839    -0.01650892    -0.45890164
     19      C    -3.95350251     1.33115187    -0.39987556
     20      C    -2.62411281     1.68554012    -0.15297983
     21      C    -1.65603607     0.70627862     0.02970721
     22      H    -3.62663598    -2.04826431    -0.33404703
     23      H    -5.34087210    -0.30069434    -0.64756460
     24      H    -4.70609703     2.10322926    -0.54586478
     25      H    -2.34213254     2.73511052    -0.10592670
     26      H    -0.63008403     1.00636833     0.21429979
 
Total System Charge             0.00000
Bonding info available!
 
 *** GOStep20 ***

 Energy gradients wrt nuclear displacements
 ==========================================

     Atom      Cartesian (a.u./angstrom)
                 X         Y         Z
 ----------------------------------------
     1 C    -0.000411 -0.000163 -0.000178
     2 C    -0.000267  0.003553  0.000369
     3 C    -0.000591  0.000693  0.000173
     4 O    -0.000912 -0.002096 -0.000129
     5 H     0.000418 -0.000508 -0.000222
     6 H    -0.000237 -0.000012  0.000003
     7 H     0.003107 -0.001278  0.000984
     8 H    -0.000717 -0.000320  0.000006
     9 N    -0.000590 -0.000997  0.000827
    10 C    -0.000220 -0.000042  0.000519
    11 O     0.000864 -0.001321 -0.000659
    12 N    -0.002763 -0.002234 -0.001439
    13 H    -0.000281 -0.000585  0.000026
    14 H     0.000725  0.001383 -0.000890
    15 H     0.001189 -0.001196  0.000204
    16 C     0.000065  0.000043  0.000285
    17 C    -0.000453  0.000393  0.000172
    18 C    -0.000108  0.000542  0.000050
    19 C     0.000176  0.000638 -0.000108
    20 C     0.000470  0.000395 -0.000220
    21 C     0.000178  0.000665  0.000096
    22 H    -0.000367  0.000301  0.000316
    23 H    -0.000216  0.000621  0.000139
    24 H     0.000170  0.000855 -0.000060
    25 H     0.000419  0.000580 -0.000170
    26 H     0.000352  0.000090 -0.000095
 ----------------------------------------
 Mulliken charges used for AMS results%charges...

 dE(predicted):    -0.60202E-04, dE(actual):    -0.35250E-04, Trust radius:    0.034325, all in a.u.
 
----------------------------------------------------------------------
Geometry Convergence after Step  20       (Hartree/Angstrom,Angstrom)
----------------------------------------------------------------------
current energy                               -5.83246633 Hartree
energy change                      -0.00003525     0.00026000    T
constrained gradient max            0.00359304     0.00100000    F
constrained gradient rms            0.00084226     0.00066667    F
gradient max                        0.00359304
gradient rms                        0.00084226
cart. step max                      0.01848554     0.01000000    F
cart. step rms                      0.00564299     0.00666667    T
 
 
--------
Geometry
--------
Formula: C10H12N2O2
Atoms
  Index Symbol   x (angstrom)   y (angstrom)   z (angstrom)
      1      C    -1.00857577    -1.73044925     0.10613729
      2      C     0.32014524    -1.63103364     0.35907848
      3      C     1.18511350    -2.81068000     0.37183522
      4      O     2.40764708    -2.77868405     0.48074699
      5      H     1.91826102     2.32548762    -0.97941566
      6      H    -1.40770786    -2.73782133    -0.03532102
      7      H     0.82299507    -0.68322012     0.52359190
      8      H     0.65669102    -3.78779623     0.25491308
      9      N     4.24874806     0.58016696     0.31045046
     10      C     3.47046203     1.70987234     0.13648568
     11      O     3.76674960     2.81638040     0.56973168
     12      N     2.29064701     1.46987336    -0.58852759
     13      H     4.96567830     0.67427775     1.01437135
     14      H     3.81839971    -0.33473122     0.26161205
     15      H     2.34064348     0.72460846    -1.27256768
     16      C    -1.99556017    -0.66217254    -0.03646961
     17      C    -3.34248300    -1.00222562    -0.27963598
     18      C    -4.31329151    -0.02092502    -0.45824215
     19      C    -3.96126643     1.32720794    -0.40171170
     20      C    -2.63269137     1.68408665    -0.15634879
     21      C    -1.66277433     0.70694158     0.02722398
     22      H    -3.62814715    -2.05095678    -0.33045669
     23      H    -5.34601040    -0.30663085    -0.64597732
     24      H    -4.71559993     2.09732670    -0.54876545
     25      H    -2.35204805     2.73405807    -0.11128905
     26      H    -0.63733992     1.00946205     0.21071689
 
Total System Charge             0.00000
Bonding info available!
 
 *** GOStep21 ***
