
 *******************************************************************************
 *                                                                             *
 *  --------------------------------                                           *
 *   Amsterdam Modeling Suite (AMS)              2021.102                      *
 *  --------------------------------                                           *
 *                                               r95042 2021-06-07             *
 *                                                                             *
 *                                                                             *
 *                              =================                              *
 *                              |               |                              *
 *                              |     A M S     |                              *
 *                              |               |                              *
 *                              =================                              *
 *                                                                             *
 *                                                                             *
 *   Online information and documentation:  https://www.scm.com/support/       *
 *   E-mail:  support@scm.com   info@scm.com                                   *
 *                                                                             *
 *   Scientific publications using AMS results must be properly referenced     *
 *   See the User Manuals (or the web site) for recommended citations          *
 *   The terms and conditions of the End User License Agreement apply to       *
 *   the use of AMS, https://www.scm.com/license-terms/                        *
 *                                                                             *
 **********************  x86_64_linux_intel / intelmpi  ************************
 
 Licensed to: VU/FEW (+ SARA) / ALGEMEEN / Amsterdam / THE NETHERLANDS
 SCM User ID: u7668
  
 AMS 2021.102  RunTime: Jan20-2022 02:54:59  ShM Nodes: 1  Procs: 1

 AMS jobname: 7.no_catalyst_F_H.TS
 AMS jobid  : 1882727604

 Start   directory: /scistor/tc/yhk800/MasterProject/calculations/no_catalyst_F_H/7.no_catalyst_F_H.TS/
 Results directory: /scistor/tc/yhk800/MasterProject/calculations/no_catalyst_F_H/7.no_catalyst_F_H.TS/
 Scratch directory: /scratch/3465/amstmp_7.no_catalyst_F_H.TS_kid0.1882727604/

 RNG seed: -2106831150 46847786 -964863843 -12229463 -885797131 -1371305201 -643565552 96708100



                      ************************************************************************
                      *  ADF 2021.102  RunTime: Jan20-2022 02:54:59  ShM Nodes: 1  Procs: 1  *
                      ************************************************************************
  
       *****************************
       *  TRANSITION STATE SEARCH  *
       *****************************

Optimization Method                    Quasi Newton
Optimization Coordinates               Delocalized Coordinates
Optimize lattice                       F
 
 ------------------------------------------------------
 Convergence criteria (Hartree,Angstrom)
 ------------------------------------------------------
 Maximum gradient               0.001000000000
 Maximum rms gradient           0.000666666667
 Maximum step allowed           0.010000000000
 Maximum rms step allowed       0.006666666667
 Maximum energy change allowe   0.000120000000
 Maximum stress energy allowe   0.000500000000
 
Initial model Hessian                  Automatic Hessian
 
------------------------------------
Quasi-Newton Optimizer Parameters
------------------------------------
Hessian Update Method                  Bofill
Maximum number of steps                  250
First GDIIS cycle                          0
Maximum GDIIS vectors                      0
Trust radius (bohr)                        0.200000
Trust radius varies                        F
Constraints converged at all steps         T
Use projector                              T
 
 Rigid motions settings for: old optimizer
 Atomic rotations (x,y,z):     T T T
 Atomic translations (x,y,z):  T T T
 Tolerance:                   1.000000000000000E-006
 
           1  TSRC entries:
    i   type      a1    a2    a3    a4    coef
    1 Distance     1     2               -1.000
 
--------
Geometry
--------
Formula: C4H6FO
Atoms
  Index Symbol   x (angstrom)   y (angstrom)   z (angstrom)
      1      C     0.81668000    -0.23471900     0.88197500
      2      C     0.81678400    -0.23413100    -0.47719300
      3      C    -1.53160000    -0.46998000    -1.30857600
      4      H     0.85636200    -1.16386700     1.44859300
      5      C     0.73893400     1.00063500     1.66014300
      6      H    -1.75224300    -1.42324600    -0.84366900
      7      H     0.86540100     0.70149500    -1.02879400
      8      H    -1.29572100    -0.45322200    -2.36675600
      9      H    -1.93437200     0.42729600    -0.85485600
     10      O     0.73088900     1.05622100     2.88164900
     11      H     0.99495642    -1.13003362    -1.03443002
     12      F     0.67907420     2.18026153     0.89007934
 
Total System Charge             0.00000
 
 
----------------
ADF Engine Input
----------------
 
 NumericalQuality VeryGood
 SCF
 Converge 1.0e-6
 Iterations 99
 End
 SYMMETRY NOSYM
 SpinPolarization 1.0
 Unrestricted Yes
 XC
 GGA OLYP
 End
 basis
 core None
 type TZ2P
 End
 

 Title: *** (NO TITLE) ***

 Using automatic Hessian for delocalized coordinates.
 *** GOStep1 ***

 Energy gradients wrt nuclear displacements
 ==========================================

     Atom      Cartesian (a.u./angstrom)
                 X         Y         Z
 ----------------------------------------
     1 C     0.000765 -0.017479  0.018973
     2 C     0.002431 -0.015597 -0.004157
     3 C     0.000349 -0.000260 -0.000241
     4 H     0.000296 -0.007807 -0.002929
     5 C     0.000093  0.001747 -0.066713
     6 H    -0.000196  0.000285  0.000048
     7 H     0.000404  0.003763 -0.002460
     8 H    -0.000277 -0.000012 -0.000074
     9 H    -0.000522 -0.000365 -0.000028
    10 O     0.000334 -0.011985  0.069904
    11 H    -0.002760  0.018396  0.007774
    12 F    -0.000917  0.029313 -0.020096
 ----------------------------------------
 Mulliken charges used for AMS results%charges...
           Primitive Internal Coordinates (atoms in internal order)
-------------------------------------------------------------------------------
    index    type      i       j       k       l   value(A,deg)     TSRC Vect
-------------------------------------------------------------------------------
       1     bnd       1       5       0       0     1.46208392     0.00000000
       2     bnd       1       2       0       0     1.35916813    -0.48531209
       3     bnd       3       9       0       0     1.08313958    -0.00422752
       4     bnd       1       4       0       0     1.08901177     0.00000000
       5     bnd       3       6       0       0     1.08329955    -0.00366948
       6     bnd       2       7       0       0     1.08720894    -0.01157629
       7     bnd       3       8       0       0     1.08428070    -0.01947751
       8     bnd       5      10       0       0     1.22279656     0.00000000
       9     bnd       2      11       0       0     1.07000001    -0.01078579
      10     bnd       5      12       0       0     1.41000000     0.00000000
      11     bnd       2       3       0       0     2.50234487     0.04479268
      12     bnd       1       3       0       0     3.21998143    -0.21075067
      13     bnd       2       6       0       0     2.85450501     0.02261123
      14     bnd       2       8       0       0     2.84273224     0.03872695
      15     bnd       2       9       0       0     2.85464085     0.02267470
      16     bnd       3       7       0       0     2.68258186     0.01467715
      17     bnd       3      11       0       0     2.62570260     0.01528547
      18     ang       5       1       2       0   122.13193049    -0.00822863
      19     ang       5       1       4       0   116.48149708     0.01094609
      20     ang       5       1       3       0   112.64562536    -0.01558659
      21     ang       2       1       4       0   121.37727346    -0.00258179
      22     ang       2       1       3       0    47.13980479     0.03175565
      23     ang       4       1       3       0   108.55407601    -0.01199232
      24     ang       1       2       7       0   120.51279539    -0.00098065
      25     ang       1       2      11       0   121.36128216     0.00101742
      26     ang       1       2       3       0   109.39804563     0.04157551
      27     ang       1       2       6       0    97.36189422     0.04046564
      28     ang       1       2       8       0   131.65236189     0.03455124
      29     ang       1       2       9       0    97.60393042     0.04051100
      30     ang       7       2      11       0   116.67222783    -0.00511725
      31     ang       7       2       3       0    87.39281970    -0.01153287
      32     ang       7       2       6       0   109.48758492    -0.01345692
      33     ang       7       2       8       0    76.25016237    -0.00791067
      34     ang       7       2       9       0    77.08981866    -0.00965703
      35     ang      11       2       3       0    84.51010404    -0.01159676
      36     ang      11       2       6       0    74.58595081    -0.00976978
      37     ang      11       2       8       0    73.32443789    -0.00809313
      38     ang      11       2       9       0   106.59375947    -0.01365090
      39     ang       6       2       8       0    38.16371016    -0.00767443
      40     ang       6       2       9       0    38.01699289    -0.00322242
      41     ang       8       2       9       0    38.16203879    -0.00774046
      42     ang       9       3       6       0   118.25885447     0.00484922
      43     ang       9       3       8       0   118.48323850     0.00093085
      44     ang       9       3       2       0    97.56929804    -0.00940999
      45     ang       9       3       1       0    85.73843521     0.02822307
      46     ang       9       3       7       0    85.80331135    -0.00650988
      47     ang       9       3      11       0   121.48827574    -0.01365827
      48     ang       6       3       8       0   118.47247906     0.00077498
      49     ang       6       3       2       0    97.55621160    -0.00959817
      50     ang       6       3       1       0    85.46171991     0.02878896
      51     ang       6       3       7       0   121.43376470    -0.01362014
      52     ang       6       3      11       0    85.98434689    -0.00657975
      53     ang       8       3       2       0    96.81291220     0.00376012
      54     ang       8       3       1       0   120.27444570    -0.06956927
      55     ang       8       3       7       0    84.29830723     0.00522494
      56     ang       8       3      11       0    84.05640983     0.00528833
      57     ang       1       3       7       0    41.01789145    -0.06553979
      58     ang       1       3      11       0    41.02628758    -0.06565108
      59     ang       7       3      11       0    40.45513557    -0.00740868
      60     ang       1       5      10       0   124.78014579    -0.00000000
      61     ang       1       5      12       0   114.73739867     0.00000000
      62     ang      10       5      12       0   120.48134630    -0.00000000
      63     ang       3       6       2       0    60.34468769     0.01151103
      64     ang       2       7       3       0    68.72451165     0.01554220
      65     ang       3       8       2       0    60.93212808     0.00326367
      66     ang       3       9       2       0    60.33684884     0.01144707
      67     ang       2      11       3       0    71.55860906     0.01582582
      68     dih       2       1       5      10   179.74813341     0.01259504
      69     dih       2       1       5      12    -0.63506953     0.01259504
      70     dih       4       1       5      10     0.84367616     0.00462144
      71     dih       4       1       5      12   180.46047323     0.00462144
      72     dih       3       1       5      10   127.21624574    -0.01721647
      73     dih       3       1       5      12   -53.16695720    -0.01721647
      74     dih       5       1       2       7     6.57009342     0.00913981
      75     dih       5       1       2      11   172.35502872    -0.01599884
      76     dih       5       1       2       3   267.85385074    -0.00311196
      77     dih       5       1       2       6   248.75690649    -0.00334637
      78     dih       5       1       2       8   267.65479661    -0.00323638
      79     dih       5       1       2       9   -72.88759900    -0.00290085
      80     dih       4       1       2       7   185.42152053     0.01764037
      81     dih       4       1       2      11    -8.79354417    -0.00749828
      82     dih       4       1       2       3    86.70527785     0.00538861
      83     dih       4       1       2       6    67.60833360     0.00515420
      84     dih       4       1       2       8    86.50622373     0.00526418
      85     dih       4       1       2       9   105.96382811     0.00559972
      86     dih       3       1       2       7    98.71624268     0.01225177
      87     dih       3       1       2      11   264.50117798    -0.01288689
      88     dih       3       1       2       6   -19.09694425    -0.00023441
      89     dih       3       1       2       8    -0.19905413    -0.00012443
      90     dih       3       1       2       9    19.25855026     0.00021111
      91     dih       6       3       9       2   102.82836572    -0.01539402
      92     dih       8       3       9       2   257.98018397     0.00087121
      93     dih       1       3       9       2    20.30570963    -0.06321646
      94     dih       7       3       9       2   -20.82918846     0.00307729
      95     dih      11       3       9       2    -0.82262789    -0.00050433
      96     dih       9       3       6       2   257.16400671     0.01528461
      97     dih       8       3       6       2   102.00948582    -0.00101785
      98     dih       1       3       6       2   -20.14929510     0.06277352
      99     dih       7       3       6       2     0.52968161     0.00056829
     100     dih      11       3       6       2    20.99355189    -0.00328342
     101     dih       1       2       7       3   248.95626953    -0.04156740
     102     dih      11       2       7       3    82.52763162    -0.01838210
     103     dih       6       2       7       3     0.44547776     0.00053942
     104     dih       8       2       7       3    19.49721097    -0.00562953
     105     dih       9       2       7       3   -19.75505464     0.00083177
     106     dih       9       3       8       2   102.45974316    -0.00853173
     107     dih       6       3       8       2   257.55808319     0.00878822
     108     dih       1       3       8       2    -0.18104675     0.00059191
     109     dih       7       3       8       2    20.38290605    -0.00380768
     110     dih      11       3       8       2   -20.29058747     0.00404182
     111     dih       1       2      11       3   109.40048384     0.04192771
     112     dih       7       2      11       3   -84.29422306     0.01823155
     113     dih       6       2      11       3    20.10982482    -0.00055157
     114     dih       8       2      11       3   -19.64380594     0.00556547
     115     dih       9       2      11       3    -0.67870888    -0.00052045
     116     dih       1       2       3       9    60.36685908     0.00037683
     117     dih       1       2       3       6   -59.59533627    -0.00027246
     118     dih       1       2       3       8   180.39271465     0.00015248
     119     dih       1       2       3       7   121.52101014     0.00126404
     120     dih       1       2       3      11   238.63730914    -0.00122412
     121     dih       7       2       3       9   -61.15415106    -0.00088721
     122     dih       7       2       3       6   178.88365359    -0.00153650
     123     dih       7       2       3       8    58.87170451    -0.00111156
     124     dih       7       2       3       1   238.47898986    -0.00126404
     125     dih       7       2       3      11   117.11629900    -0.00248816
     126     dih      11       2       3       9   181.72954994     0.00160095
     127     dih      11       2       3       6    61.76735459     0.00095166
     128     dih      11       2       3       8   -58.24459449     0.00137660
     129     dih      11       2       3       1   121.36269086     0.00122412
     130     dih      11       2       3       7   242.88370100     0.00248816
     131     dih       6       2       3       9   119.96219535     0.00064929
     132     dih       6       2       3       8   239.98805092     0.00042494
     133     dih       6       2       3       1    59.59533627     0.00027246
     134     dih       6       2       3       7   181.11634641     0.00153650
     135     dih       6       2       3      11   -61.76735459    -0.00095166
     136     dih       8       2       3       9   239.97414443     0.00022435
     137     dih       8       2       3       6   120.01194908    -0.00042494
     138     dih       8       2       3       1   179.60728535    -0.00015248
     139     dih       8       2       3       7   -58.87170451     0.00111156
     140     dih       8       2       3      11    58.24459449    -0.00137660
     141     dih       9       2       3       6   240.03780465    -0.00064929
     142     dih       9       2       3       8   120.02585557    -0.00022435
     143     dih       9       2       3       1   -60.36685908    -0.00037683
     144     dih       9       2       3       7    61.15415106     0.00088721
     145     dih       9       2       3      11   178.27045006    -0.00160095
     146     dih       5       1       3       9    -6.70885435     0.00223865
     147     dih       5       1       3       6   234.46351100     0.00475520
     148     dih       5       1       3       8   113.97123608     0.00318579
     149     dih       5       1       3       2   113.51971531     0.00333406
     150     dih       5       1       3       7    81.79279287    -0.03717271
     151     dih       5       1       3      11   145.36861586     0.04382288
     152     dih       2       1       3       9   239.77143035    -0.00109541
     153     dih       2       1       3       6   120.94379569     0.00142114
     154     dih       2       1       3       8     0.45152078    -0.00014827
     155     dih       2       1       3       7   -31.72692244    -0.04050677
     156     dih       2       1       3      11    31.84890055     0.04048882
     157     dih       4       1       3       9   123.80841936    -0.00549115
     158     dih       4       1       3       6     4.98078471    -0.00297459
     159     dih       4       1       3       8   244.48850980    -0.00454400
     160     dih       4       1       3       2   244.03698902    -0.00439573
     161     dih       4       1       3       7   212.31006658    -0.04490250
     162     dih       4       1       3      11   -84.11411043     0.03609309
     163     dih       1       2       6       3   124.88764731     0.01326762
     164     dih       7       2       6       3    -1.18296723    -0.00151904
     165     dih      11       2       6       3   245.46600317     0.00457893
     166     dih       8       2       6       3   -32.05539858     0.00447965
     167     dih       9       2       6       3    31.94330304    -0.00079219
     168     dih       1       2       8       3     0.49575478     0.00033174
     169     dih       7       2       8       3   241.68513846     0.00137212
     170     dih      11       2       8       3   117.92511051    -0.00086347
     171     dih       6       2       8       3    31.81706571     0.00328808
     172     dih       9       2       8       3   -31.80538315    -0.00307671
     173     dih       1       2       9       3   235.80616395    -0.01327110
     174     dih       7       2       9       3   116.14173452    -0.00443579
     175     dih      11       2       9       3     1.79645291     0.00150037
     176     dih       6       2       9       3   -31.95136330     0.00060082
     177     dih       8       2       9       3    32.05169900    -0.00449853
     178     dih       9       3       7       2   119.46891254    -0.00392311
     179     dih       6       3       7       2    -1.29702339    -0.00162560
     180     dih       8       3       7       2   238.67074179    -0.00269781
     181     dih       1       3       7       2    31.14063561    -0.05702689
     182     dih      11       3       7       2   -33.81065462    -0.00028998
     183     dih       9       3      11       2     2.01064384     0.00161154
     184     dih       6       3      11       2   241.10811001     0.00407014
     185     dih       8       3      11       2   121.91193176     0.00297372
     186     dih       1       3      11       2   -31.19334464     0.05706390
     187     dih       7       3      11       2    33.73730423     0.00060602
Hessian eigenvector     1(    -0.018) has overlap with TSRC:    0.55908E+00
Hessian eigenvector     1 has the largest overlap with TSRC:  0.55908
           Primitive Internal Coordinates (atoms in internal order)
-------------------------------------------------------------------------------
    index    type      i       j       k       l   value(A,deg)     Max Ovl Vect
-------------------------------------------------------------------------------
       1     bnd       1       5       0       0     1.46208392     0.00000000
       2     bnd       1       2       0       0     1.35916813    -0.79065845
       3     bnd       3       9       0       0     1.08313958    -0.00007234
       4     bnd       1       4       0       0     1.08901177    -0.00000000
       5     bnd       3       6       0       0     1.08329955     0.00000417
       6     bnd       2       7       0       0     1.08720894    -0.00037790
       7     bnd       3       8       0       0     1.08428070    -0.00994571
       8     bnd       5      10       0       0     1.22279656    -0.00000000
       9     bnd       2      11       0       0     1.07000001    -0.00016700
      10     bnd       5      12       0       0     1.41000000    -0.00000000
      11     bnd       2       3       0       0     2.50234487     0.06402686
      12     bnd       1       3       0       0     3.21998143    -0.20297205
      13     bnd       2       6       0       0     2.85450501     0.01865724
      14     bnd       2       8       0       0     2.84273224     0.06389078
      15     bnd       2       9       0       0     2.85464085     0.01906527
      16     bnd       3       7       0       0     2.68258186     0.00949775
      17     bnd       3      11       0       0     2.62570260     0.00956394
      18     ang       5       1       2       0   122.13193049    -0.00000649
      19     ang       5       1       4       0   116.48149708    -0.00017097
      20     ang       5       1       3       0   112.64562536     0.00135322
      21     ang       2       1       4       0   121.37727346     0.00014400
      22     ang       2       1       3       0    47.13980479    -0.00511122
      23     ang       4       1       3       0   108.55407601     0.00163554
      24     ang       1       2       7       0   120.51279539    -0.01025122
      25     ang       1       2      11       0   121.36128216    -0.00603659
      26     ang       1       2       3       0   109.39804563     0.14665489
      27     ang       1       2       6       0    97.36189422     0.13707937
      28     ang       1       2       8       0   131.65236189     0.13953936
      29     ang       1       2       9       0    97.60393042     0.13759574
      30     ang       7       2      11       0   116.67222783    -0.00835413
      31     ang       7       2       3       0    87.39281970    -0.02554698
      32     ang       7       2       6       0   109.48758492    -0.02570143
      33     ang       7       2       8       0    76.25016237    -0.02136998
      34     ang       7       2       9       0    77.08981866    -0.02186388
      35     ang      11       2       3       0    84.51010404    -0.02549608
      36     ang      11       2       6       0    74.58595081    -0.02225716
      37     ang      11       2       8       0    73.32443789    -0.02086186
      38     ang      11       2       9       0   106.59375947    -0.02568038
      39     ang       6       2       8       0    38.16371016    -0.00535540
      40     ang       6       2       9       0    38.01699289    -0.00200225
      41     ang       8       2       9       0    38.16203879    -0.00540484
      42     ang       9       3       6       0   118.25885447     0.00203101
      43     ang       9       3       8       0   118.48323850     0.00761578
      44     ang       9       3       2       0    97.56929804    -0.02261568
      45     ang       9       3       1       0    85.73843521     0.04896528
      46     ang       9       3       7       0    85.80331135    -0.01826610
      47     ang       9       3      11       0   121.48827574    -0.02453995
      48     ang       6       3       8       0   118.47247906     0.00766583
      49     ang       6       3       2       0    97.55621160    -0.02285998
      50     ang       6       3       1       0    85.46171991     0.04954649
      51     ang       6       3       7       0   121.43376470    -0.02426464
      52     ang       6       3      11       0    85.98434689    -0.01871226
      53     ang       8       3       2       0    96.81291220     0.00528530
      54     ang       8       3       1       0   120.27444570    -0.13625721
      55     ang       8       3       7       0    84.29830723     0.00501018
      56     ang       8       3      11       0    84.05640983     0.00581841
      57     ang       1       3       7       0    41.01789145    -0.12098387
      58     ang       1       3      11       0    41.02628758    -0.12202781
      59     ang       7       3      11       0    40.45513557    -0.00339904
      60     ang       1       5      10       0   124.78014579    -0.00000005
      61     ang       1       5      12       0   114.73739867    -0.00000006
      62     ang      10       5      12       0   120.48134630    -0.00000005
      63     ang       3       6       2       0    60.34468769     0.02303227
      64     ang       2       7       3       0    68.72451165     0.02697307
      65     ang       3       8       2       0    60.93212808     0.00182628
      66     ang       3       9       2       0    60.33684884     0.02284475
      67     ang       2      11       3       0    71.55860906     0.02747563
      68     dih       2       1       5      10   179.74813341    -0.00212422
      69     dih       2       1       5      12    -0.63506953    -0.00215153
      70     dih       4       1       5      10     0.84367616    -0.00015502
      71     dih       4       1       5      12   180.46047323    -0.00018232
      72     dih       3       1       5      10   127.21624574     0.00327789
      73     dih       3       1       5      12   -53.16695720     0.00325059
      74     dih       5       1       2       7     6.57009342     0.06002220
      75     dih       5       1       2      11   172.35502872    -0.05960624
      76     dih       5       1       2       3   267.85385074     0.00101551
      77     dih       5       1       2       6   248.75690649    -0.00391403
      78     dih       5       1       2       8   267.65479661     0.00012766
      79     dih       5       1       2       9   -72.88759900     0.00660937
      80     dih       4       1       2       7   185.42152053     0.05795419
      81     dih       4       1       2      11    -8.79354417    -0.06167425
      82     dih       4       1       2       3    86.70527785    -0.00105251
      83     dih       4       1       2       6    67.60833360    -0.00598205
      84     dih       4       1       2       8    86.50622373    -0.00194036
      85     dih       4       1       2       9   105.96382811     0.00454135
      86     dih       3       1       2       7    98.71624268     0.05900670
      87     dih       3       1       2      11   264.50117798    -0.06062174
      88     dih       3       1       2       6   -19.09694425    -0.00492954
      89     dih       3       1       2       8    -0.19905413    -0.00088785
      90     dih       3       1       2       9    19.25855026     0.00559386
      91     dih       6       3       9       2   102.82836572    -0.03924482
      92     dih       8       3       9       2   257.98018397     0.00511299
      93     dih       1       3       9       2    20.30570963    -0.12268520
      94     dih       7       3       9       2   -20.82918846    -0.00057460
      95     dih      11       3       9       2    -0.82262789     0.00200848
      96     dih       9       3       6       2   257.16400671     0.03910155
      97     dih       8       3       6       2   102.00948582    -0.00523906
      98     dih       1       3       6       2   -20.14929510     0.12222171
      99     dih       7       3       6       2     0.52968161    -0.00120689
     100     dih      11       3       6       2    20.99355189    -0.00023651
     101     dih       1       2       7       3   248.95626953    -0.15470927
     102     dih      11       2       7       3    82.52763162    -0.04083595
     103     dih       6       2       7       3     0.44547776    -0.00094868
     104     dih       8       2       7       3    19.49721097    -0.00472568
     105     dih       9       2       7       3   -19.75505464    -0.00281494
     106     dih       9       3       8       2   102.45974316    -0.02138569
     107     dih       6       3       8       2   257.55808319     0.02165757
     108     dih       1       3       8       2    -0.18104675     0.00081158
     109     dih       7       3       8       2    20.38290605    -0.00182747
     110     dih      11       3       8       2   -20.29058747     0.00199630
     111     dih       1       2      11       3   109.40048384     0.15624836
     112     dih       7       2      11       3   -84.29422306     0.04072413
     113     dih       6       2      11       3    20.10982482     0.00301804
     114     dih       8       2      11       3   -19.64380594     0.00409156
     115     dih       9       2      11       3    -0.67870888     0.00152350
     116     dih       1       2       3       9    60.36685908    -0.00315341
     117     dih       1       2       3       6   -59.59533627     0.00519487
     118     dih       1       2       3       8   180.39271465     0.00102005
     119     dih       1       2       3       7   121.52101014     0.00300276
     120     dih       1       2       3      11   238.63730914     0.00048180
     121     dih       7       2       3       9   -61.15415106    -0.00615618
     122     dih       7       2       3       6   178.88365359     0.00219211
     123     dih       7       2       3       8    58.87170451    -0.00198272
     124     dih       7       2       3       1   238.47898986    -0.00300276
     125     dih       7       2       3      11   117.11629900    -0.00252097
     126     dih      11       2       3       9   181.72954994    -0.00363521
     127     dih      11       2       3       6    61.76735459     0.00471307
     128     dih      11       2       3       8   -58.24459449     0.00053825
     129     dih      11       2       3       1   121.36269086    -0.00048180
     130     dih      11       2       3       7   242.88370100     0.00252097
     131     dih       6       2       3       9   119.96219535    -0.00834828
     132     dih       6       2       3       8   239.98805092    -0.00417482
     133     dih       6       2       3       1    59.59533627    -0.00519487
     134     dih       6       2       3       7   181.11634641    -0.00219211
     135     dih       6       2       3      11   -61.76735459    -0.00471307
     136     dih       8       2       3       9   239.97414443    -0.00417346
     137     dih       8       2       3       6   120.01194908     0.00417482
     138     dih       8       2       3       1   179.60728535    -0.00102005
     139     dih       8       2       3       7   -58.87170451     0.00198272
     140     dih       8       2       3      11    58.24459449    -0.00053825
     141     dih       9       2       3       6   240.03780465     0.00834828
     142     dih       9       2       3       8   120.02585557     0.00417346
     143     dih       9       2       3       1   -60.36685908     0.00315341
     144     dih       9       2       3       7    61.15415106     0.00615618
     145     dih       9       2       3      11   178.27045006     0.00363521
     146     dih       5       1       3       9    -6.70885435    -0.00557678
     147     dih       5       1       3       6   234.46351100     0.00519238
     148     dih       5       1       3       8   113.97123608    -0.00085299
     149     dih       5       1       3       2   113.51971531    -0.00139397
     150     dih       5       1       3       7    81.79279287    -0.08425707
     151     dih       5       1       3      11   145.36861586     0.08314011
     152     dih       2       1       3       9   239.77143035    -0.00418281
     153     dih       2       1       3       6   120.94379569     0.00658635
     154     dih       2       1       3       8     0.45152078     0.00054098
     155     dih       2       1       3       7   -31.72692244    -0.08286309
     156     dih       2       1       3      11    31.84890055     0.08453408
     157     dih       4       1       3       9   123.80841936    -0.00336021
     158     dih       4       1       3       6     4.98078471     0.00740895
     159     dih       4       1       3       8   244.48850980     0.00136358
     160     dih       4       1       3       2   244.03698902     0.00082260
     161     dih       4       1       3       7   212.31006658    -0.08204049
     162     dih       4       1       3      11   -84.11411043     0.08535668
     163     dih       1       2       6       3   124.88764731     0.05303007
     164     dih       7       2       6       3    -1.18296723     0.00253479
     165     dih      11       2       6       3   245.46600317     0.01361976
     166     dih       8       2       6       3   -32.05539858     0.00812566
     167     dih       9       2       6       3    31.94330304     0.00424564
     168     dih       1       2       8       3     0.49575478     0.00191483
     169     dih       7       2       8       3   241.68513846     0.00532400
     170     dih      11       2       8       3   117.92511051    -0.00653837
     171     dih       6       2       8       3    31.81706571     0.00246846
     172     dih       9       2       8       3   -31.80538315    -0.00241943
     173     dih       1       2       9       3   235.80616395    -0.05160811
     174     dih       7       2       9       3   116.14173452    -0.01474964
     175     dih      11       2       9       3     1.79645291    -0.00409279
     176     dih       6       2       9       3   -31.95136330    -0.00433429
     177     dih       8       2       9       3    32.05169900    -0.00808519
     178     dih       9       3       7       2   119.46891254    -0.01369130
     179     dih       6       3       7       2    -1.29702339     0.00281414
     180     dih       8       3       7       2   238.67074179    -0.00382623
     181     dih       1       3       7       2    31.14063561    -0.11411673
     182     dih      11       3       7       2   -33.81065462    -0.00054681
     183     dih       9       3      11       2     2.01064384    -0.00464866
     184     dih       6       3      11       2   241.10811001     0.01246112
     185     dih       8       3      11       2   121.91193176     0.00252169
     186     dih       1       3      11       2   -31.19334464     0.11235970
     187     dih       7       3      11       2    33.73730423     0.00137328
 
----------------------------------------------------------------------
Geometry Convergence after Step   1       (Hartree/Angstrom,Angstrom)
----------------------------------------------------------------------
current energy                               -2.36190715 Hartree
energy change                      -2.36190715     0.00012000    F
constrained gradient max            0.06989768     0.00100000    F
constrained gradient rms            0.01839217     0.00066667    F
gradient max                        0.06989768
gradient rms                        0.01839217
cart. step max                      0.04972114     0.01000000    F
cart. step rms                      0.01596858     0.00666667    F
 
 
--------
Geometry
--------
Formula: C4H6FO
Atoms
  Index Symbol   x (angstrom)   y (angstrom)   z (angstrom)
      1      C     0.82852619    -0.22044105     0.86699146
      2      C     0.82187087    -0.23680401    -0.48266416
      3      C    -1.53039562    -0.46183896    -1.30787580
      4      H     0.87151986    -1.14191649     1.44032964
      5      C     0.73996658     0.98838628     1.67785096
      6      H    -1.75847745    -1.40732274    -0.83060158
      7      H     0.87825657     0.68785621    -1.04710405
      8      H    -1.29559743    -0.46032308    -2.36638663
      9      H    -1.92258063     0.44537416    -0.86430565
     10      O     0.73457615     1.06625798     2.86583345
     11      H     0.98812647    -1.15492865    -1.02804753
     12      F     0.62935306     2.15241024     0.92414522
 
Total System Charge             0.00000
 
 *** GOStep2 ***

 Energy gradients wrt nuclear displacements
 ==========================================

     Atom      Cartesian (a.u./angstrom)
                 X         Y         Z
 ----------------------------------------
     1 C    -0.000327 -0.000813 -0.004101
     2 C    -0.001288 -0.005903  0.012157
     3 C     0.001766 -0.000373  0.000155
     4 H    -0.000165 -0.000729 -0.002177
     5 C     0.004416 -0.002744  0.015290
     6 H    -0.000207  0.000128  0.000065
     7 H     0.001264  0.001164  0.000248
     8 H    -0.000243  0.000007 -0.000037
     9 H    -0.000577 -0.000092  0.000051
    10 O    -0.001773 -0.000999 -0.023820
    11 H    -0.001178  0.005448  0.000917
    12 F    -0.001688  0.004906  0.001252
 ----------------------------------------
 Mulliken charges used for AMS results%charges...
Hessian eigenvector     1(    -0.029) has overlap with TSRC:    0.41764E+00
Hessian eigenvector     1 has the largest overlap with TSRC:  0.41764
           Primitive Internal Coordinates (atoms in internal order)
-------------------------------------------------------------------------------
    index    type      i       j       k       l   value(A,deg)     Max Ovl Vect
-------------------------------------------------------------------------------
       1     bnd       1       5       0       0     1.45828648    -0.00387945
       2     bnd       1       2       0       0     1.34977121    -0.59144306
       3     bnd       3       9       0       0     1.08332784    -0.00038270
       4     bnd       1       4       0       0     1.08613172     0.00069496
       5     bnd       3       6       0       0     1.08339817    -0.00003811
       6     bnd       2       7       0       0     1.08478950     0.00348113
       7     bnd       3       8       0       0     1.08424059    -0.00865892
       8     bnd       5      10       0       0     1.19054418    -0.02398670
       9     bnd       2      11       0       0     1.08075751    -0.02066380
      10     bnd       5      12       0       0     1.39113603     0.01814344
      11     bnd       2       3       0       0     2.50295277     0.04535839
      12     bnd       1       3       0       0     3.21758180    -0.16312737
      13     bnd       2       6       0       0     2.85471049     0.01272475
      14     bnd       2       8       0       0     2.84289344     0.05118905
      15     bnd       2       9       0       0     2.85359971     0.02295269
      16     bnd       3       7       0       0     2.68167975     0.01423327
      17     bnd       3      11       0       0     2.62709548     0.00479166
      18     ang       5       1       2       0   124.45353850    -0.10036548
      19     ang       5       1       4       0   114.34055082     0.07456038
      20     ang       5       1       3       0   113.17314077     0.03599643
      21     ang       2       1       4       0   121.18055525     0.02728526
      22     ang       2       1       3       0    47.12519123    -0.00059292
      23     ang       4       1       3       0   108.79451527    -0.01652953
      24     ang       1       2       7       0   120.64304328    -0.02798222
      25     ang       1       2      11       0   120.93915079     0.03410536
      26     ang       1       2       3       0   109.59630425     0.10493917
      27     ang       1       2       6       0    97.54465972     0.10060328
      28     ang       1       2       8       0   131.84951059     0.09896728
      29     ang       1       2       9       0    97.79175332     0.09639291
      30     ang       7       2      11       0   116.97185809    -0.02606862
      31     ang       7       2       3       0    87.35989052    -0.01488871
      32     ang       7       2       6       0   109.45520417    -0.01485699
      33     ang       7       2       8       0    76.17032873    -0.00734161
      34     ang       7       2       9       0    77.09305316    -0.01612884
      35     ang      11       2       3       0    84.36553629    -0.01570803
      36     ang      11       2       6       0    74.28892636    -0.00206830
      37     ang      11       2       8       0    73.34634496    -0.02347563
      38     ang      11       2       9       0   106.47184440    -0.01729817
      39     ang       6       2       8       0    38.16429067    -0.00463659
      40     ang       6       2       9       0    38.03846217    -0.00236462
      41     ang       8       2       9       0    38.17180925    -0.00540427
      42     ang       9       3       6       0   118.30968885    -0.00007402
      43     ang       9       3       8       0   118.48712084     0.00415649
      44     ang       9       3       2       0    97.46601965    -0.01061824
      45     ang       9       3       1       0    85.74584450     0.03885372
      46     ang       9       3       7       0    85.77459380    -0.01230934
      47     ang       9       3      11       0   121.62639046    -0.01668392
      48     ang       6       3       8       0   118.48252000     0.00435688
      49     ang       6       3       2       0    97.53147275    -0.01646009
      50     ang       6       3       1       0    85.52900414     0.03974458
      51     ang       6       3       7       0   121.35899813    -0.01712245
      52     ang       6       3      11       0    85.67926675     0.00048104
      53     ang       8       3       2       0    96.78982365     0.00749139
      54     ang       8       3       1       0   120.06768125    -0.09682924
      55     ang       8       3       7       0    84.25089467     0.01142798
      56     ang       8       3      11       0    84.07375332    -0.00181778
      57     ang       1       3       7       0    40.85332173    -0.09334529
      58     ang       1       3      11       0    40.97111358    -0.08474129
      59     ang       7       3      11       0    40.68384674    -0.01047786
      60     ang       1       5      10       0   127.54135141    -0.04012742
      61     ang       1       5      12       0   113.40204542     0.04050924
      62     ang      10       5      12       0   119.04757173    -0.00074851
      63     ang       3       6       2       0    60.36765301     0.01653891
      64     ang       2       7       3       0    68.80603942     0.01568187
      65     ang       3       8       2       0    60.95628669    -0.00149650
      66     ang       3       9       2       0    60.42206008     0.01184855
      67     ang       2      11       3       0    71.46724356     0.02134192
      68     dih       2       1       5      10   179.61579810     0.00471076
      69     dih       2       1       5      12     0.73083394    -0.05859826
      70     dih       4       1       5      10     1.43473456    -0.08288534
      71     dih       4       1       5      12   182.54977040    -0.14619437
      72     dih       3       1       5      10   126.76398127    -0.00712221
      73     dih       3       1       5      12   -52.12098288    -0.07043123
      74     dih       5       1       2       7     8.04929185    -0.10682351
      75     dih       5       1       2      11   173.91362838    -0.20641663
      76     dih       5       1       2       3   269.18610607    -0.14404319
      77     dih       5       1       2       6   250.08171697    -0.14939406
      78     dih       5       1       2       8   268.98054289    -0.14067727
      79     dih       5       1       2       9   -71.52398724    -0.14275598
      80     dih       4       1       2       7   186.11216232    -0.01457509
      81     dih       4       1       2      11    -8.02350116    -0.11416821
      82     dih       4       1       2       3    87.24897653    -0.05179477
      83     dih       4       1       2       6    68.14458743    -0.05714564
      84     dih       4       1       2       8    87.04341335    -0.04842885
      85     dih       4       1       2       9   106.53888322    -0.05050755
      86     dih       3       1       2       7    98.86318579     0.03721967
      87     dih       3       1       2      11   264.72752231    -0.06237344
      88     dih       3       1       2       6   -19.10438910    -0.00535087
      89     dih       3       1       2       8    -0.20556318     0.00336592
      90     dih       3       1       2       9    19.28990669     0.00128721
      91     dih       6       3       9       2   102.75256725    -0.02536031
      92     dih       8       3       9       2   258.06628801    -0.00358273
      93     dih       1       3       9       2    20.15617744    -0.09230727
      94     dih       7       3       9       2   -20.81426761     0.00198774
      95     dih      11       3       9       2    -0.61689086    -0.01425088
      96     dih       9       3       6       2   257.28555925     0.02195460
      97     dih       8       3       6       2   101.97069099     0.00022956
      98     dih       1       3       6       2   -19.98961719     0.08839846
      99     dih       7       3       6       2     0.59828065    -0.00683721
     100     dih      11       3       6       2    21.10756762     0.00273079
     101     dih       1       2       7       3   248.72013859    -0.10911041
     102     dih      11       2       7       3    82.31379862    -0.02238348
     103     dih       6       2       7       3     0.50447626    -0.00569734
     104     dih       8       2       7       3    19.47151210    -0.00208194
     105     dih       9       2       7       3   -19.79542373     0.00131820
     106     dih       9       3       8       2   102.32712977    -0.00698398
     107     dih       6       3       8       2   257.59786018     0.01373157
     108     dih       1       3       8       2    -0.18463687     0.00423158
     109     dih       7       3       8       2    20.31068720     0.00150144
     110     dih      11       3       8       2   -20.59433714     0.01248073
     111     dih       1       2      11       3   109.49897068     0.11768844
     112     dih       7       2      11       3   -84.13742695     0.02105894
     113     dih       6       2      11       3    20.04856118     0.00740380
     114     dih       8       2      11       3   -19.74361733     0.01030465
     115     dih       9       2      11       3    -0.50361990    -0.01193191
     116     dih       1       2       3       9    60.40168082    -0.01081705
     117     dih       1       2       3       6   -59.58378658    -0.00451791
     118     dih       1       2       3       8   180.40433133    -0.00714367
     119     dih       1       2       3       7   121.68058259    -0.01869046
     120     dih       1       2       3      11   239.11856912    -0.04147804
     121     dih       7       2       3       9   -61.27890177     0.00787341
     122     dih       7       2       3       6   178.73563083     0.01417255
     123     dih       7       2       3       8    58.72374874     0.01154678
     124     dih       7       2       3       1   238.31941741     0.01869046
     125     dih       7       2       3      11   117.43798653    -0.02278759
     126     dih      11       2       3       9   181.28311170     0.03066099
     127     dih      11       2       3       6    61.29764429     0.03696013
     128     dih      11       2       3       8   -58.71423779     0.03433437
     129     dih      11       2       3       1   120.88143088     0.04147804
     130     dih      11       2       3       7   242.56201347     0.02278759
     131     dih       6       2       3       9   119.98546740    -0.00629914
     132     dih       6       2       3       8   239.98811791    -0.00262576
     133     dih       6       2       3       1    59.58378658     0.00451791
     134     dih       6       2       3       7   181.26436917    -0.01417255
     135     dih       6       2       3      11   -61.29764429    -0.03696013
     136     dih       8       2       3       9   239.99734949    -0.00367338
     137     dih       8       2       3       6   120.01188209     0.00262576
     138     dih       8       2       3       1   179.59566867     0.00714367
     139     dih       8       2       3       7   -58.72374874    -0.01154678
     140     dih       8       2       3      11    58.71423779    -0.03433437
     141     dih       9       2       3       6   240.01453260     0.00629914
     142     dih       9       2       3       8   120.00265051     0.00367338
     143     dih       9       2       3       1   -60.40168082     0.01081705
     144     dih       9       2       3       7    61.27890177    -0.00787341
     145     dih       9       2       3      11   178.71688830    -0.03066099
     146     dih       5       1       3       9    -3.92054916    -0.18004910
     147     dih       5       1       3       6   237.21001769    -0.16974372
     148     dih       5       1       3       8   116.71546697    -0.17560761
     149     dih       5       1       3       2   116.25154189    -0.16694168
     150     dih       5       1       3       7    84.53593787    -0.23926931
     151     dih       5       1       3      11   148.65472739    -0.13003115
     152     dih       2       1       3       9   239.82790894    -0.01310741
     153     dih       2       1       3       6   120.95847580    -0.00280203
     154     dih       2       1       3       8     0.46392508    -0.00866593
     155     dih       2       1       3       7   -31.71560403    -0.07232763
     156     dih       2       1       3      11    32.40318550     0.03691053
     157     dih       4       1       3       9   124.34119727    -0.06479798
     158     dih       4       1       3       6     5.47176412    -0.05449260
     159     dih       4       1       3       8   244.97721341    -0.06035650
     160     dih       4       1       3       2   244.51328833    -0.05169057
     161     dih       4       1       3       7   212.79768430    -0.12401820
     162     dih       4       1       3      11   -83.08352617    -0.01478004
     163     dih       1       2       6       3   124.96364194     0.03054931
     164     dih       7       2       6       3    -1.33952355     0.01514113
     165     dih      11       2       6       3   245.06217951     0.04141920
     166     dih       8       2       6       3   -32.05332280     0.00642922
     167     dih       9       2       6       3    31.94555620     0.00226027
     168     dih       1       2       8       3     0.51136275    -0.00857614
     169     dih       7       2       8       3   241.55274507     0.01501866
     170     dih      11       2       8       3   117.41515515     0.02967514
     171     dih       6       2       8       3    31.81934140     0.00259896
     172     dih       9       2       8       3   -31.83359215    -0.00106860
     173     dih       1       2       9       3   235.76937310    -0.04450095
     174     dih       7       2       9       3   116.00627407     0.00268460
     175     dih      11       2       9       3     1.33156928     0.03163877
     176     dih       6       2       9       3   -31.92860475    -0.00403020
     177     dih       8       2       9       3    32.05067177    -0.00619607
     178     dih       9       3       7       2   119.31930526     0.00357918
     179     dih       6       3       7       2    -1.46792656     0.01665457
     180     dih       8       3       7       2   238.53621237     0.00811099
     181     dih       1       3       7       2    30.93998338    -0.07349408
     182     dih      11       3       7       2   -33.87481810    -0.00754214
     183     dih       9       3      11       2     1.49417867     0.03533873
     184     dih       6       3      11       2   240.69632111     0.03985656
     185     dih       8       3      11       2   121.44362605     0.03525901
     186     dih       1       3      11       2   -31.15042840     0.10190058
     187     dih       7       3      11       2    33.37719753     0.01480330
 
----------------------------------------------------------------------
Geometry Convergence after Step   2       (Hartree/Angstrom,Angstrom)
----------------------------------------------------------------------
current energy                               -2.36414227 Hartree
energy change                      -0.00223512     0.00012000    F
constrained gradient max            0.02382835     0.00100000    F
constrained gradient rms            0.00554441     0.00066667    F
gradient max                        0.02382835
gradient rms                        0.00554441
cart. step max                      0.08274873     0.01000000    F
cart. step rms                      0.02184349     0.00666667    F
 
 
--------
Geometry
--------
Formula: C4H6FO
Atoms
  Index Symbol   x (angstrom)   y (angstrom)   z (angstrom)
      1      C     0.80411973    -0.22221914     0.86910894
      2      C     0.80374003    -0.22343942    -0.46240985
      3      C    -1.53518466    -0.47941638    -1.31922091
      4      H     0.84214681    -1.14574418     1.43970248
      5      C     0.74964767     0.99243113     1.67462484
      6      H    -1.75051433    -1.43520888    -0.85656295
      7      H     0.84838895     0.71106733    -1.01184168
      8      H    -1.28880369    -0.45944771    -2.37465217
      9      H    -1.94885634     0.41423714    -0.86786070
     10      O     0.75422359     1.07277303     2.86390539
     11      H     0.99413507    -1.12703760    -1.02296741
     12      F     0.71210179     2.15871458     0.91633933
 
Total System Charge             0.00000
 
 *** GOStep3 ***

 Energy gradients wrt nuclear displacements
 ==========================================

     Atom      Cartesian (a.u./angstrom)
                 X         Y         Z
 ----------------------------------------
     1 C    -0.000107 -0.002558 -0.035250
     2 C    -0.004553 -0.005580  0.046876
     3 C     0.003506  0.000130  0.000443
     4 H    -0.000223 -0.001486 -0.003090
     5 C    -0.000909 -0.002674  0.006901
     6 H    -0.000276  0.000036  0.000123
     7 H     0.000245  0.001950  0.001086
     8 H    -0.000361 -0.000031  0.000217
     9 H    -0.000571 -0.000246  0.000002
    10 O     0.000704 -0.002015 -0.018638
    11 H     0.001294  0.006662  0.001903
    12 F     0.001249  0.005812 -0.000574
 ----------------------------------------
 Mulliken charges used for AMS results%charges...
Hessian eigenvector     1(    -0.053) has overlap with TSRC:    0.30736E+00
Hessian eigenvector     1 has the largest overlap with TSRC:  0.30736
           Primitive Internal Coordinates (atoms in internal order)
-------------------------------------------------------------------------------
    index    type      i       j       k       l   value(A,deg)     Max Ovl Vect
-------------------------------------------------------------------------------
       1     bnd       1       5       0       0     1.45849181     0.00232619
       2     bnd       1       2       0       0     1.33151941     0.43569193
       3     bnd       3       9       0       0     1.08326678     0.00037621
       4     bnd       1       4       0       0     1.08624193    -0.00124680
       5     bnd       3       6       0       0     1.08349367     0.00146620
       6     bnd       2       7       0       0     1.08497545     0.00297735
       7     bnd       3       8       0       0     1.08399146     0.00794558
       8     bnd       5      10       0       0     1.19199999    -0.03965618
       9     bnd       2      11       0       0     1.08026141    -0.00311793
      10     bnd       5      12       0       0     1.39162628     0.00047936
      11     bnd       2       3       0       0     2.50404035    -0.04126221
      12     bnd       1       3       0       0     3.21360902     0.15319602
      13     bnd       2       6       0       0     2.85446268    -0.02250740
      14     bnd       2       8       0       0     2.84448762    -0.03608587
      15     bnd       2       9       0       0     2.85443664    -0.01180985
      16     bnd       3       7       0       0     2.68200608    -0.00203318
      17     bnd       3      11       0       0     2.62766773    -0.01446726
      18     ang       5       1       2       0   123.57623842    -0.04065612
      19     ang       5       1       4       0   114.78732166     0.01112053
      20     ang       5       1       3       0   114.55423015     0.13463313
      21     ang       2       1       4       0   121.63606765     0.03159017
      22     ang       2       1       3       0    47.05956260    -0.01530824
      23     ang       4       1       3       0   108.36924098    -0.03978866
      24     ang       1       2       7       0   120.37111753    -0.01617377
      25     ang       1       2      11       0   121.30711778     0.03133775
      26     ang       1       2       3       0   110.03117039    -0.05593827
      27     ang       1       2       6       0    97.97420567    -0.05085497
      28     ang       1       2       8       0   132.26402604    -0.05152498
      29     ang       1       2       9       0    98.17010726    -0.05618344
      30     ang       7       2      11       0   116.77126574    -0.00893392
      31     ang       7       2       3       0    87.31822576     0.01808075
      32     ang       7       2       6       0   109.42316339     0.01968958
      33     ang       7       2       8       0    76.19036769     0.01846314
      34     ang       7       2       9       0    77.01693225     0.01392795
      35     ang      11       2       3       0    84.35085497     0.01263393
      36     ang      11       2       6       0    74.39327078     0.01903247
      37     ang      11       2       8       0    73.22659460     0.00209749
      38     ang      11       2       9       0   106.44639525     0.01254598
      39     ang       6       2       8       0    38.15615523     0.00495244
      40     ang       6       2       9       0    38.03077516     0.00119986
      41     ang       8       2       9       0    38.15367638     0.00417963
      42     ang       9       3       6       0   118.28906733    -0.00632061
      43     ang       9       3       8       0   118.50837432    -0.00134397
      44     ang       9       3       2       0    97.45747257     0.01475107
      45     ang       9       3       1       0    85.88399954    -0.02566302
      46     ang       9       3       7       0    85.72444288     0.01005735
      47     ang       9       3      11       0   121.59603573     0.01559008
      48     ang       6       3       8       0   118.50115260    -0.00188283
      49     ang       6       3       2       0    97.45224971     0.00843058
      50     ang       6       3       1       0    85.66981636    -0.02553276
      51     ang       6       3       7       0   121.28173652     0.00970665
      52     ang       6       3      11       0    85.74139228     0.01541487
      53     ang       8       3       2       0    96.83266029    -0.00098145
      54     ang       8       3       1       0   119.74153806     0.07029103
      55     ang       8       3       7       0    84.34213676     0.00209320
      56     ang       8       3      11       0    84.00337321    -0.00950055
      57     ang       1       3       7       0    40.49116478     0.05753519
      58     ang       1       3      11       0    40.73462192     0.06825422
      59     ang       7       3      11       0    40.62504180    -0.00091388
      60     ang       1       5      10       0   127.37453410    -0.00102343
      61     ang       1       5      12       0   113.45474094     0.02004637
      62     ang      10       5      12       0   119.16099146    -0.01947414
      63     ang       3       6       2       0    60.43857298    -0.00996151
      64     ang       2       7       3       0    68.84730115    -0.01926454
      65     ang       3       8       2       0    60.93406404    -0.00340222
      66     ang       3       9       2       0    60.43828945    -0.01491867
      67     ang       2      11       3       0    71.49997220    -0.01378244
      68     dih       2       1       5      10   180.47180155     0.01982642
      69     dih       2       1       5      12    -0.68406415    -0.05817780
      70     dih       4       1       5      10     0.69093006    -0.10157498
      71     dih       4       1       5      12   179.53506436    -0.17957920
      72     dih       3       1       5      10   127.03351261    -0.02377460
      73     dih       3       1       5      12   -54.12235309    -0.10177882
      74     dih       5       1       2       7     5.32364979    -0.24912736
      75     dih       5       1       2      11   170.66524410    -0.22048298
      76     dih       5       1       2       3   266.35280284    -0.22801934
      77     dih       5       1       2       6   247.20556447    -0.22894624
      78     dih       5       1       2       8   266.19096015    -0.22334404
      79     dih       5       1       2       9   -74.36871812    -0.23259179
      80     dih       4       1       2       7   185.08998636    -0.12212313
      81     dih       4       1       2      11    -9.56841933    -0.09347875
      82     dih       4       1       2       3    86.11913941    -0.10101511
      83     dih       4       1       2       6    66.97190105    -0.10194200
      84     dih       4       1       2       8    85.95729672    -0.09633981
      85     dih       4       1       2       9   105.39761845    -0.10558755
      86     dih       3       1       2       7    98.97084695    -0.02110802
      87     dih       3       1       2      11   264.31244127     0.00753636
      88     dih       3       1       2       6   -19.14723836    -0.00092689
      89     dih       3       1       2       8    -0.16184268     0.00467530
      90     dih       3       1       2       9    19.27847905    -0.00457244
      91     dih       6       3       9       2   102.65009887     0.01675989
      92     dih       8       3       9       2   258.01608429    -0.00711895
      93     dih       1       3       9       2    19.81330282     0.05922792
      94     dih       7       3       9       2   -20.79116103     0.00113466
      95     dih      11       3       9       2    -0.76734861    -0.01044110
      96     dih       9       3       6       2   257.34685659    -0.02044425
      97     dih       8       3       6       2   101.97907286     0.00329648
      98     dih       1       3       6       2   -19.68936833    -0.06298474
      99     dih       7       3       6       2     0.52196413    -0.00473208
     100     dih      11       3       6       2    21.16499050     0.00527629
     101     dih       1       2       7       3   248.28436806     0.05746639
     102     dih      11       2       7       3    82.29882650     0.02447621
     103     dih       6       2       7       3     0.44055048    -0.00396321
     104     dih       8       2       7       3    19.48379235     0.00443687
     105     dih       9       2       7       3   -19.77136950     0.00276451
     106     dih       9       3       8       2   102.34723580     0.01626184
     107     dih       6       3       8       2   257.66058388    -0.00877861
     108     dih       1       3       8       2    -0.14191492     0.00349302
     109     dih       7       3       8       2    20.34100776     0.00327016
     110     dih      11       3       8       2   -20.50308128     0.00397618
     111     dih       1       2      11       3   110.04162521    -0.05454283
     112     dih       7       2      11       3   -84.11304579    -0.02821795
     113     dih       6       2      11       3    20.11605935     0.00394225
     114     dih       8       2      11       3   -19.66303973     0.00151607
     115     dih       9       2      11       3    -0.62680433    -0.00851963
     116     dih       1       2       3       9    60.28437120    -0.01054712
     117     dih       1       2       3       6   -59.65985039    -0.00933408
     118     dih       1       2       3       8   180.31654207    -0.00898332
     119     dih       1       2       3       7   121.44410761    -0.01947600
     120     dih       1       2       3      11   238.68661385    -0.03213788
     121     dih       7       2       3       9   -61.15973640     0.00892888
     122     dih       7       2       3       6   178.89604200     0.01014193
     123     dih       7       2       3       8    58.87243446     0.01049269
     124     dih       7       2       3       1   238.55589239     0.01947600
     125     dih       7       2       3      11   117.24250624    -0.01266188
     126     dih      11       2       3       9   181.59775736     0.02159076
     127     dih      11       2       3       6    61.65353576     0.02280381
     128     dih      11       2       3       8   -58.37007177     0.02315456
     129     dih      11       2       3       1   121.31338615     0.03213788
     130     dih      11       2       3       7   242.75749376     0.01266188
     131     dih       6       2       3       9   119.94422160    -0.00121305
     132     dih       6       2       3       8   239.97639246     0.00035076
     133     dih       6       2       3       1    59.65985039     0.00933408
     134     dih       6       2       3       7   181.10395800    -0.01014193
     135     dih       6       2       3      11   -61.65353576    -0.02280381
     136     dih       8       2       3       9   239.96782913    -0.00156380
     137     dih       8       2       3       6   120.02360754    -0.00035076
     138     dih       8       2       3       1   179.68345793     0.00898332
     139     dih       8       2       3       7   -58.87243446    -0.01049269
     140     dih       8       2       3      11    58.37007177    -0.02315456
     141     dih       9       2       3       6   240.05577840     0.00121305
     142     dih       9       2       3       8   120.03217087     0.00156380
     143     dih       9       2       3       1   -60.28437120     0.01054712
     144     dih       9       2       3       7    61.15973640    -0.00892888
     145     dih       9       2       3      11   178.40224264    -0.02159076
     146     dih       5       1       3       9    -6.38451409    -0.17847321
     147     dih       5       1       3       6   234.80233254    -0.17874548
     148     dih       5       1       3       8   114.27957244    -0.17809866
     149     dih       5       1       3       2   113.91759555    -0.16809440
     150     dih       5       1       3       7    81.84877703    -0.13623743
     151     dih       5       1       3      11   146.30345063    -0.22738574
     152     dih       2       1       3       9   239.69789037    -0.01037881
     153     dih       2       1       3       6   120.88473700    -0.01065108
     154     dih       2       1       3       8     0.36197689    -0.01000427
     155     dih       2       1       3       7   -32.06881852     0.03185697
     156     dih       2       1       3      11    32.38585508    -0.05929134
     157     dih       4       1       3       9   123.21295886    -0.08931266
     158     dih       4       1       3       6     4.39980549    -0.08958494
     159     dih       4       1       3       8   243.87704539    -0.08893812
     160     dih       4       1       3       2   243.51506850    -0.07893386
     161     dih       4       1       3       7   211.44624998    -0.04707689
     162     dih       4       1       3      11   -84.09907642    -0.13822520
     163     dih       1       2       6       3   125.04013057    -0.02667989
     164     dih       7       2       6       3    -1.16930438     0.01058646
     165     dih      11       2       6       3   245.41498400     0.01798877
     166     dih       8       2       6       3   -32.02401942    -0.00288900
     167     dih       9       2       6       3    31.95472069    -0.00026352
     168     dih       1       2       8       3     0.40185504    -0.01156659
     169     dih       7       2       8       3   241.70678990     0.00490392
     170     dih      11       2       8       3   117.75214183     0.02593332
     171     dih       6       2       8       3    31.83425087    -0.00144478
     172     dih       9       2       8       3   -31.82558865     0.00360282
     173     dih       1       2       9       3   235.52005028     0.00912037
     174     dih       7       2       9       3   116.10832273     0.01484769
     175     dih      11       2       9       3     1.65784401     0.02258182
     176     dih       6       2       9       3   -31.96230688    -0.00183044
     177     dih       8       2       9       3    32.02289711     0.00281134
     178     dih       9       3       7       2   119.42699342     0.01347856
     179     dih       6       3       7       2    -1.28086287     0.01167488
     180     dih       8       3       7       2   238.66042515     0.01025929
     181     dih       1       3       7       2    30.76125942     0.06643369
     182     dih      11       3       7       2   -33.96177103    -0.00679329
     183     dih       9       3      11       2     1.86004239     0.02536889
     184     dih       6       3      11       2   241.05382541     0.01819997
     185     dih       8       3      11       2   121.78208207     0.02123724
     186     dih       1       3      11       2   -30.64001631    -0.04003265
     187     dih       7       3      11       2    33.48973692     0.00683167
 
----------------------------------------------------------------------
Geometry Convergence after Step   3       (Hartree/Angstrom,Angstrom)
----------------------------------------------------------------------
current energy                               -2.36338018 Hartree
energy change                       0.00076209     0.00012000    F
constrained gradient max            0.04687081     0.00100000    F
constrained gradient rms            0.01056886     0.00066667    F
gradient max                        0.04687081
gradient rms                        0.01056886
cart. step max                      0.05267086     0.01000000    F
cart. step rms                      0.01635258     0.00666667    F
 
 
--------
Geometry
--------
Formula: C4H6FO
Atoms
  Index Symbol   x (angstrom)   y (angstrom)   z (angstrom)
      1      C     0.82004854    -0.21422130     0.86286083
      2      C     0.81523192    -0.23007544    -0.47893348
      3      C    -1.53301169    -0.46836653    -1.31442004
      4      H     0.86676153    -1.13560773     1.43640898
      5      C     0.72836465     0.98864803     1.68362465
      6      H    -1.75744117    -1.41477850    -0.83717188
      7      H     0.86748158     0.69359859    -1.04481775
      8      H    -1.29323598    -0.46630173    -2.37174472
      9      H    -1.93065198     0.43734886    -0.87271841
     10      O     0.75375740     1.06553428     2.87942000
     11      H     0.98840890    -1.15120182    -1.02115055
     12      F     0.65943093     2.15213320     0.92680769
 
Total System Charge             0.00000
 
 *** GOStep4 ***

 Energy gradients wrt nuclear displacements
 ==========================================

     Atom      Cartesian (a.u./angstrom)
                 X         Y         Z
 ----------------------------------------
     1 C     0.004003  0.001304 -0.023693
     2 C    -0.002467 -0.003709  0.026651
     3 C     0.002349 -0.000175  0.000360
     4 H     0.000123 -0.000058 -0.001675
     5 C    -0.010590 -0.005110 -0.003076
     6 H    -0.000193  0.000040  0.000065
     7 H     0.001401  0.001104  0.000885
     8 H    -0.000237 -0.000012  0.000021
     9 H    -0.000517 -0.000096  0.000039
    10 O     0.004027  0.000584  0.002245
    11 H    -0.000903  0.002815  0.000392
    12 F     0.003005  0.003312 -0.002215
 ----------------------------------------
 Mulliken charges used for AMS results%charges...
Hessian eigenvector     1(    -0.035) has overlap with TSRC:    0.28137E+00
Hessian eigenvector     1 has the largest overlap with TSRC:  0.28137
           Primitive Internal Coordinates (atoms in internal order)
-------------------------------------------------------------------------------
    index    type      i       j       k       l   value(A,deg)     Max Ovl Vect
-------------------------------------------------------------------------------
       1     bnd       1       5       0       0     1.45909348     0.00163230
       2     bnd       1       2       0       0     1.34189662     0.39794770
       3     bnd       3       9       0       0     1.08329982     0.00029452
       4     bnd       1       4       0       0     1.08632064    -0.00372498
       5     bnd       3       6       0       0     1.08343436     0.00134316
       6     bnd       2       7       0       0     1.08449469     0.00184302
       7     bnd       3       8       0       0     1.08417348     0.00694715
       8     bnd       5      10       0       0     1.19853361    -0.01480309
       9     bnd       2      11       0       0     1.08280350    -0.00255214
      10     bnd       5      12       0       0     1.38968397     0.00493800
      11     bnd       2       3       0       0     2.50381080    -0.03728610
      12     bnd       1       3       0       0     3.21590333     0.13183644
      13     bnd       2       6       0       0     2.85490857    -0.01997340
      14     bnd       2       8       0       0     2.84326821    -0.03278464
      15     bnd       2       9       0       0     2.85313865    -0.00858459
      16     bnd       3       7       0       0     2.68052537     0.00536355
      17     bnd       3      11       0       0     2.62865609    -0.02162991
      18     ang       5       1       2       0   124.88896001    -0.02370615
      19     ang       5       1       4       0   113.88718024    -0.00082640
      20     ang       5       1       3       0   113.57921381     0.13810997
      21     ang       2       1       4       0   121.20263539     0.02643669
      22     ang       2       1       3       0    47.11383451    -0.01075382
      23     ang       4       1       3       0   108.77734087    -0.04635122
      24     ang       1       2       7       0   120.76512341    -0.01598741
      25     ang       1       2      11       0   120.67657582     0.02874935
      26     ang       1       2       3       0   109.76428434    -0.05558393
      27     ang       1       2       6       0    97.67821123    -0.04997419
      28     ang       1       2       8       0   132.01378332    -0.05162221
      29     ang       1       2       9       0    97.97253121    -0.05603963
      30     ang       7       2      11       0   117.09978230    -0.00560588
      31     ang       7       2       3       0    87.25608097     0.02026026
      32     ang       7       2       6       0   109.35221666     0.02166725
      33     ang       7       2       8       0    76.06163837     0.02014308
      34     ang       7       2       9       0    77.00378067     0.01681516
      35     ang      11       2       3       0    84.37262481     0.00691186
      36     ang      11       2       6       0    74.23322105     0.01162099
      37     ang      11       2       8       0    73.41511327    -0.00126629
      38     ang      11       2       9       0   106.48753106     0.00664665
      39     ang       6       2       8       0    38.16207706     0.00426083
      40     ang       6       2       9       0    38.04649110     0.00091076
      41     ang       8       2       9       0    38.17433025     0.00366227
      42     ang       9       3       6       0   118.33917980    -0.00577110
      43     ang       9       3       8       0   118.50447524    -0.00093393
      44     ang       9       3       2       0    97.39050541     0.01451580
      45     ang       9       3       1       0    85.78229052    -0.02377621
      46     ang       9       3       7       0    85.71510810     0.01101340
      47     ang       9       3      11       0   121.58632513     0.01595785
      48     ang       6       3       8       0   118.49377161    -0.00250453
      49     ang       6       3       2       0    97.49407566     0.00781837
      50     ang       6       3       1       0    85.54763077    -0.02309461
      51     ang       6       3       7       0   121.32305573     0.00822493
      52     ang       6       3      11       0    85.56305956     0.01239807
      53     ang       8       3       2       0    96.76644656    -0.00092205
      54     ang       8       3       1       0   119.88740279     0.06544394
      55     ang       8       3       7       0    84.21512273     0.00197729
      56     ang       8       3      11       0    84.09729147    -0.00785478
      57     ang       1       3       7       0    40.74625603     0.05286505
      58     ang       1       3      11       0    40.81260524     0.06353306
      59     ang       7       3      11       0    40.74564283    -0.00036234
      60     ang       1       5      10       0   127.79114852     0.01341579
      61     ang       1       5      12       0   112.76676576     0.00113346
      62     ang      10       5      12       0   119.38624786    -0.01625625
      63     ang       3       6       2       0    60.40388455    -0.00916713
      64     ang       2       7       3       0    68.90798686    -0.02059746
      65     ang       3       8       2       0    60.98306816    -0.00300785
[...]
     5     C      -0.192567  -0.057037  -0.005180
     6     H       0.044142   0.018474   0.019550
     7     H      -0.461609  -0.039877  -0.020412
     8     H       0.049538   0.016683   0.022467
     9     H      -0.120267   0.003352  -0.039317
    10     O       0.049592   0.123880  -0.016793
    11     H       0.598875   0.079932  -0.096344
    12     F       0.055175   0.003055   0.090511
 
 Mode:    17      Frequency (cm-1):      589.2672     Intensity (km/mol):        6.8285
 Index  Atom      ---- Displacements (x/y/z) ----
     1     C      -0.057838   0.267162  -0.020236
     2     C       0.020953  -0.012708  -0.036031
     3     C      -0.008660   0.012704  -0.000730
     4     H       0.320467   0.279660  -0.064056
     5     C      -0.132325   0.068404   0.128988
     6     H       0.018413   0.008043   0.004987
     7     H      -0.190857  -0.263507  -0.450834
     8     H      -0.001274   0.012054   0.001093
     9     H      -0.055476   0.002370  -0.013261
    10     O       0.061788  -0.145046   0.154901
    11     H       0.341961  -0.197911   0.380294
    12     F       0.037347  -0.081386  -0.168363
 
 Mode:    18      Frequency (cm-1):      756.7270     Intensity (km/mol):        9.7631
 Index  Atom      ---- Displacements (x/y/z) ----
     1     C      -0.014612   0.024717  -0.012041
     2     C      -0.008263   0.009169   0.015403
     3     C      -0.086187  -0.007299  -0.030530
     4     H       0.014578   0.024574  -0.019620
     5     C      -0.005652  -0.000406  -0.018196
     6     H       0.509072  -0.001573   0.224187
     7     H      -0.139884  -0.035391  -0.055155
     8     H       0.533366   0.027146   0.123636
     9     H       0.520986   0.105240   0.201461
    10     O      -0.000265   0.007211  -0.023007
    11     H      -0.161598  -0.042238   0.046482
    12     F       0.004963  -0.026733   0.020386
 
 Mode:    19      Frequency (cm-1):      776.8887     Intensity (km/mol):       49.0291
 Index  Atom      ---- Displacements (x/y/z) ----
     1     C       0.008039  -0.245912  -0.071514
     2     C       0.009066  -0.084807  -0.139235
     3     C      -0.057406  -0.002173  -0.016354
     4     H       0.002311  -0.342940  -0.209052
     5     C       0.052936  -0.084265   0.225291
     6     H       0.250612  -0.004182   0.109800
     7     H      -0.069932   0.100893   0.168866
     8     H       0.291761   0.008672   0.071699
     9     H       0.214165   0.048712   0.082311
    10     O       0.000217  -0.021900   0.257538
    11     H       0.045867   0.113053  -0.459756
    12     F      -0.047142   0.285948  -0.203152
 
 Mode:    20      Frequency (cm-1):      793.8043     Intensity (km/mol):       25.2251
 Index  Atom      ---- Displacements (x/y/z) ----
     1     C      -0.244702   0.003728  -0.004162
     2     C       0.032120  -0.026423  -0.005135
     3     C      -0.004405   0.009645   0.002617
     4     H       0.407380   0.092143   0.028041
     5     C       0.365207   0.059826  -0.016536
     6     H       0.015962   0.011031   0.011528
     7     H      -0.424871  -0.020473   0.008984
     8     H       0.016990   0.007057   0.008670
     9     H      -0.026406   0.005179  -0.002785
    10     O      -0.095581  -0.011119  -0.000915
    11     H       0.648826   0.096329   0.017409
    12     F      -0.046989  -0.030330   0.011623
 
 Mode:    21      Frequency (cm-1):      934.3789     Intensity (km/mol):        4.2660
 Index  Atom      ---- Displacements (x/y/z) ----
     1     C      -0.064042  -0.019902  -0.015979
     2     C       0.117984   0.035859   0.029791
     3     C       0.055644   0.003001   0.017193
     4     H       0.219592  -0.049221  -0.118318
     5     C       0.002210  -0.025225   0.007180
     6     H      -0.088450   0.005737  -0.040493
     7     H      -0.519806  -0.086724  -0.161614
     8     H      -0.085002  -0.003000  -0.018481
     9     H      -0.073341  -0.021225  -0.032698
    10     O      -0.000202   0.005254  -0.001400
    11     H      -0.746902  -0.153259   0.030816
    12     F      -0.001805   0.015857  -0.004861
 
 Mode:    22      Frequency (cm-1):      953.2158     Intensity (km/mol):       40.2434
 Index  Atom      ---- Displacements (x/y/z) ----
     1     C       0.051145   0.027596  -0.013530
     2     C       0.036446  -0.061665  -0.022311
     3     C       0.014594   0.005813   0.003346
     4     H      -0.643251   0.052014   0.151482
     5     C      -0.007823   0.077756   0.001694
     6     H       0.002526   0.008218  -0.000079
     7     H      -0.632135   0.043483   0.152747
     8     H      -0.010422   0.004757  -0.002795
     9     H      -0.017256   0.000662  -0.010962
    10     O       0.003606  -0.011293   0.018349
    11     H       0.082091   0.123654  -0.309630
    12     F       0.001998  -0.034107   0.005028
 
 Mode:    23      Frequency (cm-1):      994.7647     Intensity (km/mol):       61.9300
 Index  Atom      ---- Displacements (x/y/z) ----
     1     C       0.047259  -0.008649   0.011555
     2     C      -0.022527   0.075201   0.050534
     3     C       0.002887   0.004498  -0.000998
     4     H      -0.435470  -0.225247  -0.272193
     5     C       0.029961  -0.125205   0.001405
     6     H       0.001156   0.004200  -0.002026
     7     H      -0.309120  -0.179949  -0.356899
     8     H      -0.023259  -0.003649  -0.005824
     9     H      -0.019481  -0.001139  -0.000538
    10     O      -0.004994   0.018145  -0.029641
    11     H       0.347931  -0.124331   0.511244
    12     F      -0.008917   0.047050  -0.007823
 
 Mode:    24      Frequency (cm-1):     1186.2956     Intensity (km/mol):      167.8243
 Index  Atom      ---- Displacements (x/y/z) ----
     1     C       0.027881  -0.247687   0.026243
     2     C      -0.021542   0.085379  -0.011373
     3     C       0.000783  -0.000601   0.000094
     4     H       0.040490  -0.523996  -0.429972
     5     C      -0.041578   0.382398  -0.029701
     6     H       0.006672   0.004955   0.007389
     7     H       0.027731  -0.190122  -0.475022
     8     H       0.011987   0.003134   0.002836
     9     H       0.019700   0.001510   0.013300
    10     O       0.005811  -0.052036   0.031187
    11     H       0.086817  -0.033772   0.200148
    12     F       0.006612  -0.055662   0.019195
 
 Mode:    25      Frequency (cm-1):     1268.8737     Intensity (km/mol):        9.4414
 Index  Atom      ---- Displacements (x/y/z) ----
     1     C       0.005057  -0.084506   0.072311
     2     C       0.003222   0.084858  -0.098990
     3     C      -0.007402   0.000609  -0.002756
     4     H      -0.033040   0.320045   0.784762
     5     C       0.003975  -0.025265  -0.006774
     6     H       0.004190  -0.005668  -0.005790
     7     H      -0.026357  -0.134118  -0.480348
     8     H       0.011993  -0.013840   0.005156
     9     H       0.009858   0.002122   0.010086
    10     O      -0.000040   0.000782   0.009822
    11     H      -0.008046   0.011801  -0.007909
    12     F      -0.000835   0.005125  -0.001629
 
 Mode:    26      Frequency (cm-1):     1378.9436     Intensity (km/mol):        3.6000
 Index  Atom      ---- Displacements (x/y/z) ----
     1     C       0.000835  -0.006255  -0.008781
     2     C      -0.000256   0.003842  -0.003778
     3     C       0.004383  -0.090062   0.008759
     4     H      -0.004026   0.016853   0.032054
     5     C       0.000027   0.001048  -0.000535
     6     H      -0.088161   0.283836   0.401913
     7     H      -0.004699   0.022869   0.029400
     8     H       0.013541   0.773042  -0.179176
     9     H       0.024523   0.017118  -0.323078
    10     O       0.000033   0.000258   0.002580
    11     H       0.001881  -0.029663   0.054711
    12     F      -0.000158   0.000024  -0.000274
 
 Mode:    27      Frequency (cm-1):     1383.3339     Intensity (km/mol):        4.3771
 Index  Atom      ---- Displacements (x/y/z) ----
     1     C       0.001701  -0.009290  -0.020658
     2     C      -0.000194   0.003581  -0.003721
     3     C       0.030438  -0.004953  -0.084109
     4     H      -0.003442   0.029315   0.045166
     5     C      -0.001211   0.004858  -0.000825
     6     H      -0.227508   0.444845   0.374648
     7     H      -0.010379   0.049338   0.077092
     8     H       0.113321  -0.122870  -0.016119
     9     H      -0.243118  -0.261335   0.649518
    10     O       0.000219   0.000199   0.004816
    11     H      -0.001569  -0.054996   0.097348
    12     F       0.000174  -0.000974  -0.000133
 
 Mode:    28      Frequency (cm-1):     1398.6205     Intensity (km/mol):       30.3149
 Index  Atom      ---- Displacements (x/y/z) ----
     1     C      -0.008608   0.065530   0.143293
     2     C       0.001344  -0.027975   0.010827
     3     C       0.000707  -0.009926  -0.017528
     4     H       0.022839  -0.188049  -0.287693
     5     C       0.005142  -0.034333   0.003741
     6     H      -0.047026   0.110381   0.109901
     7     H       0.081577  -0.289682  -0.458084
     8     H       0.028670   0.050705  -0.020650
     9     H      -0.042293  -0.046812   0.090135
    10     O      -0.000767  -0.001224  -0.030457
    11     H       0.000437   0.339467  -0.628411
    12     F      -0.000806   0.006538   0.000385
 
 Mode:    29      Frequency (cm-1):     1561.4939     Intensity (km/mol):       18.3995
 Index  Atom      ---- Displacements (x/y/z) ----
     1     C      -0.003796   0.052178   0.304632
     2     C       0.031666  -0.011140  -0.293795
     3     C      -0.017276  -0.000243  -0.004716
     4     H       0.028051  -0.295405  -0.242033
     5     C       0.000786  -0.000518   0.006516
     6     H       0.017471  -0.013020  -0.005421
     7     H      -0.153769   0.433084   0.403367
     8     H       0.013332  -0.008212   0.005225
     9     H       0.017480   0.008198  -0.000694
    10     O      -0.000008  -0.010010  -0.045673
    11     H      -0.061632  -0.428050   0.325160
    12     F       0.000196  -0.000918   0.004710
 
 Mode:    30      Frequency (cm-1):     1789.6370     Intensity (km/mol):      462.4136
 Index  Atom      ---- Displacements (x/y/z) ----
     1     C      -0.002663   0.052247   0.088778
     2     C       0.009341   0.002286   0.003202
     3     C      -0.006498  -0.000110  -0.002840
     4     H       0.000077  -0.087611  -0.212400
     5     C      -0.007385  -0.111990  -0.799257
     6     H       0.001818  -0.004994  -0.003776
     7     H      -0.024482   0.016004   0.019109
     8     H      -0.003571  -0.003539  -0.001811
     9     H       0.003173   0.003238  -0.000972
    10     O       0.010484   0.030800   0.530564
    11     H      -0.025872  -0.001799   0.011494
    12     F      -0.001683   0.014606   0.011838
 
 Mode:    31      Frequency (cm-1):     3062.7918     Intensity (km/mol):        0.0338
 Index  Atom      ---- Displacements (x/y/z) ----
     1     C       0.000066  -0.000039  -0.000067
     2     C      -0.000250   0.000152   0.001727
     3     C      -0.012382  -0.001798  -0.007228
     4     H      -0.000151   0.001399  -0.000708
     5     C       0.000024  -0.000187  -0.000080
     6     H       0.144553   0.421835  -0.348045
     7     H       0.000317   0.014716  -0.008589
     8     H      -0.147558   0.126807   0.568131
     9     H       0.148545  -0.527548  -0.134719
    10     O      -0.000005   0.000032   0.000058
    11     H       0.003821  -0.016325  -0.009499
    12     F      -0.000005   0.000047  -0.000012
 
 Mode:    32      Frequency (cm-1):     3123.0392     Intensity (km/mol):        2.6512
 Index  Atom      ---- Displacements (x/y/z) ----
     1     C      -0.000912   0.009699  -0.000008
     2     C       0.012052  -0.009851  -0.063922
     3     C      -0.001107  -0.000240   0.000413
     4     H       0.011874  -0.115841   0.067052
     5     C      -0.000103   0.000671   0.000119
     6     H       0.005084   0.015060  -0.012363
     7     H       0.005125  -0.537625   0.309589
     8     H      -0.002619   0.002454   0.010613
     9     H       0.003368  -0.014700  -0.003515
    10     O       0.000024  -0.000141  -0.000313
    11     H      -0.141745   0.651617   0.383588
    12     F       0.000015  -0.000108   0.000259
 
 Mode:    33      Frequency (cm-1):     3150.0893     Intensity (km/mol):        1.0432
 Index  Atom      ---- Displacements (x/y/z) ----
     1     C       0.007649  -0.071896   0.045305
     2     C       0.000663   0.010227  -0.013579
     3     C      -0.000357  -0.000302  -0.000208
     4     H      -0.088162   0.842013  -0.495143
     5     C      -0.000058   0.000844   0.002674
     6     H       0.000972   0.001618  -0.001025
     7     H       0.000843  -0.148308   0.086539
     8     H      -0.000339   0.000668   0.002090
     9     H      -0.000118   0.000561   0.000052
    10     O      -0.000010  -0.000096  -0.000853
    11     H      -0.006086   0.026599   0.016020
    12     F      -0.000052   0.000329  -0.000113
 
 Mode:    34      Frequency (cm-1):     3222.4453     Intensity (km/mol):        0.3646
 Index  Atom      ---- Displacements (x/y/z) ----
     1     C       0.000999  -0.009392   0.004499
     2     C       0.009834  -0.097931   0.006495
     3     C      -0.002205   0.007075   0.004579
     4     H      -0.010736   0.098657  -0.059367
     5     C       0.000044  -0.000057   0.000915
     6     H      -0.003250  -0.008659   0.009138
     7     H      -0.004100   0.650094  -0.395750
     8     H       0.011487  -0.010071  -0.049045
     9     H       0.018148  -0.061834  -0.014870
    10     O      -0.000010   0.000054  -0.000180
    11     H      -0.114579   0.522883   0.322082
    12     F      -0.000004   0.000126  -0.000300
 
 Mode:    35      Frequency (cm-1):     3238.2593     Intensity (km/mol):        2.4533
 Index  Atom      ---- Displacements (x/y/z) ----
     1     C       0.000004  -0.000423   0.000330
     2     C       0.000577  -0.005931   0.000060
     3     C       0.034083  -0.012486  -0.092440
     4     H      -0.000357   0.004220  -0.002507
     5     C       0.000015   0.000029   0.000103
     6     H      -0.124913  -0.367243   0.279726
     7     H      -0.000745   0.034811  -0.022030
     8     H      -0.181242   0.169354   0.749491
     9     H      -0.097216   0.346860   0.069367
    10     O      -0.000002  -0.000000  -0.000021
    11     H      -0.008302   0.035958   0.021441
    12     F      -0.000006   0.000002  -0.000019
 
 Mode:    36      Frequency (cm-1):     3246.0752     Intensity (km/mol):        1.4747
 Index  Atom      ---- Displacements (x/y/z) ----
     1     C       0.000063  -0.000361   0.000167
     2     C       0.000548  -0.005853   0.000604
     3     C       0.003089  -0.098348   0.014758
     4     H      -0.000409   0.004673  -0.002989
     5     C       0.000000  -0.000052   0.000075
     6     H       0.183865   0.491660  -0.412128
     7     H       0.000915   0.042299  -0.025077
     8     H      -0.013526  -0.004343   0.060092
     9     H      -0.206887   0.680452   0.176872
    10     O       0.000002   0.000010  -0.000018
    11     H      -0.007785   0.030317   0.018343
    12     F      -0.000015   0.000022  -0.000033

PES point character: Geometry corresponds to a transition state.
                     (Hint: Very small negative frequencies do not count towards being a
                     transition state, as they usually indicate noise on a very flat PES. See
                     the PESPointCharacter%NegativeFrequenciesTolerance keyword documentation.)




 ============================
 Statistical Thermal Analysis  ***  ideal gas assumed  ***
 ============================
  
 Pressure:                  1.000000 atm.
 Temperature:             298.150000 K



 Moments of Inertia [amu*bohr^2] and principal axis
 ==================================================

         308.0907        998.0354       1074.0801
 ------------------------------------------------
           0.3801         -0.3760         -0.8451
           0.4306          0.8805         -0.1981
           0.8186         -0.2886          0.4966


 The rotational contribution to the molecular entropy includes
 a term, dependent on the symmetry number sigma. The results 
 reported below were computed using sigma = 1, determined from
 the point group symmetry of the input geometry (NOSYM). 
 If this is not the correct symmetry, try symmetrizing the molecule before
 running the calculation (note: linear molecules should be aligned along one
 of the Cartesian axes).
 Contributions from frequencies below 20 1/cm are not included in vibrational sums.
 Their contributions, if any, are reported separately.


     Temp                                                        Transl      Rotat     Vibrat     Total
     ----                                                        ------      -----     ------     -----

     298.15   Entropy (cal/mol-K):                               39.372     27.293     20.609     87.274
              Nuclear Internal Energy (kcal/mol):                 0.889      0.889     56.602     58.380
              Constant Volume Heat Capacity (cal/mol-K):          2.981      2.981     19.849     25.810
          (c) Constant Volume Heat Capacity (cal/mol-K):          2.981      2.981     17.450     23.411

       Summary of energy terms
                                                   hartree              eV         kcal/mol           kJ/mol
                                      --------------------     -----------       ----------      -----------
      Energy from Engine:               -2.364376511674799        -64.3380         -1483.67         -6207.67
      Nuclear Internal Energy:           0.093034002817396          2.5316            58.38           244.26
  (c) Nuclear Internal Energy:           0.091831593017452          2.4989            57.63           241.10
      Internal Energy U:                -2.271342508857404        -61.8064         -1425.29         -5963.41
      pV/n = RT:                         0.000944186013486          0.0257             0.59             2.48
      Enthalpy H:                       -2.270398322843918        -61.7807         -1424.70         -5960.93
      -T*S:                             -0.041466507082027         -1.1284           -26.02          -108.87
  (c) -T*S:                             -0.040363996309274         -1.0984           -25.33          -105.98
      Gibbs free energy:                -2.311864829925945        -62.9090         -1450.72         -6069.80
 
 
 
  (c) The properties marked with this symbol have been corrected using 'low vibrational frequency free rotor
      interpolation corrections'. For those terms all positive frequencies are used (also ones below 20 1/cm),
      but the contribution to the partition function of small vibrational frequencies is modified as described
      in the following paper:
      S. Grimme, 'Supramolecular Binding Thermodynamics by Dispersion-Corrected Density Functional Theory'
      (Chem. Eur. J. 2012, 18, 9955-9964)
      Configuration: Dampener Frequency          :   100.000 1/cm
                     Dampener Alpha              :     4.000
                     Averaging Moment of Inertia : 1.000E-44 kg m2

--------------
Atomic charges
--------------
  Index   Atom    Charge
      1      C    0.1304
      2      C    0.4524
      3      C    0.5164
      4      H   -0.1638
      5      C    0.8124
      6      H   -0.1524
      7      H   -0.1660
      8      H   -0.1598
      9      H   -0.1417
     10      O   -0.4963
     11      H   -0.2001
     12      F   -0.4314


Dipole moment vector    (Debye):    -0.49314782   -2.38260444   -3.43687981
              magnitude (Debye):     4.21095494


Final PES point is a transition state. Transition state search successful!


AMS application finished. Exiting.
NORMAL TERMINATION
     Total cpu time:   31876.59
  Total system time:      47.60
 Total elapsed time:   32009.91
