
 *******************************************************************************
 *                                                                             *
 *  --------------------------------                                           *
 *   Amsterdam Modeling Suite (AMS)              2021.102                      *
 *  --------------------------------                                           *
 *                                               r95042 2021-06-07             *
 *                                                                             *
 *                                                                             *
 *                              =================                              *
 *                              |               |                              *
 *                              |     A M S     |                              *
 *                              |               |                              *
 *                              =================                              *
 *                                                                             *
 *                                                                             *
 *   Online information and documentation:  https://www.scm.com/support/       *
 *   E-mail:  support@scm.com   info@scm.com                                   *
 *                                                                             *
 *   Scientific publications using AMS results must be properly referenced     *
 *   See the User Manuals (or the web site) for recommended citations          *
 *   The terms and conditions of the End User License Agreement apply to       *
 *   the use of AMS, https://www.scm.com/license-terms/                        *
 *                                                                             *
 **********************  x86_64_linux_intel / intelmpi  ************************
 
 Licensed to: VU/FEW (+ SARA) / ALGEMEEN / Amsterdam / THE NETHERLANDS
 SCM User ID: u7668
  
 AMS 2021.102  RunTime: Jan19-2022 23:29:51  ShM Nodes: 1  Procs: 1

 AMS jobname: Rsub
 AMS jobid  : 1187206674

 Start   directory: /scistor/tc/yhk800/MasterProject/scripts/plams_workdir/Rsub/
 Results directory: /scistor/tc/yhk800/MasterProject/scripts/plams_workdir/Rsub/
 Scratch directory: /scratch/3441/amstmp_Rsub_kid0.1187206674/

 RNG seed: -327311826 -685885604 1773280073 348187861 -731363042 1858416463 1839132148 -1054939717



                      ************************************************************************
                      *  ADF 2021.102  RunTime: Jan19-2022 23:29:51  ShM Nodes: 1  Procs: 1  *
                      ************************************************************************
  
       ***************************
       *  GEOMETRY OPTIMIZATION  *
       ***************************

Optimization Method                    Quasi Newton
Optimization Coordinates               Delocalized Coordinates
Optimize lattice                       F
 
 ------------------------------------------------------
 Convergence criteria (Hartree,Angstrom)
 ------------------------------------------------------
 Maximum gradient               0.001000000000
 Maximum rms gradient           0.000666666667
 Maximum step allowed           0.010000000000
 Maximum rms step allowed       0.006666666667
 Maximum energy change allowe   0.000080000000
 Maximum stress energy allowe   0.000500000000
 
Initial model Hessian                  Automatic Hessian
 
------------------------------------
Quasi-Newton Optimizer Parameters
------------------------------------
Hessian Update Method                  BFGS
Maximum number of steps                  250
First GDIIS cycle                          0
Maximum GDIIS vectors                      0
Trust radius (bohr)                        0.200000
Trust radius varies                        T
Constraints converged at all steps         T
Use projector                              T
 
 Rigid motions settings for: old optimizer
 Atomic rotations (x,y,z):     T T T
 Atomic translations (x,y,z):  T T T
 Tolerance:                   1.000000000000000E-006
 
--------
Geometry
--------
Formula: C3H4O
Atoms
  Index Symbol   x (angstrom)   y (angstrom)   z (angstrom)
      1      C     0.31224700     0.44519900     0.00000000
      2      C     0.98391400    -0.71430800     0.00000000
      3      H     0.45842300    -1.66804700     0.00000000
      4      C    -1.16278400     0.48525400     0.00000000
      5      H     0.82313200     1.40706500     0.00000000
      6      O    -1.82405800     1.50729100     0.00000000
      7      H     2.05326402    -0.75159776     0.00000000
      8      H    -1.63550277    -0.47466108     0.00000000
 
Total System Charge             0.00000
 
 
----------------
ADF Engine Input
----------------
 
 NumericalQuality VeryGood
 SCF
 Converge 1.0e-6
 Iterations 99
 End
 SYMMETRY NOSYM
 XC
 GGA OLYP
 End
 basis
 core None
 type TZ2P
 End
 

 Title: *** (NO TITLE) ***

Number of symmetry operators: 2
Schoenflies symbol:           C(S)
 Using automatic Hessian for delocalized coordinates.
 *** GOStep1 ***

 Energy gradients wrt nuclear displacements
 ==========================================

     Atom      Cartesian (a.u./angstrom)
                 X         Y         Z
 ----------------------------------------
     1 C    -0.000304 -0.002018 -0.000000
     2 C     0.020919 -0.000494 -0.000000
     3 H     0.000349  0.000033 -0.000000
     4 C    -0.026082 -0.041680 -0.000000
     5 H    -0.000403  0.000098 -0.000000
     6 O     0.002557 -0.005782  0.000000
     7 H    -0.021907  0.000854 -0.000000
     8 H     0.024872  0.048988 -0.000000
 ----------------------------------------
 Mulliken charges used for AMS results%charges...
 
----------------------------------------------------------------------
Geometry Convergence after Step   1       (Hartree/Angstrom,Angstrom)
----------------------------------------------------------------------
current energy                               -1.68586010 Hartree
energy change                      -1.68586010     0.00008000    F
constrained gradient max            0.04898820     0.00100000    F
constrained gradient rms            0.01632863     0.00066667    F
gradient max                        0.04898820
gradient rms                        0.01632863
cart. step max                      0.02097665     0.01000000    F
cart. step rms                      0.00661062     0.00666667    T
 
 
--------
Geometry
--------
Formula: C3H4O
Atoms
  Index Symbol   x (angstrom)   y (angstrom)   z (angstrom)
      1      C     0.31330824     0.44785707     0.00000000
      2      C     0.98367535    -0.71277739     0.00000000
      3      H     0.45590560    -1.66538373     0.00000000
      4      C    -1.16239132     0.48908691     0.00000000
      5      H     0.82617818     1.40873101     0.00000000
      6      O    -1.81995701     1.51695342     0.00000000
      7      H     2.06499636    -0.75263439     0.00000000
      8      H    -1.65308014    -0.49563773     0.00000000
 
Total System Charge             0.00000
 
 *** GOStep2 ***

 Energy gradients wrt nuclear displacements
 ==========================================

     Atom      Cartesian (a.u./angstrom)
                 X         Y         Z
 ----------------------------------------
     1 C     0.000504  0.000598  0.000000
     2 C     0.006130 -0.000322  0.000000
     3 H    -0.000137 -0.000007  0.000000
     4 C    -0.006325 -0.020959 -0.000000
     5 H     0.000293  0.000030  0.000000
     6 O    -0.002502  0.004863 -0.000000
     7 H    -0.005850  0.000205  0.000000
     8 H     0.007887  0.015592 -0.000000
 ----------------------------------------
 Mulliken charges used for AMS results%charges...

 dE(predicted):    -0.97605E-03, dE(actual):    -0.12502E-02, Trust radius:    0.200000, all in a.u.
 
----------------------------------------------------------------------
Geometry Convergence after Step   2       (Hartree/Angstrom,Angstrom)
----------------------------------------------------------------------
current energy                               -1.68711032 Hartree
energy change                      -0.00125022     0.00008000    F
constrained gradient max            0.02096124     0.00100000    F
constrained gradient rms            0.00607985     0.00066667    F
gradient max                        0.02096124
gradient rms                        0.00607985
cart. step max                      0.00854789     0.01000000    T
cart. step rms                      0.00262175     0.00666667    T
 
 
--------
Geometry
--------
Formula: C3H4O
Atoms
  Index Symbol   x (angstrom)   y (angstrom)   z (angstrom)
      1      C     0.31365583     0.44921406     0.00000000
      2      C     0.98269707    -0.71205549     0.00000000
      3      H     0.45439281    -1.66430601     0.00000000
      4      C    -1.16128136     0.49305574     0.00000000
      5      H     0.82704300     1.40966545     0.00000000
      6      O    -1.81720884     1.51781684     0.00000000
      7      H     2.06893340    -0.75300979     0.00000000
      8      H    -1.65959668    -0.50418563     0.00000000
 
Total System Charge             0.00000
 
 *** GOStep3 ***

 Energy gradients wrt nuclear displacements
 ==========================================

     Atom      Cartesian (a.u./angstrom)
                 X         Y         Z
 ----------------------------------------
     1 C    -0.000438  0.001054 -0.000000
     2 C    -0.000048 -0.000213  0.000000
     3 H    -0.000118 -0.000013  0.000000
     4 C    -0.002061 -0.001236 -0.000000
     5 H     0.000090 -0.000099  0.000000
     6 O     0.001513 -0.001860 -0.000000
     7 H     0.000415 -0.000047  0.000000
     8 H     0.000646  0.002415  0.000000
 ----------------------------------------
 Mulliken charges used for AMS results%charges...

 dE(predicted):    -0.15272E-03, dE(actual):    -0.16661E-03, Trust radius:    0.200000, all in a.u.
 
----------------------------------------------------------------------
Geometry Convergence after Step   3       (Hartree/Angstrom,Angstrom)
----------------------------------------------------------------------
current energy                               -1.68727693 Hartree
energy change                      -0.00016661     0.00008000    F
constrained gradient max            0.00241037     0.00100000    F
constrained gradient rms            0.00089739     0.00066667    F
gradient max                        0.00241037
gradient rms                        0.00089739
cart. step max                      0.00180614     0.01000000    T
cart. step rms                      0.00063207     0.00666667    T
 
 
--------
Geometry
--------
Formula: C3H4O
Atoms
  Index Symbol   x (angstrom)   y (angstrom)   z (angstrom)
      1      C     0.31400474     0.44925137     0.00000000
      2      C     0.98244322    -0.71213357     0.00000000
      3      H     0.45413867    -1.66433369     0.00000000
      4      C    -1.16092132     0.49415682     0.00000000
      5      H     0.82757426     1.40962679     0.00000000
      6      O    -1.81869252     1.51889148     0.00000000
      7      H     2.06870330    -0.75327228     0.00000000
      8      H    -1.65861510    -0.50599177     0.00000000
 
Total System Charge             0.00000
 
 *** GOStep4 ***

 Energy gradients wrt nuclear displacements
 ==========================================

     Atom      Cartesian (a.u./angstrom)
                 X         Y         Z
 ----------------------------------------
     1 C     0.000079  0.000003 -0.000000
     2 C    -0.000305  0.000072 -0.000000
     3 H    -0.000038  0.000000 -0.000000
     4 C     0.000473 -0.000846 -0.000000
     5 H    -0.000042 -0.000055 -0.000000
     6 O    -0.000539  0.000770  0.000000
     7 H     0.000454 -0.000055 -0.000000
     8 H    -0.000081  0.000111  0.000000
 ----------------------------------------
 Mulliken charges used for AMS results%charges...

 dE(predicted):    -0.50818E-05, dE(actual):    -0.50344E-05, Trust radius:    0.200000, all in a.u.
 
---------------------------------------------------------
Geometry Convergence after Step   4       ** CONVERGED **
---------------------------------------------------------
current energy                               -1.68728197 Hartree
energy change                      -0.00000503     0.00008000    T
constrained gradient max            0.00084951     0.00100000    T
constrained gradient rms            0.00030020     0.00066667    T
gradient max                        0.00084951
gradient rms                        0.00030020
cart. step max                      0.00050693     0.01000000    T
cart. step rms                      0.00018871     0.00666667    T
 
Geometry optimization converged

Optimized geometry:
 
--------
Geometry
--------
Formula: C3H4O
Atoms
  Index Symbol   x (angstrom)   y (angstrom)   z (angstrom)
      1      C     0.31400474     0.44925137     0.00000000
      2      C     0.98244322    -0.71213357     0.00000000
      3      H     0.45413867    -1.66433369     0.00000000
      4      C    -1.16092132     0.49415682     0.00000000
      5      H     0.82757426     1.40962679     0.00000000
      6      O    -1.81869252     1.51889148     0.00000000
      7      H     2.06870330    -0.75327228     0.00000000
      8      H    -1.65861510    -0.50599177     0.00000000
 
Total System Charge             0.00000
 
Performing a single point calculation on the final geometry ...

 *** adf ***



 ===========================
 A T T A C H E D   F I L E S
 ===========================
  
 Restart/scratch/3441/amstmp_Rsub_kid0.1187206674/GOStep4.rkf*** GOStep4 ***



 ===============================
 M O D E L   P A R A M E T E R S
 ===============================
  
 DENSITY FUNCTIONAL POTENTIAL (scf)
    LDA:                               Exchange only                           == Not Default ==
    Gradient Corrections:              OPTX LYP                                == Not Default ==

 SPIN  (restricted / unrestr.)
    Molecule:                          Restricted                               
    Fragments:                         Restricted                               

 OTHER ASPECTS
    Relativistic Corrections:          scalar (ZORA,MAPA)                       

    Nuclear Charge Density Model:      Point Charge Nuclei                      
    Core Treatment:                    Frozen Orbital(s)                        

    Hyperfine or Zeeman Interaction:   ---                                      



 ===============
 G E O M E T R Y  ***  Planar Molecule  ***
 ===============
  

 ATOMS
 =====                            X Y Z                    CHARGE
                                (Angstrom)             Nucl     +Core       At.Mass
                       --------------------------    ----------------       -------
    1  C               0.3140    0.4493    0.0000      6.00      6.00       12.0000
    2  C               0.9824   -0.7121    0.0000      6.00      6.00       12.0000
    3  H               0.4541   -1.6643    0.0000      1.00      1.00        1.0078
    4  C              -1.1609    0.4942    0.0000      6.00      6.00       12.0000
    5  H               0.8276    1.4096    0.0000      1.00      1.00        1.0078
    6  O              -1.8187    1.5189    0.0000      8.00      8.00       15.9949
    7  H               2.0687   -0.7533    0.0000      1.00      1.00        1.0078
    8  H              -1.6586   -0.5060    0.0000      1.00      1.00        1.0078


 FRAGMENTS
 =========                                     Atoms in this Fragment     Cart. coord.s (Angstrom)
                                               -------------------------------------------------------
    1  C                                                 1  C            0.3140    0.4493    0.0000
    2  C                                                 2  C            0.9824   -0.7121    0.0000
    3  C                                                 4  C           -1.1609    0.4942    0.0000
    4  H                                                 3  H            0.4541   -1.6643    0.0000
    5  H                                                 5  H            0.8276    1.4096    0.0000
    6  H                                                 7  H            2.0687   -0.7533    0.0000
    7  H                                                 8  H           -1.6586   -0.5060    0.0000
    8  O                                                 6  O           -1.8187    1.5189    0.0000


 Interatomic Distance Matrix (Angstrom)
 --------------------------------------

   1)     0.000
   2)     1.340   0.000
   3)     2.118   1.089   0.000
   4)     1.476   2.460   2.696   0.000
   5)     1.089   2.127   3.097   2.189   0.000
   6)     2.386   3.581   3.911   1.218   2.649   0.000
   7)     2.127   1.087   1.854   3.462   2.494   4.503   0.000
   8)     2.192   2.649   2.409   1.117   3.139   2.031   3.736   0.000

 Min. Distance =    1.0870
 Max. Distance =    4.5027



 =====================================
 S Y M M E T R Y ,   E L E C T R O N S
 =====================================
  
 Symmetry: NOSYM

 Irreducible Representations, including subspecies
 -------------------------------------------------
 A


 Configuration of Valence Electrons
 ==================================
 ( determined in the SCF procedure )

 Total:   30

 Net Charge: 0 (Nuclei minus Electrons)

 Aufbau principle for MO occupations will be applied through SCF cycle no.      49
 Thereafter, the program will assign electrons to MOs that are spatially
 similar to the occupied MOs in a "reference" cycle ("KeepOrbitals").
 The reference cycle is always the PREVIOUS cycle: it will evolve with
 the SCF procedure.
1
 ***************************************************************************************************



                                      ****************************************
                                      *  B U I L D : (Fragments, Functions)  *
                                      ****************************************
  



 =======
 S F O s  ***  (Symmetrized Fragment Orbitals)  ***
 =======
  
 SFOs are linear combinations of (valence) Fragment Orbitals (FOs), such that the SFOs transform as the
 irreducible representations of the (molecular) symmetry group. Each SFO is therefore characterized by
 an irrep of the molecule and by a few (or only one) generating FOs.
 The SFOs constitute a symmetry-adapted basis for the Fock matrix. The MO eigenvector coefficients in
 this basis provide a direct interpretation of the MOs in terms of Frontier Orbital Theory.

 The SFOs are combined with auxiliary Core Functions (CFs) to ensure orthogonalization on the (frozen)
 Core Orbitals (COs). The Core-orthogonalized SFOs (CSFOs) constitute the true Fock basis.

 The FOs, and hence also the (C)SFOs are combinations of the elementary basis functions (BAS). The basis
 functions that participate in the description of the SFOs depend on the irrep. The indices of the
 involved functions are printed below for each irrep.
 (The complete list of primitive basis functions is printed in another section)

 Total nr. of (C)SFOs (summation over all irreps) :   148

 NOTE: a (C)SFO that is defined as a combination of more than one FO is usually NOT normalized.



                                       === A ===
 Nr. of SFOs :  148
 Cartesian basis functions that participate in this irrep (total number =   168) :
      1     2     3     4     5     6     9    12     7    10
     13     8    11    14    15    16    17    18    19    20
     21    22    23    24    25    26    27    28    29    30
     31    32    33    34    35    36    39    42    37    40
     43    38    41    44    45    46    47    48    49    50
     51    52    53    54    55    56    57    58    59    60
     61    62    63    64    65    66    69    72    67    70
     73    68    71    74    75    76    77    78    79    80
     81    82    83    84    85    86    87    88    89    90
     91    92    93    94    95    96    97    98    99   100
    101   102   103   104   105   106   107   108   109   110
    111   112   113   114   115   116   117   118   119   120
    121   122   123   124   125   126   127   128   129   130
    131   132   133   134   135   136   137   138   139   140
    141   142   143   144   147   150   145   148   151   146
    149   152   153   154   155   156   157   158   159   160
    161   162   163   164   165   166   167   168

    SFO  (index         Fragment          Generating    Expansion in Fragment Orbitals
  indx  incl.CFs)   Occup   Orb.Energy   FragmentType  Coeff.   Orbital     on Fragment
 --------------------------------------------------------------------------------------
     1       1      2.000     -10.064 au  C             1.00      1 S               1
                        (    -273.865 eV)
     2       2      2.000      -0.507 au  C             1.00      2 S               1
                        (     -13.802 eV)
     3       3       --         0.384 au  C             1.00      3 S               1
                        (      10.456 eV)
     4       4       --         5.458 au  C             1.00      4 S               1
                        (     148.511 eV)
     5       5       --        49.970 au  C             1.00      5 S               1
                        (    1359.766 eV)
     6       6      0.667      -0.189 au  C             1.00      1 P:x             1
                        (      -5.135 eV)
     7       7       --         0.168 au  C             1.00      2 P:x             1
                        (       4.559 eV)
     8       8       --         2.056 au  C             1.00      3 P:x             1
                        (      55.959 eV)
     9       9      0.667      -0.189 au  C             1.00      1 P:y             1
                        (      -5.135 eV)
    10      10       --         0.168 au  C             1.00      2 P:y             1
                        (       4.559 eV)
    11      11       --         2.056 au  C             1.00      3 P:y             1
                        (      55.959 eV)
    12      12      0.667      -0.189 au  C             1.00      1 P:z             1
                        (      -5.135 eV)
    13      13       --         0.168 au  C             1.00      2 P:z             1
                        (       4.559 eV)
    14      14       --         2.056 au  C             1.00      3 P:z             1
                        (      55.959 eV)
    15      15       --         1.235 au  C             1.00      1 D:z2            1
                        (      33.605 eV)
    16      16       --         1.235 au  C             1.00      1 D:x2-y2         1
                        (      33.605 eV)
    17      17       --         1.235 au  C             1.00      1 D:xy            1
                        (      33.605 eV)
    18      18       --         1.235 au  C             1.00      1 D:xz            1
                        (      33.605 eV)
    19      19       --         1.235 au  C             1.00      1 D:yz            1
                        (      33.605 eV)
    20      20       --         4.005 au  C             1.00      1 F:z3            1
                        (     108.969 eV)
    21      21       --         4.005 au  C             1.00      1 F:z             1
                        (     108.969 eV)
    22      22       --         4.005 au  C             1.00      1 F:xyz           1
                        (     108.969 eV)
    23      23       --         4.005 au  C             1.00      1 F:z2x           1
                        (     108.969 eV)
    24      24       --         4.005 au  C             1.00      1 F:z2y           1
                        (     108.969 eV)
    25      25       --         4.005 au  C             1.00      1 F:x             1
                        (     108.969 eV)
    26      26       --         4.005 au  C             1.00      1 F:y             1
                        (     108.969 eV)
    27      27      2.000     -10.064 au  C             1.00      1 S               2
                        (    -273.865 eV)
    28      28      2.000      -0.507 au  C             1.00      2 S               2
                        (     -13.802 eV)
    29      29       --         0.384 au  C             1.00      3 S               2
                        (      10.456 eV)
    30      30       --         5.458 au  C             1.00      4 S               2
                        (     148.511 eV)
    31      31       --        49.970 au  C             1.00      5 S               2
                        (    1359.766 eV)
    32      32      0.667      -0.189 au  C             1.00      1 P:x             2
                        (      -5.135 eV)
    33      33       --         0.168 au  C             1.00      2 P:x             2
                        (       4.559 eV)
    34      34       --         2.056 au  C             1.00      3 P:x             2
                        (      55.959 eV)
    35      35      0.667      -0.189 au  C             1.00      1 P:y             2
                        (      -5.135 eV)
    36      36       --         0.168 au  C             1.00      2 P:y             2
                        (       4.559 eV)
    37      37       --         2.056 au  C             1.00      3 P:y             2
                        (      55.959 eV)
    38      38      0.667      -0.189 au  C             1.00      1 P:z             2
                        (      -5.135 eV)
    39      39       --         0.168 au  C             1.00      2 P:z             2
                        (       4.559 eV)
    40      40       --         2.056 au  C             1.00      3 P:z             2
                        (      55.959 eV)
    41      41       --         1.235 au  C             1.00      1 D:z2            2
                        (      33.605 eV)
    42      42       --         1.235 au  C             1.00      1 D:x2-y2         2
                        (      33.605 eV)
    43      43       --         1.235 au  C             1.00      1 D:xy            2
                        (      33.605 eV)
    44      44       --         1.235 au  C             1.00      1 D:xz            2
                        (      33.605 eV)
    45      45       --         1.235 au  C             1.00      1 D:yz            2
                        (      33.605 eV)
    46      46       --         4.005 au  C             1.00      1 F:z3            2
                        (     108.969 eV)
    47      47       --         4.005 au  C             1.00      1 F:z             2
                        (     108.969 eV)
    48      48       --         4.005 au  C             1.00      1 F:xyz           2
                        (     108.969 eV)
    49      49       --         4.005 au  C             1.00      1 F:z2x           2
                        (     108.969 eV)
    50      50       --         4.005 au  C             1.00      1 F:z2y           2
                        (     108.969 eV)
    51      51       --         4.005 au  C             1.00      1 F:x             2
                        (     108.969 eV)
    52      52       --         4.005 au  C             1.00      1 F:y             2
                        (     108.969 eV)
    53      53      2.000     -10.064 au  C             1.00      1 S               3
                        (    -273.865 eV)
    54      54      2.000      -0.507 au  C             1.00      2 S               3
                        (     -13.802 eV)
    55      55       --         0.384 au  C             1.00      3 S               3
                        (      10.456 eV)
    56      56       --         5.458 au  C             1.00      4 S               3
                        (     148.511 eV)
    57      57       --        49.970 au  C             1.00      5 S               3
                        (    1359.766 eV)
    58      58      0.667      -0.189 au  C             1.00      1 P:x             3
                        (      -5.135 eV)
    59      59       --         0.168 au  C             1.00      2 P:x             3
                        (       4.559 eV)
    60      60       --         2.056 au  C             1.00      3 P:x             3
                        (      55.959 eV)
    61      61      0.667      -0.189 au  C             1.00      1 P:y             3
                        (      -5.135 eV)
    62      62       --         0.168 au  C             1.00      2 P:y             3
                        (       4.559 eV)
    63      63       --         2.056 au  C             1.00      3 P:y             3
                        (      55.959 eV)
    64      64      0.667      -0.189 au  C             1.00      1 P:z             3
                        (      -5.135 eV)
    65      65       --         0.168 au  C             1.00      2 P:z             3
                        (       4.559 eV)
    66      66       --         2.056 au  C             1.00      3 P:z             3
                        (      55.959 eV)
    67      67       --         1.235 au  C             1.00      1 D:z2            3
                        (      33.605 eV)
    68      68       --         1.235 au  C             1.00      1 D:x2-y2         3
                        (      33.605 eV)
    69      69       --         1.235 au  C             1.00      1 D:xy            3
                        (      33.605 eV)
    70      70       --         1.235 au  C             1.00      1 D:xz            3
                        (      33.605 eV)
    71      71       --         1.235 au  C             1.00      1 D:yz            3
                        (      33.605 eV)
    72      72       --         4.005 au  C             1.00      1 F:z3            3
                        (     108.969 eV)
    73      73       --         4.005 au  C             1.00      1 F:z             3
                        (     108.969 eV)
    74      74       --         4.005 au  C             1.00      1 F:xyz           3
                        (     108.969 eV)
    75      75       --         4.005 au  C             1.00      1 F:z2x           3
                        (     108.969 eV)
    76      76       --         4.005 au  C             1.00      1 F:z2y           3
                        (     108.969 eV)
    77      77       --         4.005 au  C             1.00      1 F:x             3
                        (     108.969 eV)
    78      78       --         4.005 au  C             1.00      1 F:y             3
                        (     108.969 eV)
    79      79      1.000      -0.238 au  H             1.00      1 S               4
                        (      -6.484 eV)
    80      80       --         0.077 au  H             1.00      2 S               4
                        (       2.096 eV)
    81      81       --         1.521 au  H             1.00      3 S               4
                        (      41.380 eV)
    82      82       --         0.410 au  H             1.00      1 P:x             4
                        (      11.162 eV)
    83      83       --         0.410 au  H             1.00      1 P:y             4
                        (      11.162 eV)
    84      84       --         0.410 au  H             1.00      1 P:z             4
                        (      11.162 eV)
    85      85       --         2.567 au  H             1.00      1 D:z2            4
                        (      69.838 eV)
    86      86       --         2.567 au  H             1.00      1 D:x2-y2         4
                        (      69.838 eV)
    87      87       --         2.567 au  H             1.00      1 D:xy            4
                        (      69.838 eV)
    88      88       --         2.567 au  H             1.00      1 D:xz            4
                        (      69.838 eV)
    89      89       --         2.567 au  H             1.00      1 D:yz            4
                        (      69.838 eV)
    90      90      1.000      -0.238 au  H             1.00      1 S               5
                        (      -6.484 eV)
    91      91       --         0.077 au  H             1.00      2 S               5
                        (       2.096 eV)
    92      92       --         1.521 au  H             1.00      3 S               5
                        (      41.380 eV)
    93      93       --         0.410 au  H             1.00      1 P:x             5
                        (      11.162 eV)
    94      94       --         0.410 au  H             1.00      1 P:y             5
                        (      11.162 eV)
    95      95       --         0.410 au  H             1.00      1 P:z             5
                        (      11.162 eV)
    96      96       --         2.567 au  H             1.00      1 D:z2            5
                        (      69.838 eV)
    97      97       --         2.567 au  H             1.00      1 D:x2-y2         5
                        (      69.838 eV)
    98      98       --         2.567 au  H             1.00      1 D:xy            5
                        (      69.838 eV)
    99      99       --         2.567 au  H             1.00      1 D:xz            5
                        (      69.838 eV)
   100     100       --         2.567 au  H             1.00      1 D:yz            5
                        (      69.838 eV)
   101     101      1.000      -0.238 au  H             1.00      1 S               6
                        (      -6.484 eV)
   102     102       --         0.077 au  H             1.00      2 S               6
                        (       2.096 eV)
   103     103       --         1.521 au  H             1.00      3 S               6
                        (      41.380 eV)
   104     104       --         0.410 au  H             1.00      1 P:x             6
                        (      11.162 eV)
   105     105       --         0.410 au  H             1.00      1 P:y             6
                        (      11.162 eV)
   106     106       --         0.410 au  H             1.00      1 P:z             6
                        (      11.162 eV)
   107     107       --         2.567 au  H             1.00      1 D:z2            6
                        (      69.838 eV)
   108     108       --         2.567 au  H             1.00      1 D:x2-y2         6
                        (      69.838 eV)
   109     109       --         2.567 au  H             1.00      1 D:xy            6
                        (      69.838 eV)
   110     110       --         2.567 au  H             1.00      1 D:xz            6
                        (      69.838 eV)
   111     111       --         2.567 au  H             1.00      1 D:yz            6
                        (      69.838 eV)
   112     112      1.000      -0.238 au  H             1.00      1 S               7
                        (      -6.484 eV)
   113     113       --         0.077 au  H             1.00      2 S               7
                        (       2.096 eV)
   114     114       --         1.521 au  H             1.00      3 S               7
                        (      41.380 eV)
   115     115       --         0.410 au  H             1.00      1 P:x             7
                        (      11.162 eV)
   116     116       --         0.410 au  H             1.00      1 P:y             7
                        (      11.162 eV)
   117     117       --         0.410 au  H             1.00      1 P:z             7
                        (      11.162 eV)
   118     118       --         2.567 au  H             1.00      1 D:z2            7
                        (      69.838 eV)
   119     119       --         2.567 au  H             1.00      1 D:x2-y2         7
                        (      69.838 eV)
   120     120       --         2.567 au  H             1.00      1 D:xy            7
                        (      69.838 eV)
   121     121       --         2.567 au  H             1.00      1 D:xz            7
                        (      69.838 eV)
   122     122       --         2.567 au  H             1.00      1 D:yz            7
                        (      69.838 eV)
   123     123      2.000     -18.926 au  O             1.00      1 S               8
                        (    -515.001 eV)
   124     124      2.000      -0.887 au  O             1.00      2 S               8
                        (     -24.136 eV)
   125     125       --         0.804 au  O             1.00      3 S               8
                        (      21.890 eV)
   126     126       --        13.488 au  O             1.00      4 S               8
                        (     367.032 eV)
   127     127       --       121.767 au  O             1.00      5 S               8
                        (    3313.451 eV)
   128     128      1.333      -0.329 au  O             1.00      1 P:x             8
                        (      -8.949 eV)
   129     129       --         0.351 au  O             1.00      2 P:x             8
                        (       9.557 eV)
   130     130       --         3.863 au  O             1.00      3 P:x             8
                        (     105.120 eV)
   131     131      1.333      -0.329 au  O             1.00      1 P:y             8
                        (      -8.949 eV)
   132     132       --         0.351 au  O             1.00      2 P:y             8
                        (       9.557 eV)
   133     133       --         3.863 au  O             1.00      3 P:y             8
                        (     105.120 eV)
   134     134      1.333      -0.329 au  O             1.00      1 P:z             8
                        (      -8.949 eV)
   135     135       --         0.351 au  O             1.00      2 P:z             8
                        (       9.557 eV)
   136     136       --         3.863 au  O             1.00      3 P:z             8
                        (     105.120 eV)
   137     137       --         1.072 au  O             1.00      1 D:z2            8
                        (      29.175 eV)
   138     138       --         1.072 au  O             1.00      1 D:x2-y2         8
                        (      29.175 eV)
   139     139       --         1.072 au  O             1.00      1 D:xy            8
                        (      29.175 eV)
   140     140       --         1.072 au  O             1.00      1 D:xz            8
                        (      29.175 eV)
   141     141       --         1.072 au  O             1.00      1 D:yz            8
                        (      29.175 eV)
   142     142       --         3.353 au  O             1.00      1 F:z3            8
                        (      91.230 eV)
   143     143       --         3.353 au  O             1.00      1 F:z             8
                        (      91.230 eV)
   144     144       --         3.353 au  O             1.00      1 F:xyz           8
                        (      91.230 eV)
   145     145       --         3.353 au  O             1.00      1 F:z2x           8
                        (      91.230 eV)
   146     146       --         3.353 au  O             1.00      1 F:z2y           8
                        (      91.230 eV)
   147     147       --         3.353 au  O             1.00      1 F:x             8
                        (      91.230 eV)
   148     148       --         3.353 au  O             1.00      1 F:y             8
                        (      91.230 eV)



 ================================
 (Slater-type)  F U N C T I O N S  ***  (Basis and Fit)  ***
 ================================
  

 Atom Type    1  (C)
 ==============

 Valence Basis Sets:  10
 -----------------------
   1 S    7.680000
   1 S    5.000000
   2 S    1.280000
   2 S    2.100000
   2 S    4.600000
   2 P    0.820000
   2 P    1.480000
   2 P    2.940000
   3 D    2.200000
   4 F    3.300000

 Atom Type    2  (H)
 ==============

 Valence Basis Sets:   5
 -----------------------
   1 S    0.690000
   1 S    0.920000
   1 S    1.580000
   2 P    1.250000
   3 D    2.500000

 Atom Type    3  (O)
 ==============

 Valence Basis Sets:  10
 -----------------------
   1 S    9.800000
   1 S    6.800000
   2 S    7.580000
   2 S    2.880000
   2 S    1.720000
   2 P    4.080000
   2 P    2.080000
   2 P    1.120000
   3 D    2.000000
   4 F    3.000000


 BAS: List of all Elementary Cartesian Basis Functions
 =====================================================

 The numbering in the list below (to the right of the function characteristics) is referred
 to in print-outs of MO eigenvectors and Mulliken populations in the BAS representation
 (as contrasted to the SFO representation).

 Notes:
 1. The functions are characterized by a polynomial prefactor (powers of x,y,z and r) and
    an exponential decay factor alpha.
 2. Since the basis sets are specific for an atom TYPE, the individual functions occur on
    all atoms of that type.
 3. The word 'Core' in the left margin signals that it is a Core Function (CF) : not a
    degree of freedom in the valence set, but only used to ensure orthogonalization of
    the other valence basis functions on the frozen Core Orbitals.


 (power of) X  Y  Z  R     Alpha  on Atom
            ==========     =====     ==========

 C                                    1    2    3
                                  ---------------------------------------------------------------------------
            0  0  0  0     7.680      1   31   61
            0  0  0  0     5.000      2   32   62
            0  0  0  1     1.280      3   33   63
            0  0  0  1     2.100      4   34   64
            0  0  0  1     4.600      5   35   65
            1  0  0  0     0.820      6   36   66
            0  1  0  0     0.820      7   37   67
            0  0  1  0     0.820      8   38   68
            1  0  0  0     1.480      9   39   69
            0  1  0  0     1.480     10   40   70
            0  0  1  0     1.480     11   41   71
            1  0  0  0     2.940     12   42   72
            0  1  0  0     2.940     13   43   73
            0  0  1  0     2.940     14   44   74
            2  0  0  0     2.200     15   45   75
            1  1  0  0     2.200     16   46   76
            1  0  1  0     2.200     17   47   77
            0  2  0  0     2.200     18   48   78
            0  1  1  0     2.200     19   49   79
            0  0  2  0     2.200     20   50   80
            3  0  0  0     3.300     21   51   81
            2  1  0  0     3.300     22   52   82
            2  0  1  0     3.300     23   53   83
            1  2  0  0     3.300     24   54   84
            1  1  1  0     3.300     25   55   85
            1  0  2  0     3.300     26   56   86
            0  3  0  0     3.300     27   57   87
            0  2  1  0     3.300     28   58   88
            0  1  2  0     3.300     29   59   89
            0  0  3  0     3.300     30   60   90

 H                                    4    5    6    7
                                  ---------------------------------------------------------------------------
            0  0  0  0     0.690     91  103  115  127
            0  0  0  0     0.920     92  104  116  128
            0  0  0  0     1.580     93  105  117  129
            1  0  0  0     1.250     94  106  118  130
            0  1  0  0     1.250     95  107  119  131
            0  0  1  0     1.250     96  108  120  132
            2  0  0  0     2.500     97  109  121  133
            1  1  0  0     2.500     98  110  122  134
            1  0  1  0     2.500     99  111  123  135
            0  2  0  0     2.500    100  112  124  136
            0  1  1  0     2.500    101  113  125  137
            0  0  2  0     2.500    102  114  126  138

 O                                    8
                                  ---------------------------------------------------------------------------
            0  0  0  0     9.800    139
            0  0  0  0     6.800    140
            0  0  0  1     7.580    141
            0  0  0  1     2.880    142
            0  0  0  1     1.720    143
            1  0  0  0     4.080    144
            0  1  0  0     4.080    145
            0  0  1  0     4.080    146
            1  0  0  0     2.080    147
            0  1  0  0     2.080    148
            0  0  1  0     2.080    149
            1  0  0  0     1.120    150
            0  1  0  0     1.120    151
            0  0  1  0     1.120    152
            2  0  0  0     2.000    153
            1  1  0  0     2.000    154
            1  0  1  0     2.000    155
            0  2  0  0     2.000    156
            0  1  1  0     2.000    157
            0  0  2  0     2.000    158
            3  0  0  0     3.000    159
            2  1  0  0     3.000    160
            2  0  1  0     3.000    161
            1  2  0  0     3.000    162
            1  1  1  0     3.000    163
            1  0  2  0     3.000    164
            0  3  0  0     3.000    165
            0  2  1  0     3.000    166
            0  1  2  0     3.000    167
            0  0  3  0     3.000    168

 Total number of charge fitting functions (nprimf)       536
 Total number of Cartesian basis functions (naos)        168
 Total number of Cartesian core functions  (ncos)          0

1
 ***************************************************************************************************



                                              ***********************
                                              *  T E C H N I C A L  *
                                              ***********************
  



 =============================================================
 P A R A L L E L I Z A T I O N  and  V E C T O R I Z A T I O N
 =============================================================
  
 Nr of parallel processes:                                1
 Maximum vector length in NumInt loops:                 128



 =====================
 S C F   U P D A T E S
 =====================
  
 Max. nr. of cycles:                                99
 Convergence criterion:                              0.0000010000
   secondary criterion:                              0.0010000000

 Mix parameter (when DIIS does not apply):           0.2000000000
 Mixed ADIIS+SDIIS will be used                  
    Max number of expansion vectors:                10
    Pure ADIIS when Max([F,P]) is above              0.1000000000
    Pure SDIIS when Max([F,P]) is below              0.0010000000
 Automatic ElectronSmearing (in case of problematic SCF convergence) disabled



 =================
 P R E C I S I O N  ***  (General: NumInt, NeglectFunctionTails, ...)  ***
 =================
  

 NumInt:           Target precision:                 8.0000000000
 -------           Initial precision:                8.0000000000
                   Min. precision (optimization):    8.0000000000

 Neglect Functions:          Basis functions:        0.1000000000E-09
 ------------------          Fit functions:          0.1000000000E-09



 ===========================
 L I N E A R   S C A L I N G
 ===========================
  

 Cut-off radii density fit:                        0.1000000000E-11
 Overlap cut-off criterion AO matrix elements:     0.1000000000E-09
 Cut-offs for Coulomb potential and fitted density:0.1000000000E-11
 Cut-off criterion for Coulomb multipole terms:    0.1000000000E-11
 Progressive Convergence parameter:                 0.000000000    

 Number of elements of the density matrix on this node (used, total):     14196     14196



 ===========================================
 Numerical Integration : Fuzzy Cells (Becke)
 ===========================================
  
 Becke grid quality: VERYGOOD       
  
 Lebedev angular grid order:             min:  13 max:  41
 Nr. of radial points:                   min:  64 max:  72

 Total nr. of points:     190046
 Nr. of blocks:             1485
 Block length:               128
 Nr. of dummy points:         34


 Test of Precision of the Numerical Integration Grid
 ===================================================

 Integral of the Total Core Density:                   0.00000000000000



 ========================
 Density Fitting (zlmFit)
 ========================
  
 ZlmFit Fit Quality: VERYGOOD       
  
 Max L-expansion:                        min:  10 max:  11
 Nr. of radial interpolation points:     min: 130 max: 180



 =====
 S C F  ***  ScaSCF  ***
 =====
  
 Initial density matrix is taken from previous geometry

 CYCLE    1
  ***********************************************************
  ** : orbital data taken from :/scratch/3441/amstmp_Rsub_kid0.1187206674/GOStep4.rkf
  ***********************************************************
 SCF Error: norm([F,P])=      0.000000019359, max([F,P])=      0.000000005140
 orbitals (Q,E):
 ---------------
 A :6...25           ( 2.00    -0.7400)  ( 2.00    -0.5946)  ( 2.00    -0.5204)  ( 2.00    -0.4303)
                     ( 2.00    -0.4286)  ( 2.00    -0.3735)  ( 2.00    -0.3623)  ( 2.00    -0.3511)
                     ( 2.00    -0.2702)  ( 2.00    -0.2171)  ( 0.00    -0.1056)  ( 0.00    -0.0098)
                     ( 0.00    -0.0019)  ( 0.00     0.0005)  ( 0.00     0.0295)  ( 0.00     0.0609)
                     ( 0.00     0.1109)  ( 0.00     0.1298)  ( 0.00     0.1531)  ( 0.00     0.1935)

 CYCLE    2
  SDIIS (wt  0.000):  0.6639  0.3361
 A-DIIS (wt  1.000):  0.0000  1.0000
  DIIS coefficients:  0.0000  1.0000
 SCF Error: norm([F,P])=      0.000000035492, max([F,P])=      0.000000015422
 orbitals (Q,E):
 ---------------
 A :6...16           ( 2.00    -0.7400)  ( 2.00    -0.5946)  ( 2.00    -0.5204)  ( 2.00    -0.4303)
                     ( 2.00    -0.4286)  ( 2.00    -0.3735)  ( 2.00    -0.3623)  ( 2.00    -0.3511)
                     ( 2.00    -0.2702)  ( 2.00    -0.2171)  ( 0.00    -0.1056)

 SCF CONVERGED

 CYCLE    3
1
 ***************************************************************************************************



                                                *******************
                                                *  R E S U L T S  *
                                                *******************
  
 *** Using FIT density in Focky
  SDIIS (wt  0.000):  1.0934 -0.0934
 A-DIIS (wt  1.000):  0.0000  1.0000
  DIIS coefficients:  0.0000  1.0000
 SCF Error: norm([F,P])=      0.000000104785, max([F,P])=      0.000000048530

 Scaled ZORA Orbital Energies, per Irrep and Spin:
 =================================================
                        Occup              E (au)              E (eV)       Diff (eV) with prev. cycle
                        -----      --------------------        ------       --------------------------
 A
               6        2.000     -0.74003484459366E+00       -20.137               3.39E-07
               7        2.000     -0.59458794944451E+00       -16.180               2.09E-07
               8        2.000     -0.52038732946156E+00       -14.160               2.08E-07
               9        2.000     -0.43027481098973E+00       -11.708               1.03E-07
              10        2.000     -0.42855005695617E+00       -11.661              -5.46E-08
              11        2.000     -0.37346831191967E+00       -10.163              -4.96E-07
              12        2.000     -0.36232401570461E+00        -9.859              -3.60E-07
              13        2.000     -0.35107621815069E+00        -9.553               1.77E-07
              14        2.000     -0.27019241826709E+00        -7.352               4.55E-08
              15        2.000     -0.21705773143848E+00        -5.906              -7.17E-07
              16        0.000     -0.10559431236066E+00        -2.873
              17        0.000     -0.97615026982734E-02        -0.266
              18        0.000     -0.19106933479818E-02        -0.052
              19        0.000      0.50636720129803E-03         0.014
              20        0.000      0.29489840706052E-01         0.802
              21        0.000      0.60904898397420E-01         1.657
              22        0.000      0.11088725593206E+00         3.017
              23        0.000      0.12983156906704E+00         3.533
              24        0.000      0.15307781858755E+00         4.165
              25        0.000      0.19351060248540E+00         5.266
  
 HOMO :       15 A                -0.21705773143848E+00
 LUMO :       16 A                -0.10559431236066E+00
  


 All Electron Calculation, thus no Orbital Energies of the Core Orbitals are calculated


 Fit test: (difference of exact and fit density, squared integrated, result summed over spins)
         Sum-of-Fragments:                             0.00000000057496
         Orthogonalized Fragments:                     0.00000105797971
         SCF:                                          0.00000222110519



 ==========================
 Electron Density at Nuclei
 ==========================
  
 The electron density is calculated at points on a small sphere around the center of a nucleus.
 The printed electron density is the average electron density on these points.
 The radius of the sphere is the printed approximate finite nuclear radius.
 Note: ZORA-4 density is used, which includes small component density

         Atom        Nuclear Radius (Angstrom)             Electron Density (a.u.)
         ----        -------------------------             -----------------------
     1)   C                 0.0000320678                              126.89924
     2)   C                 0.0000320678                              126.89688
     3)   H                 0.0000181514                                0.50374
     4)   C                 0.0000320678                              126.96264
     5)   H                 0.0000181514                                0.50343
     6)   O                 0.0000345546                              313.35864
     7)   H                 0.0000181514                                0.50313
     8)   H                 0.0000181514                                0.50291



 =======================================
 M U L L I K E N   P O P U L A T I O N S
 =======================================
  
 The survey below gives for each atom:
 a) the total charge (Z minus electrons)
 b) the net spin polarization (nr of electrons spin-A minus spin-B)
 c) for each spin the atomic electron valence density (integrated) per L-value.

 Atom              Charge    Spin density          S         P         D         F
 ----              ------    ------------       ------    ------    ------    ------
 1 C               0.1914                       3.1162    2.6329    0.0550    0.0044
 2 C               0.4636                       3.0582    2.4346    0.0402    0.0033
 3 H              -0.1933                       1.1099    0.0781    0.0053    0.0000
 4 C               0.6418                       2.9818    2.2555    0.1135    0.0074
 5 H              -0.1604                       1.0898    0.0657    0.0049    0.0000
 6 O              -0.4808                       3.8416    4.5771    0.0561    0.0061
 7 H              -0.2087                       1.1277    0.0757    0.0052    0.0000
 8 H              -0.2537                       1.1853    0.0635    0.0048    0.0000

 Populations of individual BAS functions
 ----------------------------------------
 1 C            0.4733  1.5467  0.2753  0.9003 -0.0795 -0.1117 -0.2492  0.1340  0.7995  0.8669
                0.6880  0.1827  0.1956  0.1272  0.0214  0.0170  0.0052  0.0207  0.0075 -0.0167
                0.0049  0.0025  0.0036  0.0006  0.0003 -0.0042  0.0038  0.0039 -0.0045 -0.0063
 2 C            0.4734  1.5469  0.1965  0.9233 -0.0820 -0.3366 -0.2338  0.1286  0.8992  0.8476
                0.6195  0.1881  0.1998  0.1222  0.0138  0.0124  0.0026  0.0202  0.0065 -0.0152
                0.0014  0.0005  0.0015  0.0028  0.0004 -0.0031  0.0046  0.0038 -0.0039 -0.0046
 4 C            0.4731  1.5480  0.1199  0.9254 -0.0845 -0.1962 -0.1730  0.0108  0.7859  0.7426
                0.5795  0.1903  0.2003  0.1152  0.0350  0.0314  0.0130  0.0356  0.0123 -0.0138
                0.0037  0.0039  0.0031  0.0019  0.0008 -0.0038  0.0038  0.0035 -0.0045 -0.0051
 3 H            0.2586  0.5226  0.3287  0.0286  0.0282  0.0212 -0.0009  0.0016  0.0002  0.0079
                0.0015 -0.0049
 5 H            0.2113  0.5477  0.3308  0.0193  0.0297  0.0167 -0.0015  0.0015  0.0002  0.0081
                0.0013 -0.0048
 7 H            0.2832  0.5213  0.3232  0.0345  0.0215  0.0197  0.0117  0.0022  0.0015 -0.0057
                0.0000 -0.0046
 8 H            0.3426  0.5291  0.3136  0.0163  0.0344  0.0127 -0.0026  0.0015  0.0003  0.0087
                0.0010 -0.0041
 6 O            0.6037  1.4076 -0.0446  1.0513  0.8236  0.3055  0.2773  0.2161  0.9700  0.9122
                0.7688  0.4462  0.3430  0.3380  0.0018  0.0146  0.0065  0.0177  0.0148  0.0005
               -0.0037 -0.0017 -0.0002  0.0072  0.0014 -0.0022  0.0094  0.0070 -0.0053 -0.0059

 Gross Charges per Atom (Z minus electrons)
 ==========================================
             0.1914    0.4636   -0.1933    0.6418   -0.1604   -0.4808   -0.2087   -0.2537
 Net Total:  0.00000000


 Atom-Atom Population Matrix (off-diagonal elements not doubled)
 ===============================================================

     1 :     4.7197
     2 :     0.5856    4.2939
     3 :    -0.0536    0.3871    1.0535
     4 :     0.4169   -0.0139   -0.0317    4.1048
     5 :     0.4148   -0.0743    0.0136   -0.0691    0.9411
     6 :    -0.0392   -0.0014    0.0022    0.5653    0.0033    8.0264
     7 :    -0.0410    0.3735   -0.1492    0.0055   -0.0633   -0.0021    1.0951
     8 :    -0.1946   -0.0140   -0.0285    0.3802   -0.0058   -0.0737   -0.0097    1.1998



 =================================================
 H I R S H F E L D   C H A R G E   A N A L Y S I S
 =================================================
  
 For each fragment: the (numerical) integral of rho(scf) * rho(fragment)/rho(sum-of-fragments)
 (nuclear charges are included, electrons are counted negative)

 The fragments and their ordering are defined in the early G E O M E T R Y output section.
 If you use single-atom fragments, this usually implies that all atoms of the same
 chemical type are grouped together. This may not be the order in which you listed them
 in the input file!

    1  C                        -0.0420
    2  C                        -0.0489
    3  C                         0.1057
    4  H                         0.0541
    5  H                         0.0581
    6  H                         0.0594
    7  H                         0.0360
    8  O                        -0.2223

 Sum of these charges (accuracy NumInt/Tails) =           0.00000396



 =============================
 V O R O N O I   C H A R G E S
 =============================
  
 For each atom: the (numerical) integral of the total electronic charge density in its Voronoi cell,
 i.e. the region of space that is closer to that atom than to any other atom.
 (cf. Wigner-Seitz cells in crystals)

 Within the Voronoi cell the subintegrals over the atomic sphere and the remaining part are evaluated
 separately to give the numbers of electrons (negative charge) in these regions.
 The net total charge in the cell (including the nuclear charge) is also given.

 Values are provided for
    a) the Initial (sum-of-fragments) density
    b) the Orthogonalized-Fragments density
    c) the SCF density
    d) the Voronoi Deformation Density (VDD): the difference SCF-Initial for the complete atomic cell


  Atom                Initial                    OrthFrag                   SCF
             Sphere RestCell NetTotal   Sphere RestCell NetTotal   Sphere RestCell NetTotal      VDD
 -----       ------------------------   ------------------------   ------------------------    -----
    1 C      -2.151   -3.284    0.566   -2.281   -3.304    0.415   -2.175   -3.332    0.493   -0.073
    2 C      -2.150   -2.822    1.028   -2.266   -2.958    0.776   -2.174   -2.847    0.979   -0.049
    3 H      -0.080   -1.432   -0.513   -0.104   -1.280   -0.384   -0.115   -1.342   -0.458    0.055
    4 C      -2.152   -3.203    0.645   -2.261   -3.206    0.533   -2.169   -3.071    0.760    0.115
    5 H      -0.080   -1.465   -0.545   -0.103   -1.307   -0.410   -0.115   -1.354   -0.469    0.076
    6 O      -3.335   -4.812   -0.147   -3.560   -4.580   -0.140   -3.366   -5.015   -0.381   -0.234
    7 H      -0.081   -1.443   -0.524   -0.103   -1.298   -0.401   -0.115   -1.347   -0.462    0.062
    8 H      -0.079   -1.431   -0.510   -0.102   -1.287   -0.389   -0.115   -1.347   -0.463    0.047
 ---------------------------------------------------------------------------------------------------
 Total NetCharge:               0.000                      0.000                      0.000    0.000
 (accuracy NumInt/Tails)

 Remark: the 'NetTotal' Voronoi charges often do not match the Mulliken and/or Hirshfeld charges very
 well. This is caused by the fact that chemically different atoms are not treated in accordance with
 their relative sizes. (Voronoi cells are defined by boundary planes halfway between the atoms.)
 However, the CHANGES in charge, comparing 'Initial' to 'SCF' for instance, do give a fair indication
 of the flow of charge caused by the relaxation from sum-of-fragments to self-consistency.

 Warning: the absolute accuracy of the VDD charges obtained using the Fuzzy Cells (Becke) integration
 scheme is much poorer than the one obtained with an 'equivalent' Voronoi integration grid. 



 =================================================================
 M U L T I P O L E   D E R I V E D   C H A R G E   A N A L Y S I S
 =================================================================

 This charge analysis uses the atomic multipoles (obtained from the fitted density) up to some level X,
 and reconstructs these multipoles exactly (up to level X) by distributing charges over all atoms.
 This is achieved by using Lagrange multipliers and a weight function to keep the multipoles local.

 Dummy atoms can be included (by setting INCDUM in MDC-block to 1) to obtain a fractional charge.
 This is generally useful and necessary only for small symmetrical molecules, when there are not
 enough degrees of freedom to reconstruct the multipoles.

 Since the atomic multipoles are reconstructed up to level X,
 the molecular multipoles are represented also up to level X.
 The recommended level is to reconstruct up to quadrupole : -> MDC-q charges.

 See: M. Swart, P.Th. van Duijnen, J.G. Snijders, J.Comput.Chem., (2001), p. 79-88.

 ------------------------------------------------------------- 
 Atomic electronic multipole moments from SCF equations (a.u.)
 ------------------------------------------------------------- 

   atom        charge        dip-x     dip-y     dip-z      quad-xx   quad-xy   quad-xz   quad-yy   quad-yz   quad-zz
 --------------------------------------------------------------------------------------------------------------------
    1 C      0.079261    -0.000234  0.085774  0.000000     0.395394 -0.036151  0.000000  0.485492 -0.000000 -0.880885
    2 C      0.158762     0.045653 -0.078629  0.000000     0.426549 -0.025357 -0.000000  0.432756  0.000000 -0.859305
    3 H     -0.051207    -0.008034 -0.021039  0.000000     0.010063  0.069022 -0.000000  0.155995  0.000000 -0.166059
    4 C      0.296161    -0.066028 -0.003083  0.000000     0.179465 -0.013006 -0.000000  0.210719 -0.000000 -0.390185
    5 H     -0.040875     0.006515  0.029869  0.000000     0.021396  0.076061 -0.000000  0.145552 -0.000000 -0.166949
    6 O     -0.334477     0.166509 -0.272096  0.000000    -0.184561 -0.354529 -0.000000  0.300577 -0.000000 -0.116016
    7 H     -0.045381     0.028425 -0.000136 -0.000000     0.217060 -0.003952  0.000000 -0.052310 -0.000000 -0.164750
    8 H     -0.062243    -0.015802  0.012745 -0.000000     0.017834  0.047410 -0.000000  0.103791  0.000000 -0.121625

 --------------------------------------- 
 Multipole derived atomic charges (a.u.)
 --------------------------------------- 

 The MDC-m charges are just the Monopole terms in the multipole expansion, while for the MDC-d charges
 also the Dipoles are reconstructed. The usually preferred charges are the MDC-q charges.
 These reconstruct the Monopoles, Dipoles and Quadrupoles (both atomic AND molecular).

        Atom    Level:     MDC-m        MDC-d        MDC-q
 ---------------------------------------------------------
     1     C            0.079261     0.045268    -0.168055
     2     C            0.158762     0.103320    -0.241294
     3     H           -0.051207    -0.026728     0.131639
     4     C            0.296161     0.352164     0.365095
     5     H           -0.040875    -0.005025     0.158221
     6     O           -0.334477    -0.432429    -0.417893
     7     H           -0.045381    -0.015289     0.142033
     8     H           -0.062243    -0.021280     0.030254

 ------------------------------------------------ 
 Average absolute deviations in atomic multipoles
 ------------------------------------------------ 

 Stated here are the average differences between the atomic multipoles
 and the reconstructed atomic multipoles (from the distributed charges).
 If these values are not zero, this means there are not enough degrees of freedom,
 to be able to reconstruct the atomic multipoles. (This usually happens only
 for small and/or highly symmetric molecules). If this is the case, one could add
 dummy atoms as extra point charges (and setting INCDUM in MDC-block to 1).

 Level:                                 MDC-d        MDC-q
 ---------------------------------------------------------
 Charge   (a.u.)                       0.0000       0.0000
 Dipole   (Debye)                      0.0000       0.0000
 Quad.    (a.u.)                       0.1539       0.0000

 --------------------------------------- 
 Represented molecular multipole moments
 --------------------------------------- 

 Given here are the Molecular multipole moments from the atomic charges, and from the Fit Density.
 Note that the atomic charges represent the latter, NOT the ones from the Exact density.

            Q (a.u.)             Dipole moment (Debye)                                          Quadrupole moment (a.u.)
                                 x         y         z              xx        xy        xz        yy        yz        zz
------------------------------------------------------------------------------------------------------------------------
MDC-m         0.0000        1.9099   -1.6612    0.0000         -1.8439    3.5550    0.0000   -1.4017    0.0000    3.2456
MDC-d         0.0000        2.3090   -2.2880    0.0000         -1.8224    5.0723    0.0000   -1.6285    0.0000    3.4509
MDC-q         0.0000        2.3090   -2.2880    0.0000         -0.6469    5.2451    0.0000   -0.3832    0.0000    1.0301
 
Fit.Dens.     0.0000        2.3090   -2.2880    0.0000         -0.6469    5.1249   -0.0000   -0.3832    0.0000    1.0301



 =============
 Dipole Moment  ***  (Debye)  ***
 =============
  
 Vector   :         2.30908200     -2.28807724      0.00000000
 Magnitude:         3.25071640

 This molecular dipole moment is calculated with analytic integration



 =========================================
 Quadrupole Moment (Buckingham convention)  ***  (a.u.)  ***
 =========================================
  
      quad-xx        quad-xy        quad-xz        quad-yy        quad-yz        quad-zz
     -0.64691504     5.00475794    -0.00000000    -0.38317167     0.00000000     1.03008671

 This molecular quadrupole moment is calculated with analytic integration
1



 ===========================
 B O N D I N G   E N E R G Y  ***  (decomposition)  ***
 ===========================
  
*** IMPORTANT NOTE ***

The bond energy is computed as an energy difference between molecule and
fragments. In particular when the fragments are single atoms, they are usually
computed as SPHERICALLY SYMMETRIC and SPIN-RESTRICTED. Obviously, this usually
does NOT represent the true atomic groundstate.

To obtain the 'real' bond energy, (atomic) correction terms must be applied
for the true (multiplet) fragment ground state. See ref: E.J.Baerends,
V.Branchadell, M.Sodupe, Chem.Phys.Lett.265 (1997) 481

General theoretical background on the bond energy decomposition scheme used
here (Morokuma-Ziegler) can be found in the review paper:
F.M. Bickelhaupt and E.J. Baerends,
"Kohn-Sham Density Functional Theory: Predicting and Understanding Chemistry"
In: Rev. Comput. Chem.; Lipkowitz, K. B. and Boyd, D. B., Eds.;
Wiley-VCH: New York, 2000, Vol. 15, 1-86.

Symbols used in the Bickelhaupt-Baerends (BB) paper are given below to make
the direct connection to that paper, where detailed explanations can be found
on the meaning of the various terms.


                                                   hartree              eV         kcal/mol           kJ/mol
                                      --------------------     -----------       ----------      -----------

Pauli Repulsion
  Kinetic (Delta T^0):                  16.190054925764130        440.5538         10159.41         42506.98
  Delta V^Pauli Coulomb:                -7.668353465386996       -208.6665         -4811.96        -20133.26
  Delta V^Pauli LDA-XC:                 -1.910788818118429        -51.9952         -1199.04         -5016.78
  Delta V^Pauli GGA-Exchange:            0.150769444508281          4.1026            94.61           395.85
  Delta V^Pauli GGA-Correlation:        -0.137819584800522         -3.7503           -86.48          -361.85
                                      --------------------     -----------       ----------      -----------
  Total Pauli Repulsion:                 6.623862501966463        180.2445          4156.54         17390.95
 (Total Pauli Repulsion =
  Delta E^Pauli in BB paper)

Steric Interaction
  Pauli Repulsion (Delta E^Pauli):       6.623862501966463        180.2445          4156.54         17390.95
  Electrostatic Interaction:            -1.232428192711614        -33.5361          -773.36         -3235.74
 (Electrostatic Interaction =
  Delta V_elstat in the BB paper)
                                      --------------------     -----------       ----------      -----------
  Total Steric Interaction:              5.391434309254850        146.7084          3383.18         14155.21
 (Total Steric Interaction =
  Delta E^0 in the BB paper)

Orbital Interactions
  A:                                    -7.078716027598699       -192.6217         -4441.96        -18585.17
                                      --------------------     -----------       ----------      -----------
  Total Orbital Interactions:           -7.078716027598699       -192.6217         -4441.96        -18585.17

Alternative Decomposition Orb.Int.
  Kinetic:                             -14.578367711548328       -396.6976         -9148.06        -38275.50
  Coulomb:                               7.096910651602530        193.1168          4453.38         18632.94
  XC:                                    0.402741032347097         10.9591           252.72          1057.40
                                      --------------------     -----------       ----------      -----------
  Total Orbital Interactions:           -7.078716027598701       -192.6217         -4441.96        -18585.17

  Residu (E=Steric+OrbInt+Res):         -0.000000246983849         -0.0000            -0.00            -0.00

Total Bonding Energy:                   -1.687281965327699        -45.9133         -1058.79         -4429.96


Summary of Bonding Energy (energy terms are taken from the energy decomposition above)
======================================================================================

  Electrostatic Energy:                 -1.232428192711614        -33.5361          -773.36         -3235.74
  Kinetic Energy:                        1.611687214215802         43.8562          1011.35          4231.48
  Coulomb (Steric+OrbInt) Energy:       -0.571443060768315        -15.5498          -358.59         -1500.32
  XC Energy:                            -1.495097926063573        -40.6837          -938.19         -3925.38
                                      --------------------     -----------       ----------      -----------
  Total Bonding Energy:                 -1.687281965327699        -45.9133         -1058.79         -4429.96


Correction terms (incorporated in energies above; only for test purposes):

1. Indication of fit-quality: 1st-order fit-correction used in the energy (hartree):   0.0000081467
2. Electrostatic (Fit correction):   0.0000000000

Scaled ZORA energy correction, not included in bonding energy (hartree):           -0.0000603301
 NOTE: This scaled ZORA energy correction should only be used to compare two calculations
 in which the only difference in the calculation is the electron configuration.
 Then the difference in energy of this term should be added to the difference in energy of
 the two electron configurations.
 This term should not be used otherwise.
 In practice it is useful only for core excitation energy calculations.



 =========================================
 F R A G M E N T   E N E R G Y   T E R M S  ***  (summed over all fragments)  ***
 =========================================
  

The energy terms below are (parts of) the Total Energy of the fragments from which the molecule
 is built.

Exchange and Correlation
  Exchange LDA:                        -21.203355221367641       -576.9727        -13305.31        -55669.40
  Exchange GGA:                         -2.702188168279201        -73.5303         -1695.65         -7094.59
  Correlation LDA:                       0.000000000000000          0.0000             0.00             0.00
  Correlation GGA:                      -0.854785898642836        -23.2599          -536.39         -2244.24
                                      --------------------     -----------       ----------      -----------
  Total XC:                            -24.760329288289679       -673.7628        -15537.34        -65008.24
1



 =======================================================
 S F O   P O P U L A T I O N S ,   M O   A N A L Y S I S
 =======================================================
  
 A Mulliken population analysis is performed on (input-)selected MOs. All populations refer to SFOs.
 BAS populations may have been printed directly after the SCF part.


                                       === A ===


 SFO contributions (%) per orbital
 (multiplication by the orbital occupation yields the SFO Gross Populations)

 Orb.:        6      7      8      9     10     11     12     13     14     15     16     17     18     19
 occup:     2.00   2.00   2.00   2.00   2.00   2.00   2.00   2.00   2.00   2.00   0.00   0.00   0.00   0.00
 CF+SFO     ----   ----   ----   ----   ----   ----   ----   ----   ----   ----   ----   ----   ----   ----
 ------
      2:   38.56   4.77   9.78  -0.02   0.41  -0.05   0.00   0.11  -0.00   1.86   0.00  -0.53   0.00   1.33
      3:   -0.68   0.11   0.47  -0.02   0.04  -0.03  -0.00  -0.10   0.00  -0.70  -0.00  -1.29   0.00  -1.70
      6:    0.07  10.04   3.64  16.52   0.27   0.87   0.00   3.59   0.00   6.14   0.00  -0.38   0.00  -1.59
      7:   -0.04  -1.20  -0.76   0.55   0.45   0.20  -0.00   1.58  -0.00   0.40   0.00  -1.84  -0.00  -8.18
      9:    2.70   1.88   6.20  -0.09  16.01   5.45   0.00   7.92  -0.00  -0.00  -0.00  -1.22  -0.00  -0.73
     10:   -0.50  -0.88  -2.23  -0.11   1.85   0.99   0.00   2.20  -0.00   0.12  -0.00  -2.54  -0.00 -12.80
     12:    0.00  -0.00   0.00   0.00   0.00   0.00  11.70   0.00  36.52   0.00  12.21   0.00  41.13   0.00
     13:    0.00  -0.00   0.00   0.00  -0.00  -0.00  -0.56   0.00  -0.18   0.00  -0.74  -0.00 -11.47  -0.00
     28:   29.78  21.68   2.25   0.14  -0.05   0.01   0.00   0.01   0.00   0.08   0.00   1.66   0.00  -0.07
     29:   -0.90   0.56   0.05   0.00  -0.26  -0.32  -0.00  -0.11  -0.00  -0.01   0.00  -9.54  -0.00   0.03
     32:    1.41   0.99   0.42   5.40  18.27   4.92   0.00   5.82  -0.00   0.32   0.00   0.38   0.00   0.16
     33:   -0.20  -1.20  -0.06   0.21   0.88   1.54   0.00  -0.04  -0.00  -0.09   0.00  -3.25  -0.00 -11.13
     35:    2.74   0.04   8.36  10.64   6.40   2.83   0.00   8.13  -0.00   0.32   0.00   0.89  -0.00  -0.99
     36:   -0.34  -0.74  -1.09   0.51   1.40   0.42   0.00   1.54  -0.00   0.06  -0.00  -3.26  -0.00  -6.86
     38:   -0.00  -0.00  -0.00   0.00   0.00   0.00   3.17   0.00  41.03   0.00  36.34   0.00  16.55   0.00
     39:   -0.00  -0.00  -0.00  -0.00  -0.00  -0.00  -0.28  -0.00  -0.37  -0.00  -1.47   0.00   1.50   0.00
     54:    5.35  18.17   8.47   0.30   1.75   0.18  -0.00   0.74   0.00  -0.07  -0.00   0.09   0.00   0.54
     55:   -0.33   0.26   0.40   0.01   0.36   0.62   0.00  -0.36   0.00  -0.05   0.00  -1.84  -0.00  -0.95
     58:    5.58   5.61   1.98  13.06   0.05   0.86   0.00   6.08  -0.00   0.58   0.00  -0.35   0.00  -1.13
     59:   -1.43   0.35  -0.79   2.37  -0.47   0.99   0.00   1.49  -0.00   1.02   0.00  -0.93  -0.00  -7.87
     61:    1.69   1.68   9.56   3.68   3.27   7.56   0.00   0.16   0.00   0.58  -0.00   0.10  -0.00  -0.26
     62:   -0.13   0.46  -1.62   0.43   0.86   4.74   0.00  -0.03   0.00   0.02   0.00   3.11   0.00  -6.22
     64:    0.00   0.00   0.00   0.00   0.00   0.00  36.10   0.00  -0.05   0.00  26.27   0.00  37.95   0.00
     65:   -0.00   0.00   0.00  -0.00  -0.00  -0.00  -0.75  -0.00   0.11   0.00  -0.31  -0.00  -3.23  -0.00
     68:    0.13   0.09   0.02  -0.01   0.00  -0.01  -0.00  -0.00   0.00   2.27   0.00   0.00   0.00   0.01
     79:    4.71   6.54   8.80  16.05   0.38  -0.12   0.00  20.04  -0.00   0.18   0.00  13.14   0.00  14.79
     80:   -0.54   0.22   0.10  -0.56  -0.09  -0.24  -0.00   0.18  -0.00  -0.01   0.00  30.46   0.00  14.96
     84:    0.00   0.00   0.00   0.00   0.00   0.00   0.08   0.00   0.98   0.00   1.09   0.00   1.45   0.00
     90:    4.15   1.49  18.46   1.93   3.36   3.15   0.00  20.91   0.00   0.65   0.00  -1.73   0.00  34.00
     91:   -0.64  -0.02  -0.06   0.15   0.05  -0.12  -0.00   0.48   0.00  -0.06   0.00   1.75   0.00  26.34
     95:   -0.00   0.00  -0.00  -0.00   0.00   0.00   0.19   0.00   0.65   0.00   0.26   0.00   2.23   0.00
    101:    3.90  12.41   0.62   2.97  19.21   6.23   0.00  11.68  -0.00   0.64  -0.00  26.30   0.00   8.91
    102:   -0.59   0.06   0.03  -0.02   0.28   0.01   0.00  -0.71  -0.00  -0.09   0.00  47.18   0.00  10.11
    103:   -0.07  -0.19  -0.00   0.00   0.09   0.03   0.00  -0.00  -0.00   0.00   0.00  -1.45   0.00   0.22
    104:    0.73   1.10   0.08  -0.05   0.17  -0.05  -0.00  -0.23  -0.00  -0.02   0.00   1.22   0.00   0.06
    106:   -0.00   0.00   0.00   0.00   0.00   0.00   0.05   0.00   0.94   0.00   1.59   0.00   0.26  -0.00
    112:    0.75   5.95  18.14  11.54   0.94   6.94   0.00   1.59   0.00  13.62   0.00  -1.51   0.00  21.04
    113:   -0.42   0.07   0.21  -0.19  -0.02  -0.02   0.00  -0.09  -0.00  -0.25   0.00   2.33   0.00  22.54
    117:    0.00  -0.00  -0.00   0.00   0.00   0.00   0.63   0.00   0.01   0.00   0.92   0.00   2.95   0.00
    124:    2.01   5.91   2.13   0.84   6.79   8.75   0.00   0.12   0.00   0.00   0.00  -0.00  -0.00  -0.00
    128:    0.09   1.07   0.35   3.75  10.40  14.62   0.00   2.25  -0.00  51.45   0.00  -0.01   0.00   0.26
    131:   -0.04   0.76   4.16   8.45   5.91  27.23   0.00   3.70   0.00  21.06   0.00   0.41   0.00   0.16
[...]
    7       2          4       0.25227086D-03
    7       2          5       0.63045872D-04
    7       2          6       0.82728293D-05
*** CPKS converged.
----------------------------------------------
    7       3          1       0.52291774D-02
    7       3          2       0.50266795D-03
    7       3          3       0.16051952D-03
    7       3          4       0.13756042D-04
    7       3          5       0.30077230D-05
*** CPKS converged.
----------------------------------------------

====================  end of solving CPKS equations  ====================

==========================
###### NUCLEUS:     8  H  
==========================

====================  solving CPKS equations  ====================

NUCLEUS  COORD.    ITERATION   ACCURACY
-------  ------    ---------   --------
    8       1          1       0.13826249D-01
    8       1          2       0.33881083D-02
    8       1          3       0.18752415D-02
    8       1          4       0.34316316D-03
    8       1          5       0.14976770D-03
    8       1          6       0.11008413D-04
    8       1          7       0.22133069D-05
*** CPKS converged.
----------------------------------------------
    8       2          1       0.38080221D-01
    8       2          2       0.52226357D-02
    8       2          3       0.17291990D-02
    8       2          4       0.59908085D-03
    8       2          5       0.18075003D-03
    8       2          6       0.23206360D-04
    8       2          7       0.45659458D-05
*** CPKS converged.
----------------------------------------------
    8       3          1       0.12374843D-01
    8       3          2       0.13165440D-02
    8       3          3       0.63324716D-04
    8       3          4       0.10815034D-04
    8       3          5       0.87581639D-06
*** CPKS converged.
----------------------------------------------

====================  end of solving CPKS equations  ====================

==========================
###### NUCLEUS:     6  O  
==========================

====================  solving CPKS equations  ====================

NUCLEUS  COORD.    ITERATION   ACCURACY
-------  ------    ---------   --------
    6       1          1       0.56895592D-01
    6       1          2       0.86171405D-02
    6       1          3       0.15581980D-02
    6       1          4       0.12104433D-02
    6       1          5       0.14817046D-03
    6       1          6       0.34378244D-04
    6       1          7       0.48591075D-05
*** CPKS converged.
----------------------------------------------
    6       2          1       0.83794313D-01
    6       2          2       0.94500140D-02
    6       2          3       0.27959634D-02
    6       2          4       0.14918958D-02
    6       2          5       0.19155924D-03
    6       2          6       0.55731836D-04
    6       2          7       0.70841635D-05
*** CPKS converged.
----------------------------------------------
    6       3          1       0.12156617D-01
    6       3          2       0.94563888D-03
    6       3          3       0.99269290D-04
    6       3          4       0.22550802D-04
    6       3          5       0.31341765D-05
*** CPKS converged.
----------------------------------------------

====================  end of solving CPKS equations  ====================


====================================================================
*** DONE CALCULATING ANALYTICAL SECOND DERIVATIVES OF THE ENERGY ***
====================================================================

 Mulliken charges used for AMS results%charges...
Scanning modes in range provided by user.


    =====================
     CALCULATION RESULTS
    =====================

Energy (hartree)            -1.68728197

Gradients (hartree/bohr)
  Index   Atom            d/dx            d/dy            d/dz
      1      C    0.0000415904    0.0000015270   -0.0000000000
      2      C   -0.0001613628    0.0000380721   -0.0000000000
      3      H   -0.0000201986    0.0000000442   -0.0000000000
      4      C    0.0002505150   -0.0004478606   -0.0000000000
      5      H   -0.0000221580   -0.0000288686   -0.0000000000
      6      O   -0.0002854349    0.0004075377    0.0000000000
      7      H    0.0002401219   -0.0000291593   -0.0000000000
      8      H   -0.0000430731    0.0000587076    0.0000000000

 Symmetry: C(S)

 -----------------------
 Normal Mode Frequencies
 -----------------------

 Index   Frequency (cm-1)   Intensity (km/mol)   Irrep
     7           162.4282               3.9211     A''
     8           313.5075               8.2701      A'
     9           558.0108               3.6548      A'
    10           589.6843               9.6222     A''
    11           898.2343              21.8687      A'
    12           973.6983              31.9236     A''
    13           995.7399               5.8096     A''
    14          1012.5785              12.9977     A''
    15          1142.3161              38.3168      A'
    16          1267.8987               2.3457      A'
    17          1352.4768               6.0483      A'
    18          1418.7508              10.0453      A'
    19          1630.3989               2.4276      A'
    20          1717.0649             236.7035      A'
    21          2815.6378             108.6187      A'
    22          3091.3471               5.4299      A'
    23          3127.9687               2.3079      A'
    24          3184.8914               6.0162      A'

 Zero-point energy (Hartree):     0.0598

 ------------
 Normal Modes
 ------------

 Number of removed rigid normal modes: 6
 
 Mode:     7      Frequency (cm-1):      162.4282     Intensity (km/mol):        3.9211     Irrep: A''
 Index  Atom      ---- Displacements (x/y/z) ----
     1     C       0.000000   0.000000  -0.237192
     2     C      -0.000000  -0.000000   0.192432
     3     H      -0.000000   0.000000   0.364355
     4     C       0.000000   0.000000  -0.242316
     5     H       0.000000   0.000000  -0.336546
     6     O      -0.000000  -0.000000   0.224925
     7     H      -0.000000  -0.000000   0.427666
     8     H       0.000000  -0.000000  -0.607030
 
 Mode:     8      Frequency (cm-1):      313.5075     Intensity (km/mol):        8.2701     Irrep: A'
 Index  Atom      ---- Displacements (x/y/z) ----
     1     C      -0.166668  -0.157381  -0.000000
     2     C       0.175521   0.038951   0.000000
     3     H       0.553949  -0.169797  -0.000000
     4     C      -0.160753  -0.065513  -0.000000
     5     H      -0.324911  -0.069815  -0.000000
     6     O       0.111948   0.120195   0.000000
     7     H       0.193836   0.467435   0.000000
     8     H      -0.390918   0.054764   0.000000
 
 Mode:     9      Frequency (cm-1):      558.0108     Intensity (km/mol):        3.6548     Irrep: A'
 Index  Atom      ---- Displacements (x/y/z) ----
     1     C      -0.153764   0.153172   0.000000
     2     C      -0.219221   0.187789  -0.000000
     3     H      -0.434019   0.308905   0.000000
     4     C       0.024392  -0.252167  -0.000000
     5     H      -0.453385   0.302732  -0.000000
     6     O       0.334858  -0.089677  -0.000000
     7     H      -0.233911  -0.029224  -0.000000
     8     H      -0.042487  -0.216434  -0.000000
 
 Mode:    10      Frequency (cm-1):      589.6843     Intensity (km/mol):        9.6222     Irrep: A''
 Index  Atom      ---- Displacements (x/y/z) ----
     1     C      -0.000000   0.000000  -0.119941
     2     C      -0.000000   0.000000   0.014847
     3     H      -0.000000   0.000000  -0.503576
     4     C       0.000000  -0.000000   0.027223
     5     H      -0.000000   0.000000   0.342401
     6     O       0.000000  -0.000000  -0.000108
     7     H      -0.000000  -0.000000   0.644248
     8     H      -0.000000  -0.000000   0.445836
 
 Mode:    11      Frequency (cm-1):      898.2343     Intensity (km/mol):       21.8687     Irrep: A'
 Index  Atom      ---- Displacements (x/y/z) ----
     1     C       0.093551   0.018049  -0.000000
     2     C       0.133561   0.008173  -0.000000
     3     H      -0.435117   0.311451   0.000000
     4     C      -0.143557  -0.059788   0.000000
     5     H      -0.212104   0.187348   0.000000
     6     O      -0.011140   0.037396  -0.000000
     7     H       0.106700  -0.701707   0.000000
     8     H      -0.277552   0.009075  -0.000000
 
 Mode:    12      Frequency (cm-1):      973.6983     Intensity (km/mol):       31.9236     Irrep: A''
 Index  Atom      ---- Displacements (x/y/z) ----
     1     C      -0.000000  -0.000000   0.016480
     2     C      -0.000000   0.000000  -0.158024
     3     H       0.000000  -0.000000   0.700184
     4     C       0.000000   0.000000   0.050199
     5     H       0.000000  -0.000000   0.127339
     6     O       0.000000  -0.000000  -0.013791
     7     H      -0.000000   0.000000   0.658336
     8     H       0.000000  -0.000000  -0.179354
 
 Mode:    13      Frequency (cm-1):      995.7399     Intensity (km/mol):        5.8096     Irrep: A''
 Index  Atom      ---- Displacements (x/y/z) ----
     1     C      -0.000000  -0.000000  -0.156355
     2     C      -0.000000  -0.000000   0.061857
     3     H       0.000000  -0.000000   0.072476
     4     C       0.000000   0.000000   0.165803
     5     H       0.000000  -0.000000   0.671183
     6     O      -0.000000   0.000000  -0.041214
     7     H       0.000000   0.000000  -0.317070
     8     H       0.000000  -0.000000  -0.621502
 
 Mode:    14      Frequency (cm-1):     1012.5785     Intensity (km/mol):       12.9977     Irrep: A''
 Index  Atom      ---- Displacements (x/y/z) ----
     1     C       0.000000   0.000000   0.017893
     2     C      -0.000000   0.000000   0.001683
     3     H      -0.000000  -0.000000  -0.444992
     4     C      -0.000000  -0.000000   0.125527
     5     H       0.000000   0.000000  -0.632955
     6     O       0.000000   0.000000  -0.028502
     7     H      -0.000000  -0.000000   0.328472
     8     H      -0.000000  -0.000000  -0.525893
 
 Mode:    15      Frequency (cm-1):     1142.3161     Intensity (km/mol):       38.3168     Irrep: A'
 Index  Atom      ---- Displacements (x/y/z) ----
     1     C       0.166785   0.107484  -0.000000
     2     C      -0.075227   0.000736  -0.000000
     3     H       0.230059  -0.160682   0.000000
     4     C      -0.199417  -0.108641   0.000000
     5     H       0.782006  -0.217854   0.000000
     6     O       0.036392   0.010871  -0.000000
     7     H      -0.058392   0.302413  -0.000000
     8     H      -0.246985  -0.091402  -0.000000
 
 Mode:    16      Frequency (cm-1):     1267.8987     Intensity (km/mol):        2.3457     Irrep: A'
 Index  Atom      ---- Displacements (x/y/z) ----
     1     C      -0.105669  -0.099099   0.000000
     2     C       0.049179   0.123170   0.000000
     3     H      -0.361128   0.352562  -0.000000
     4     C       0.008954   0.013813  -0.000000
     5     H       0.642146  -0.514823  -0.000000
     6     O       0.008766  -0.008333  -0.000000
     7     H       0.027547  -0.108996   0.000000
     8     H       0.118309  -0.047577   0.000000
 
 Mode:    17      Frequency (cm-1):     1352.4768     Intensity (km/mol):        6.0483     Irrep: A'
 Index  Atom      ---- Displacements (x/y/z) ----
     1     C       0.060586  -0.053396   0.000000
     2     C      -0.021250   0.020921  -0.000000
     3     H      -0.269864   0.176189   0.000000
     4     C       0.059588   0.029839   0.000000
     5     H      -0.051875   0.001166  -0.000000
     6     O      -0.006073  -0.060231   0.000000
     7     H      -0.020489   0.366286   0.000000
     8     H      -0.739261   0.443655  -0.000000
 
 Mode:    18      Frequency (cm-1):     1418.7508     Intensity (km/mol):       10.0453     Irrep: A'
 Index  Atom      ---- Displacements (x/y/z) ----
     1     C       0.082282  -0.067877   0.000000
     2     C       0.001834  -0.032499   0.000000
     3     H      -0.488431   0.253944  -0.000000
     4     C      -0.044004  -0.026155  -0.000000
     5     H      -0.200876   0.082280  -0.000000
     6     O      -0.012858   0.051614  -0.000000
     7     H       0.010550   0.626131   0.000000
     8     H       0.405218  -0.274930   0.000000
 
 Mode:    19      Frequency (cm-1):     1630.3989     Intensity (km/mol):        2.4276     Irrep: A'
 Index  Atom      ---- Displacements (x/y/z) ----
     1     C      -0.236168   0.299275   0.000000
     2     C       0.194382  -0.310514   0.000000
     3     H      -0.556832   0.071293  -0.000000
     4     C      -0.002785   0.022904   0.000000
     5     H       0.359837   0.029504  -0.000000
     6     O       0.038347  -0.047821   0.000000
     7     H       0.257199   0.418737   0.000000
     8     H      -0.138101   0.100524   0.000000
 
 Mode:    20      Frequency (cm-1):     1717.0649     Intensity (km/mol):      236.7035     Irrep: A'
 Index  Atom      ---- Displacements (x/y/z) ----
     1     C       0.050439  -0.071087  -0.000000
     2     C       0.000581   0.013953   0.000000
     3     H       0.025450  -0.012505  -0.000000
     4     C      -0.407764   0.559810   0.000000
     5     H      -0.247704   0.113915  -0.000000
     6     O       0.251696  -0.384744  -0.000000
     7     H       0.000579  -0.005342  -0.000000
     8     H       0.474750   0.024818  -0.000000
 
 Mode:    21      Frequency (cm-1):     2815.6378     Intensity (km/mol):      108.6187     Irrep: A'
 Index  Atom      ---- Displacements (x/y/z) ----
     1     C       0.002512  -0.001052   0.000000
     2     C      -0.000491   0.001117  -0.000000
     3     H      -0.010855  -0.006133   0.000000
     4     C      -0.042547  -0.070668  -0.000000
     5     H      -0.005268  -0.010166  -0.000000
     6     O       0.001810  -0.001914   0.000000
     7     H       0.004013   0.006567  -0.000000
     8     H       0.465919   0.880769  -0.000000
 
 Mode:    22      Frequency (cm-1):     3091.3471     Intensity (km/mol):        5.4299     Irrep: A'
 Index  Atom      ---- Displacements (x/y/z) ----
     1     C      -0.007985  -0.002891  -0.000000
     2     C       0.022774  -0.063039   0.000000
     3     H       0.386006   0.677144  -0.000000
     4     C      -0.001605  -0.000295   0.000000
     5     H       0.054089   0.099115  -0.000000
     6     O       0.000457  -0.000349  -0.000000
     7     H      -0.612319   0.008267   0.000000
     8     H       0.007995   0.009541   0.000000
 
 Mode:    23      Frequency (cm-1):     3127.9687     Intensity (km/mol):        2.3079     Irrep: A'
 Index  Atom      ---- Displacements (x/y/z) ----
     1     C      -0.037484  -0.077010   0.000000
     2     C       0.009173   0.018317  -0.000000
     3     H      -0.088938  -0.157875   0.000000
     4     C       0.002004  -0.002137  -0.000000
     5     H       0.464505   0.860312   0.000000
     6     O      -0.000483   0.000734   0.000000
     7     H      -0.058467   0.002346   0.000000
     8     H       0.003799   0.007864  -0.000000
 
 Mode:    24      Frequency (cm-1):     3184.8914     Intensity (km/mol):        6.0162     Irrep: A'
 Index  Atom      ---- Displacements (x/y/z) ----
     1     C      -0.006169  -0.014387   0.000000
     2     C      -0.090020  -0.038200   0.000000
     3     H       0.277511   0.518675  -0.000000
     4     C       0.000207  -0.000230  -0.000000
     5     H       0.074168   0.139854   0.000000
     6     O      -0.000007   0.000039  -0.000000
     7     H       0.786105  -0.033170  -0.000000
     8     H       0.005178   0.002902   0.000000

PES point character: Geometry corresponds to a local minimum on the PES.




 ============================
 Statistical Thermal Analysis  ***  ideal gas assumed  ***
 ============================
  
 Pressure:                  1.000000 atm.
 Temperature:             298.150000 K



 Moments of Inertia [amu*bohr^2] and principal axis
 ==================================================

          37.4938        392.1101        429.6038
 ------------------------------------------------
          -0.8244          0.5660          0.0000
           0.5660          0.8244          0.0000
           0.0000          0.0000          1.0000


 The rotational contribution to the molecular entropy includes
 a term, dependent on the symmetry number sigma. The results 
 reported below were computed using sigma = 1, determined from
 the point group symmetry of the input geometry (C(S)). 
 If this is not the correct symmetry, try symmetrizing the molecule before
 running the calculation (note: linear molecules should be aligned along one
 of the Cartesian axes).
 Contributions from frequencies below 20 1/cm are not included in vibrational sums.
 Their contributions, if any, are reported separately.


     Temp                                                        Transl      Rotat     Vibrat     Total
     ----                                                        ------      -----     ------     -----

     298.15   Entropy (cal/mol-K):                               37.991     23.361      5.423     66.775
              Nuclear Internal Energy (kcal/mol):                 0.889      0.889     38.533     40.310
              Constant Volume Heat Capacity (cal/mol-K):          2.981      2.981      8.083     14.045
          (c) Constant Volume Heat Capacity (cal/mol-K):          2.981      2.981      7.965     13.926

       Summary of energy terms
                                                   hartree              eV         kcal/mol           kJ/mol
                                      --------------------     -----------       ----------      -----------
      Energy from Engine:               -1.687281965327699        -45.9133         -1058.79         -4429.96
      Nuclear Internal Energy:           0.064238599288814          1.7480            40.31           168.66
  (c) Nuclear Internal Energy:           0.064163502625260          1.7460            40.26           168.46
      Internal Energy U:                -1.623043366038885        -44.1653         -1018.48         -4261.30
      pV/n = RT:                         0.000944186013486          0.0257             0.59             2.48
      Enthalpy H:                       -1.622099180025399        -44.1396         -1017.88         -4258.82
      -T*S:                             -0.031727159787511         -0.8633           -19.91           -83.30
  (c) -T*S:                             -0.031720805444358         -0.8632           -19.91           -83.28
      Gibbs free energy:                -1.653826339812910        -45.0029         -1037.79         -4342.12
 
 
 
  (c) The properties marked with this symbol have been corrected using 'low vibrational frequency free rotor
      interpolation corrections'. For those terms all positive frequencies are used (also ones below 20 1/cm),
      but the contribution to the partition function of small vibrational frequencies is modified as described
      in the following paper:
      S. Grimme, 'Supramolecular Binding Thermodynamics by Dispersion-Corrected Density Functional Theory'
      (Chem. Eur. J. 2012, 18, 9955-9964)
      Configuration: Dampener Frequency          :   100.000 1/cm
                     Dampener Alpha              :     4.000
                     Averaging Moment of Inertia : 1.000E-44 kg m2

--------------
Atomic charges
--------------
  Index   Atom    Charge
      1      C    0.1914
      2      C    0.4636
      3      H   -0.1933
      4      C    0.6418
      5      H   -0.1604
      6      O   -0.4808
      7      H   -0.2087
      8      H   -0.2537


Dipole moment vector    (Debye):     2.30908200   -2.28807724    0.00000000
              magnitude (Debye):     3.25071640


Final PES point is a local minimum. Geometry optimization successful!


AMS application finished. Exiting.
NORMAL TERMINATION
     Total cpu time:    2596.57
  Total system time:       7.45
 Total elapsed time:    2612.06
