
 *******************************************************************************
 *                                                                             *
 *  --------------------------------                                           *
 *   Amsterdam Modeling Suite (AMS)              2021.102                      *
 *  --------------------------------                                           *
 *                                               r95042 2021-06-07             *
 *                                                                             *
 *                                                                             *
 *                              =================                              *
 *                              |               |                              *
 *                              |     A M S     |                              *
 *                              |               |                              *
 *                              =================                              *
 *                                                                             *
 *                                                                             *
 *   Online information and documentation:  https://www.scm.com/support/       *
 *   E-mail:  support@scm.com   info@scm.com                                   *
 *                                                                             *
 *   Scientific publications using AMS results must be properly referenced     *
 *   See the User Manuals (or the web site) for recommended citations          *
 *   The terms and conditions of the End User License Agreement apply to       *
 *   the use of AMS, https://www.scm.com/license-terms/                        *
 *                                                                             *
 **********************  x86_64_linux_intel / intelmpi  ************************
 
 Licensed to: VU/FEW (+ SARA) / ALGEMEEN / Amsterdam / THE NETHERLANDS
 SCM User ID: u7668
  
 AMS 2021.102  RunTime: Jan20-2022 14:26:59  ShM Nodes: 1  Procs: 1

 AMS jobname: 11.no_catalyst_F_H.TS
 AMS jobid  : 1889885946

 Start   directory: /scistor/tc/yhk800/MasterProject/calculations/no_catalyst_F_H/11.no_catalyst_F_H.TS/
 Results directory: /scistor/tc/yhk800/MasterProject/calculations/no_catalyst_F_H/11.no_catalyst_F_H.TS/
 Scratch directory: /scratch/3544/amstmp_11.no_catalyst_F_H.TS_kid0.1889885946/

 RNG seed: 1952100155 177395330 1591280222 964289358 2083904985 -933287825 1215816349 1693903178



                      ************************************************************************
                      *  ADF 2021.102  RunTime: Jan20-2022 14:26:59  ShM Nodes: 1  Procs: 1  *
                      ************************************************************************
  
       *****************************
       *  TRANSITION STATE SEARCH  *
       *****************************

Optimization Method                    Quasi Newton
Optimization Coordinates               Delocalized Coordinates
Optimize lattice                       F
 
 ------------------------------------------------------
 Convergence criteria (Hartree,Angstrom)
 ------------------------------------------------------
 Maximum gradient               0.001000000000
 Maximum rms gradient           0.000666666667
 Maximum step allowed           0.010000000000
 Maximum rms step allowed       0.006666666667
 Maximum energy change allowe   0.000120000000
 Maximum stress energy allowe   0.000500000000
 
Initial model Hessian                  Automatic Hessian
 
------------------------------------
Quasi-Newton Optimizer Parameters
------------------------------------
Hessian Update Method                  Bofill
Maximum number of steps                  250
First GDIIS cycle                          0
Maximum GDIIS vectors                      0
Trust radius (bohr)                        0.200000
Trust radius varies                        F
Constraints converged at all steps         T
Use projector                              T
 
 Rigid motions settings for: old optimizer
 Atomic rotations (x,y,z):     T T T
 Atomic translations (x,y,z):  T T T
 Tolerance:                   1.000000000000000E-006
 
           1  TSRC entries:
    i   type      a1    a2    a3    a4    coef
    1 Distance     2     3               -1.000
 
--------
Geometry
--------
Formula: C4H6FO
Atoms
  Index Symbol   x (angstrom)   y (angstrom)   z (angstrom)
      1      C     0.81668000    -0.23471900     0.88197500
      2      C     0.81678400    -0.23413100    -0.47719300
      3      C    -1.53160000    -0.46998000    -1.30857600
      4      H     0.85636200    -1.16386700     1.44859300
      5      C     0.73893400     1.00063500     1.66014300
      6      H    -1.75224300    -1.42324600    -0.84366900
      7      H     0.86540100     0.70149500    -1.02879400
      8      H    -1.29572100    -0.45322200    -2.36675600
      9      H    -1.93437200     0.42729600    -0.85485600
     10      O     0.73088900     1.05622100     2.88164900
     11      H     0.99495642    -1.13003362    -1.03443002
     12      F     0.67907420     2.18026153     0.89007934
 
Total System Charge             0.00000
 
 
----------------
ADF Engine Input
----------------
 
 NumericalQuality VeryGood
 SCF
 Converge 1.0e-6
 Iterations 99
 End
 SYMMETRY NOSYM
 SpinPolarization 1.0
 Unrestricted Yes
 XC
 GGA OLYP
 End
 basis
 core None
 type TZ2P
 End
 

 Title: *** (NO TITLE) ***

 Using automatic Hessian for delocalized coordinates.
 *** GOStep1 ***

 Energy gradients wrt nuclear displacements
 ==========================================

     Atom      Cartesian (a.u./angstrom)
                 X         Y         Z
 ----------------------------------------
     1 C     0.000765 -0.017479  0.018973
     2 C     0.002431 -0.015597 -0.004157
     3 C     0.000349 -0.000260 -0.000241
     4 H     0.000296 -0.007807 -0.002929
     5 C     0.000093  0.001747 -0.066713
     6 H    -0.000196  0.000285  0.000048
     7 H     0.000404  0.003763 -0.002460
     8 H    -0.000277 -0.000012 -0.000074
     9 H    -0.000522 -0.000365 -0.000028
    10 O     0.000334 -0.011985  0.069904
    11 H    -0.002760  0.018396  0.007774
    12 F    -0.000917  0.029313 -0.020096
 ----------------------------------------
 Mulliken charges used for AMS results%charges...
           Primitive Internal Coordinates (atoms in internal order)
-------------------------------------------------------------------------------
    index    type      i       j       k       l   value(A,deg)     TSRC Vect
-------------------------------------------------------------------------------
       1     bnd       1       5       0       0     1.46208392    -0.00000000
       2     bnd       1       2       0       0     1.35916813     0.04479268
       3     bnd       3       9       0       0     1.08313958     0.02690305
       4     bnd       1       4       0       0     1.08901177    -0.00000000
       5     bnd       3       6       0       0     1.08329955     0.02663923
       6     bnd       2       7       0       0     1.08720894     0.01630736
       7     bnd       3       8       0       0     1.08428070     0.02926956
       8     bnd       5      10       0       0     1.22279656    -0.00000000
       9     bnd       2      11       0       0     1.07000001     0.01192701
      10     bnd       5      12       0       0     1.41000000    -0.00000000
      11     bnd       2       3       0       0     2.50234487    -0.14439287
      12     bnd       1       3       0       0     3.21998143    -0.08845678
      13     bnd       2       6       0       0     2.85450501    -0.09171576
      14     bnd       2       8       0       0     2.84273224    -0.09097435
      15     bnd       2       9       0       0     2.85464085    -0.09162039
      16     bnd       3       7       0       0     2.68258186    -0.09715668
      17     bnd       3      11       0       0     2.62570260    -0.09970240
      18     ang       5       1       2       0   122.13193049     0.00521399
      19     ang       5       1       4       0   116.48149708    -0.00688352
      20     ang       5       1       3       0   112.64562536     0.00973384
      21     ang       2       1       4       0   121.37727346     0.00158420
      22     ang       2       1       3       0    47.13980479    -0.01996672
      23     ang       4       1       3       0   108.55407601     0.00760328
      24     ang       1       2       7       0   120.51279539    -0.00751574
      25     ang       1       2      11       0   121.36128216    -0.00632428
      26     ang       1       2       3       0   109.39804563     0.00718623
      27     ang       1       2       6       0    97.36189422     0.00046005
      28     ang       1       2       8       0   131.65236189     0.01918542
      29     ang       1       2       9       0    97.60393042     0.00044784
      30     ang       7       2      11       0   116.67222783     0.00524026
      31     ang       7       2       3       0    87.39281970     0.01512433
      32     ang       7       2       6       0   109.48758492     0.02643907
      33     ang       7       2       8       0    76.25016237     0.00886246
      34     ang       7       2       9       0    77.08981866     0.00882184
      35     ang      11       2       3       0    84.51010404     0.01486022
      36     ang      11       2       6       0    74.58595081     0.00884666
      37     ang      11       2       8       0    73.32443789     0.00868490
      38     ang      11       2       9       0   106.59375947     0.02621540
      39     ang       6       2       8       0    38.16371016     0.01972913
      40     ang       6       2       9       0    38.01699289     0.01935327
      41     ang       8       2       9       0    38.16203879     0.01975683
      42     ang       9       3       6       0   118.25885447    -0.00663164
      43     ang       9       3       8       0   118.48323850    -0.00711804
      44     ang       9       3       2       0    97.56929804     0.01622358
      45     ang       9       3       1       0    85.73843521     0.00883083
      46     ang       9       3       7       0    85.80331135     0.00868206
      47     ang       9       3      11       0   121.48827574     0.02839201
      48     ang       6       3       8       0   118.47247906    -0.00706732
      49     ang       6       3       2       0    97.55621160     0.01623869
      50     ang       6       3       1       0    85.46171991     0.00882796
      51     ang       6       3       7       0   121.43376470     0.02854592
      52     ang       6       3      11       0    85.98434689     0.00885558
      53     ang       8       3       2       0    96.81291220     0.01588123
      54     ang       8       3       1       0   120.27444570     0.02866179
      55     ang       8       3       7       0    84.29830723     0.00879637
      56     ang       8       3      11       0    84.05640983     0.00878086
      57     ang       1       3       7       0    41.01789145     0.02117921
      58     ang       1       3      11       0    41.02628758     0.02110946
      59     ang       7       3      11       0    40.45513557     0.02075255
      60     ang       1       5      10       0   124.78014579    -0.00000000
      61     ang       1       5      12       0   114.73739867     0.00000000
      62     ang      10       5      12       0   120.48134630    -0.00000000
      63     ang       3       6       2       0    60.34468769    -0.02755152
      64     ang       2       7       3       0    68.72451165    -0.02742977
      65     ang       3       8       2       0    60.93212808    -0.02788032
      66     ang       3       9       2       0    60.33684884    -0.02757832
      67     ang       2      11       3       0    71.55860906    -0.02702927
      68     dih       2       1       5      10   179.74813341    -0.00792984
      69     dih       2       1       5      12    -0.63506953    -0.00792984
      70     dih       4       1       5      10     0.84367616    -0.00291417
      71     dih       4       1       5      12   180.46047323    -0.00291417
      72     dih       3       1       5      10   127.21624574     0.01084401
      73     dih       3       1       5      12   -53.16695720     0.01084401
      74     dih       5       1       2       7     6.57009342     0.02221798
      75     dih       5       1       2      11   172.35502872    -0.01839394
      76     dih       5       1       2       3   267.85385074     0.00209181
      77     dih       5       1       2       6   248.75690649    -0.00766707
      78     dih       5       1       2       8   267.65479661     0.00202092
      79     dih       5       1       2       9   -72.88759900     0.01191440
      80     dih       4       1       2       7   185.42152053     0.01687134
      81     dih       4       1       2      11    -8.79354417    -0.02374058
      82     dih       4       1       2       3    86.70527785    -0.00325483
      83     dih       4       1       2       6    67.60833360    -0.01301372
      84     dih       4       1       2       8    86.50622373    -0.00332573
      85     dih       4       1       2       9   105.96382811     0.00656776
      86     dih       3       1       2       7    98.71624268     0.02012617
      87     dih       3       1       2      11   264.50117798    -0.02048575
      88     dih       3       1       2       6   -19.09694425    -0.00975888
      89     dih       3       1       2       8    -0.19905413    -0.00007089
      90     dih       3       1       2       9    19.25855026     0.00982259
      91     dih       6       3       9       2   102.82836572     0.02662757
      92     dih       8       3       9       2   257.98018397    -0.02617358
      93     dih       1       3       9       2    20.30570963     0.01068283
      94     dih       7       3       9       2   -20.82918846    -0.01007666
      95     dih      11       3       9       2    -0.82262789    -0.00035798
      96     dih       9       3       6       2   257.16400671    -0.02661896
      97     dih       8       3       6       2   102.00948582     0.02618919
      98     dih       1       3       6       2   -20.14929510    -0.01064504
      99     dih       7       3       6       2     0.52968161     0.00012654
     100     dih      11       3       6       2    20.99355189     0.01003677
     101     dih       1       2       7       3   248.95626953    -0.01638682
     102     dih      11       2       7       3    82.52763162     0.02387965
     103     dih       6       2       7       3     0.44547776     0.00004405
     104     dih       8       2       7       3    19.49721097     0.00980451
     105     dih       9       2       7       3   -19.75505464    -0.00907959
     106     dih       9       3       8       2   102.45974316     0.02639111
     107     dih       6       3       8       2   257.55808319    -0.02641483
     108     dih       1       3       8       2    -0.18104675    -0.00006382
     109     dih       7       3       8       2    20.38290605     0.01019953
     110     dih      11       3       8       2   -20.29058747    -0.01001133
     111     dih       1       2      11       3   109.40048384     0.01684084
     112     dih       7       2      11       3   -84.29422306    -0.02394593
     113     dih       6       2      11       3    20.10982482     0.00907258
     114     dih       8       2      11       3   -19.64380594    -0.00974187
     115     dih       9       2      11       3    -0.67870888    -0.00018841
     116     dih       1       2       3       9    60.36685908     0.00014480
     117     dih       1       2       3       6   -59.59533627    -0.00045332
     118     dih       1       2       3       8   180.39271465    -0.00017808
     119     dih       1       2       3       7   121.52101014    -0.00106815
     120     dih       1       2       3      11   238.63730914     0.00074508
     121     dih       7       2       3       9   -61.15415106     0.00121295
     122     dih       7       2       3       6   178.88365359     0.00061483
     123     dih       7       2       3       8    58.87170451     0.00089007
     124     dih       7       2       3       1   238.47898986     0.00106815
     125     dih       7       2       3      11   117.11629900     0.00181323
     126     dih      11       2       3       9   181.72954994    -0.00060028
     127     dih      11       2       3       6    61.76735459    -0.00119840
     128     dih      11       2       3       8   -58.24459449    -0.00092316
     129     dih      11       2       3       1   121.36269086    -0.00074508
     130     dih      11       2       3       7   242.88370100    -0.00181323
     131     dih       6       2       3       9   119.96219535     0.00059812
     132     dih       6       2       3       8   239.98805092     0.00027524
     133     dih       6       2       3       1    59.59533627     0.00045332
     134     dih       6       2       3       7   181.11634641    -0.00061483
     135     dih       6       2       3      11   -61.76735459     0.00119840
     136     dih       8       2       3       9   239.97414443     0.00032288
     137     dih       8       2       3       6   120.01194908    -0.00027524
     138     dih       8       2       3       1   179.60728535     0.00017808
     139     dih       8       2       3       7   -58.87170451    -0.00089007
     140     dih       8       2       3      11    58.24459449     0.00092316
     141     dih       9       2       3       6   240.03780465    -0.00059812
     142     dih       9       2       3       8   120.02585557    -0.00032288
     143     dih       9       2       3       1   -60.36685908    -0.00014480
     144     dih       9       2       3       7    61.15415106    -0.00121295
     145     dih       9       2       3      11   178.27045006     0.00060028
     146     dih       5       1       3       9    -6.70885435    -0.00667420
     147     dih       5       1       3       6   234.46351100     0.00233166
     148     dih       5       1       3       8   113.97123608    -0.00207422
     149     dih       5       1       3       2   113.51971531    -0.00198637
     150     dih       5       1       3       7    81.79279287    -0.00452005
     151     dih       5       1       3      11   145.36861586     0.00025840
     152     dih       2       1       3       9   239.77143035    -0.00468782
     153     dih       2       1       3       6   120.94379569     0.00431803
     154     dih       2       1       3       8     0.45152078    -0.00008785
     155     dih       2       1       3       7   -31.72692244    -0.00253368
     156     dih       2       1       3      11    31.84890055     0.00224478
     157     dih       4       1       3       9   123.80841936    -0.00181578
     158     dih       4       1       3       6     4.98078471     0.00719008
     159     dih       4       1       3       8   244.48850980     0.00278420
     160     dih       4       1       3       2   244.03698902     0.00287205
     161     dih       4       1       3       7   212.31006658     0.00033837
     162     dih       4       1       3      11   -84.11411043     0.00511682
     163     dih       1       2       6       3   124.88764731     0.00316217
     164     dih       7       2       6       3    -1.18296723     0.00044411
     165     dih      11       2       6       3   245.46600317    -0.00362440
     166     dih       8       2       6       3   -32.05539858    -0.00274125
     167     dih       9       2       6       3    31.94330304     0.00179020
     168     dih       1       2       8       3     0.49575478    -0.00009904
     169     dih       7       2       8       3   241.68513846    -0.00174912
     170     dih      11       2       8       3   117.92511051     0.00113566
     171     dih       6       2       8       3    31.81706571     0.00180946
     172     dih       9       2       8       3   -31.80538315    -0.00187154
     173     dih       1       2       9       3   235.80616395    -0.00351500
     174     dih       7       2       9       3   116.14173452     0.00407809
     175     dih      11       2       9       3     1.79645291    -0.00033370
     176     dih       6       2       9       3   -31.95136330    -0.00172181
     177     dih       8       2       9       3    32.05169900     0.00273514
     178     dih       9       3       7       2   119.46891254     0.00612504
     179     dih       6       3       7       2    -1.29702339     0.00036811
     180     dih       8       3       7       2   238.67074179    -0.00367677
     181     dih       1       3       7       2    31.14063561     0.00347590
     182     dih      11       3       7       2   -33.81065462    -0.00144349
     183     dih       9       3      11       2     2.01064384    -0.00016307
     184     dih       6       3      11       2   241.10811001    -0.00619594
     185     dih       8       3      11       2   121.91193176     0.00359725
     186     dih       1       3      11       2   -31.19334464    -0.00341436
     187     dih       7       3      11       2    33.73730423     0.00168721
Hessian eigenvector     1(     0.004) has overlap with TSRC:    0.37271E-04
Hessian eigenvector     2(     0.008) has overlap with TSRC:    0.84449E-04
Hessian eigenvector     3(     0.009) has overlap with TSRC:    0.62996E-04
Hessian eigenvector     4(     0.009) has overlap with TSRC:    0.42479E-02
Hessian eigenvector     5(     0.010) has overlap with TSRC:    0.52963E-02
Hessian eigenvector     6(     0.020) has overlap with TSRC:    0.11492E+00
Hessian eigenvector     7(     0.021) has overlap with TSRC:    0.31713E-01
Hessian eigenvector     8(     0.024) has overlap with TSRC:    0.27267E-01
Hessian eigenvector     9(     0.024) has overlap with TSRC:    0.97652E-02
Hessian eigenvector    10(     0.032) has overlap with TSRC:    0.12558E+00
Hessian eigenvector    11(     0.048) has overlap with TSRC:    0.89405E-02
Hessian eigenvector    12(     0.055) has overlap with TSRC:    0.56084E-02
Hessian eigenvector    13(     0.062) has overlap with TSRC:    0.39033E-02
Hessian eigenvector    14(     0.063) has overlap with TSRC:    0.14582E-02
Hessian eigenvector    15(     0.067) has overlap with TSRC:    0.35345E-01
Hessian eigenvector    16(     0.073) has overlap with TSRC:    0.35163E-01
Hessian eigenvector    17(     0.094) has overlap with TSRC:    0.25095E+00
Hessian eigenvector    18(     0.105) has overlap with TSRC:    0.37098E-01
Hessian eigenvector    19(     0.232) has overlap with TSRC:    0.25499E-08
Hessian eigenvector    20(     0.253) has overlap with TSRC:    0.66462E-10
Hessian eigenvector    21(     0.361) has overlap with TSRC:    0.14489E-04
Hessian eigenvector    22(     0.365) has overlap with TSRC:    0.12730E-01
Hessian eigenvector    23(     0.375) has overlap with TSRC:    0.23695E-01
Hessian eigenvector    24(     0.380) has overlap with TSRC:    0.22613E-01
Hessian eigenvector    25(     0.382) has overlap with TSRC:    0.21374E-01
Hessian eigenvector    26(     0.420) has overlap with TSRC:    0.50735E-01
Hessian eigenvector    27(     0.500) has overlap with TSRC:    0.16969E-14
Hessian eigenvector    28(     0.526) has overlap with TSRC:    0.18215E-16
Hessian eigenvector    29(     0.528) has overlap with TSRC:    0.22072E-15
Hessian eigenvector    30(     0.601) has overlap with TSRC:    0.34239E-15
Hessian eigenvector    17 has the largest overlap with TSRC:  0.25095
           Primitive Internal Coordinates (atoms in internal order)
-------------------------------------------------------------------------------
    index    type      i       j       k       l   value(A,deg)     Max Ovl Vect
-------------------------------------------------------------------------------
       1     bnd       1       5       0       0     1.46208392     0.00000000
       2     bnd       1       2       0       0     1.35916813    -0.04692353
       3     bnd       3       9       0       0     1.08313958    -0.00936941
       4     bnd       1       4       0       0     1.08901177    -0.00000000
       5     bnd       3       6       0       0     1.08329955    -0.00908762
       6     bnd       2       7       0       0     1.08720894    -0.01260200
       7     bnd       3       8       0       0     1.08428070    -0.00677567
       8     bnd       5      10       0       0     1.22279656     0.00000000
       9     bnd       2      11       0       0     1.07000001    -0.01288904
      10     bnd       5      12       0       0     1.41000000     0.00000000
      11     bnd       2       3       0       0     2.50234487     0.35490169
      12     bnd       1       3       0       0     3.21998143     0.43073442
      13     bnd       2       6       0       0     2.85450501     0.32219832
      14     bnd       2       8       0       0     2.84273224     0.33795777
      15     bnd       2       9       0       0     2.85464085     0.32394916
      16     bnd       3       7       0       0     2.68258186     0.31488190
      17     bnd       3      11       0       0     2.62570260     0.31992501
      18     ang       5       1       2       0   122.13193049    -0.05350715
      19     ang       5       1       4       0   116.48149708     0.13136770
      20     ang       5       1       3       0   112.64562536    -0.03680025
      21     ang       2       1       4       0   121.37727346    -0.07861714
      22     ang       2       1       3       0    47.13980479    -0.02303494
      23     ang       4       1       3       0   108.55407601    -0.05653466
      24     ang       1       2       7       0   120.51279539    -0.01554268
      25     ang       1       2      11       0   121.36128216    -0.00809628
      26     ang       1       2       3       0   109.39804563     0.07281641
      27     ang       1       2       6       0    97.36189422     0.08478483
      28     ang       1       2       8       0   131.65236189     0.04537820
      29     ang       1       2       9       0    97.60393042     0.08331313
      30     ang       7       2      11       0   116.67222783     0.00668458
      31     ang       7       2       3       0    87.39281970    -0.00264256
      32     ang       7       2       6       0   109.48758492    -0.02861009
      33     ang       7       2       8       0    76.25016237     0.01172478
      34     ang       7       2       9       0    77.08981866     0.00727487
      35     ang      11       2       3       0    84.51010404    -0.00020303
      36     ang      11       2       6       0    74.58595081     0.00893827
      37     ang      11       2       8       0    73.32443789     0.01384161
      38     ang      11       2       9       0   106.59375947    -0.02639632
      39     ang       6       2       8       0    38.16371016    -0.04561674
      40     ang       6       2       9       0    38.01699289    -0.04370059
      41     ang       8       2       9       0    38.16203879    -0.04589798
      42     ang       9       3       6       0   118.25885447     0.00325220
      43     ang       9       3       8       0   118.48323850    -0.00317852
      44     ang       9       3       2       0    97.56929804    -0.00014327
      45     ang       9       3       1       0    85.73843521     0.02474223
      46     ang       9       3       7       0    85.80331135     0.01288601
      47     ang       9       3      11       0   121.48827574    -0.03155012
      48     ang       6       3       8       0   118.47247906    -0.00258363
      49     ang       6       3       2       0    97.55621160    -0.00119953
      50     ang       6       3       1       0    85.46171991     0.02569953
      51     ang       6       3       7       0   121.43376470    -0.03144328
      52     ang       6       3      11       0    85.98434689     0.01235035
      53     ang       8       3       2       0    96.81291220     0.00713907
      54     ang       8       3       1       0   120.27444570    -0.04263380
      55     ang       8       3       7       0    84.29830723     0.02367449
      56     ang       8       3      11       0    84.05640983     0.02453551
      57     ang       1       3       7       0    41.01789145    -0.06947779
      58     ang       1       3      11       0    41.02628758    -0.06945663
      59     ang       7       3      11       0    40.45513557    -0.04970462
      60     ang       1       5      10       0   124.78014579     0.00000018
      61     ang       1       5      12       0   114.73739867     0.00000022
      62     ang      10       5      12       0   120.48134630     0.00000018
      63     ang       3       6       2       0    60.34468769     0.02719021
      64     ang       2       7       3       0    68.72451165     0.03291479
      65     ang       3       8       2       0    60.93212808     0.02030714
      66     ang       3       9       2       0    60.33684884     0.02637073
      67     ang       2      11       3       0    71.55860906     0.03165493
      68     dih       2       1       5      10   179.74813341    -0.03149197
      69     dih       2       1       5      12    -0.63506953    -0.03139208
      70     dih       4       1       5      10     0.84367616     0.01383865
      71     dih       4       1       5      12   180.46047323     0.01393854
      72     dih       3       1       5      10   127.21624574     0.01545071
      73     dih       3       1       5      12   -53.16695720     0.01555060
      74     dih       5       1       2       7     6.57009342     0.05711997
      75     dih       5       1       2      11   172.35502872    -0.02346090
      76     dih       5       1       2       3   267.85385074     0.02000126
      77     dih       5       1       2       6   248.75690649     0.03763964
      78     dih       5       1       2       8   267.65479661     0.02124003
      79     dih       5       1       2       9   -72.88759900     0.00120598
      80     dih       4       1       2       7   185.42152053     0.01186789
      81     dih       4       1       2      11    -8.79354417    -0.06871298
      82     dih       4       1       2       3    86.70527785    -0.02525082
      83     dih       4       1       2       6    67.60833360    -0.00761244
      84     dih       4       1       2       8    86.50622373    -0.02401205
      85     dih       4       1       2       9   105.96382811    -0.04404610
      86     dih       3       1       2       7    98.71624268     0.03711871
      87     dih       3       1       2      11   264.50117798    -0.04346216
      88     dih       3       1       2       6   -19.09694425     0.01763838
      89     dih       3       1       2       8    -0.19905413     0.00123877
      90     dih       3       1       2       9    19.25855026    -0.01879528
      91     dih       6       3       9       2   102.82836572    -0.00063876
      92     dih       8       3       9       2   257.98018397    -0.00743555
      93     dih       1       3       9       2    20.30570963    -0.04323657
      94     dih       7       3       9       2   -20.82918846     0.02748376
      95     dih      11       3       9       2    -0.82262789     0.00215280
      96     dih       9       3       6       2   257.16400671     0.00002359
      97     dih       8       3       6       2   102.00948582     0.00696928
      98     dih       1       3       6       2   -20.14929510     0.04205904
      99     dih       7       3       6       2     0.52968161    -0.00188019
     100     dih      11       3       6       2    20.99355189    -0.02852960
     101     dih       1       2       7       3   248.95626953    -0.08112054
     102     dih      11       2       7       3    82.52763162    -0.00233038
     103     dih       6       2       7       3     0.44547776    -0.00147668
     104     dih       8       2       7       3    19.49721097    -0.02399514
     105     dih       9       2       7       3   -19.75505464     0.02485364
     106     dih       9       3       8       2   102.45974316     0.00321877
     107     dih       6       3       8       2   257.55808319    -0.00213270
     108     dih       1       3       8       2    -0.18104675     0.00148338
     109     dih       7       3       8       2    20.38290605    -0.02547526
     110     dih      11       3       8       2   -20.29058747     0.02634058
     111     dih       1       2      11       3   109.40048384     0.08463198
     112     dih       7       2      11       3   -84.29422306     0.00406819
     113     dih       6       2      11       3    20.10982482    -0.02529459
     114     dih       8       2      11       3   -19.64380594     0.02464205
     115     dih       9       2      11       3    -0.67870888     0.00156621
     116     dih       1       2       3       9    60.36685908    -0.00054048
     117     dih       1       2       3       6   -59.59533627    -0.00359662
     118     dih       1       2       3       8   180.39271465    -0.00226093
     119     dih       1       2       3       7   121.52101014    -0.00585289
     120     dih       1       2       3      11   238.63730914     0.00126327
     121     dih       7       2       3       9   -61.15415106     0.00531242
     122     dih       7       2       3       6   178.88365359     0.00225627
     123     dih       7       2       3       8    58.87170451     0.00359196
     124     dih       7       2       3       1   238.47898986     0.00585289
     125     dih       7       2       3      11   117.11629900     0.00711616
     126     dih      11       2       3       9   181.72954994    -0.00180374
     127     dih      11       2       3       6    61.76735459    -0.00485989
     128     dih      11       2       3       8   -58.24459449    -0.00352420
     129     dih      11       2       3       1   121.36269086    -0.00126327
     130     dih      11       2       3       7   242.88370100    -0.00711616
     131     dih       6       2       3       9   119.96219535     0.00305615
     132     dih       6       2       3       8   239.98805092     0.00133569
     133     dih       6       2       3       1    59.59533627     0.00359662
     134     dih       6       2       3       7   181.11634641    -0.00225627
     135     dih       6       2       3      11   -61.76735459     0.00485989
     136     dih       8       2       3       9   239.97414443     0.00172046
     137     dih       8       2       3       6   120.01194908    -0.00133569
     138     dih       8       2       3       1   179.60728535     0.00226093
     139     dih       8       2       3       7   -58.87170451    -0.00359196
     140     dih       8       2       3      11    58.24459449     0.00352420
     141     dih       9       2       3       6   240.03780465    -0.00305615
     142     dih       9       2       3       8   120.02585557    -0.00172046
     143     dih       9       2       3       1   -60.36685908     0.00054048
     144     dih       9       2       3       7    61.15415106    -0.00531242
     145     dih       9       2       3      11   178.27045006     0.00180374
     146     dih       5       1       3       9    -6.70885435    -0.04732244
     147     dih       5       1       3       6   234.46351100    -0.04404658
     148     dih       5       1       3       8   113.97123608    -0.04646569
     149     dih       5       1       3       2   113.51971531    -0.04366333
     150     dih       5       1       3       7    81.79279287    -0.05299616
     151     dih       5       1       3      11   145.36861586    -0.03762149
     152     dih       2       1       3       9   239.77143035    -0.00365911
     153     dih       2       1       3       6   120.94379569    -0.00038324
     154     dih       2       1       3       8     0.45152078    -0.00280236
     155     dih       2       1       3       7   -31.72692244    -0.00933283
     156     dih       2       1       3      11    31.84890055     0.00604184
     157     dih       4       1       3       9   123.80841936     0.05284985
     158     dih       4       1       3       6     4.98078471     0.05612572
     159     dih       4       1       3       8   244.48850980     0.05370660
     160     dih       4       1       3       2   244.03698902     0.05650896
     161     dih       4       1       3       7   212.31006658     0.04717613
     162     dih       4       1       3      11   -84.11411043     0.06255080
     163     dih       1       2       6       3   124.88764731     0.01803427
     164     dih       7       2       6       3    -1.18296723     0.00260251
     165     dih      11       2       6       3   245.46600317    -0.01115867
     166     dih       8       2       6       3   -32.05539858     0.00516954
     167     dih       9       2       6       3    31.94330304    -0.00652928
     168     dih       1       2       8       3     0.49575478    -0.00272679
     169     dih       7       2       8       3   241.68513846    -0.00152214
     170     dih      11       2       8       3   117.92511051     0.00374403
     171     dih       6       2       8       3    31.81706571    -0.00322289
     172     dih       9       2       8       3   -31.80538315     0.00323131
     173     dih       1       2       9       3   235.80616395    -0.02181967
     174     dih       7       2       9       3   116.14173452     0.00960460
     175     dih      11       2       9       3     1.79645291    -0.00212088
     176     dih       6       2       9       3   -31.95136330     0.00615704
     177     dih       8       2       9       3    32.05169900    -0.00480303
     178     dih       9       3       7       2   119.46891254     0.00681802
     179     dih       6       3       7       2    -1.29702339     0.00305308
     180     dih       8       3       7       2   238.67074179    -0.00172072
     181     dih       1       3       7       2    31.14063561    -0.01887083
     182     dih      11       3       7       2   -33.81065462     0.01086662
     183     dih       9       3      11       2     2.01064384    -0.00277489
     184     dih       6       3      11       2   241.10811001    -0.00601130
     185     dih       8       3      11       2   121.91193176     0.00196870
     186     dih       1       3      11       2   -31.19334464     0.02064629
     187     dih       7       3      11       2    33.73730423    -0.00916575
 
----------------------------------------------------------------------
Geometry Convergence after Step   1       (Hartree/Angstrom,Angstrom)
----------------------------------------------------------------------
current energy                               -2.36190715 Hartree
energy change                      -2.36190715     0.00012000    F
constrained gradient max            0.06989768     0.00100000    F
constrained gradient rms            0.01839217     0.00066667    F
gradient max                        0.06989768
gradient rms                        0.01839217
cart. step max                      0.04761901     0.01000000    F
cart. step rms                      0.01593854     0.00666667    F
 
 
--------
Geometry
--------
Formula: C4H6FO
Atoms
  Index Symbol   x (angstrom)   y (angstrom)   z (angstrom)
      1      C     0.83125304    -0.22049301     0.87319112
      2      C     0.82482800    -0.23676769    -0.48537851
      3      C    -1.53432598    -0.46267725    -1.31048786
      4      H     0.87354319    -1.14382153     1.44359282
      5      C     0.74140419     0.98980545     1.68171091
      6      H    -1.76219541    -1.40823013    -0.83368910
      7      H     0.88086775     0.68796616    -1.04922271
      8      H    -1.30072582    -0.46095088    -2.36923060
      9      H    -1.92668636     0.44423340    -0.86694461
     10      O     0.73451638     1.06986443     2.86954027
     11      H     0.99121044    -1.15463156    -1.03064092
     12      F     0.63145519     2.15241253     0.92572450
 
Total System Charge             0.00000
 
 *** GOStep2 ***

 Energy gradients wrt nuclear displacements
 ==========================================

     Atom      Cartesian (a.u./angstrom)
                 X         Y         Z
 ----------------------------------------
     1 C    -0.000141 -0.000977  0.012449
     2 C    -0.000649 -0.006182 -0.003867
     3 C     0.001237 -0.000410  0.000253
     4 H    -0.000201 -0.001134 -0.002349
     5 C     0.004351 -0.001940  0.015900
     6 H    -0.000231  0.000330 -0.000130
     7 H     0.001235  0.000817  0.000056
     8 H    -0.000365 -0.000001  0.000012
     9 H    -0.000562 -0.000313 -0.000147
    10 O    -0.001757 -0.001024 -0.024096
    11 H    -0.001216  0.005844  0.000690
    12 F    -0.001702  0.004989  0.001229
 ----------------------------------------
 Mulliken charges used for AMS results%charges...
Hessian eigenvector     1(    -0.008) has overlap with TSRC:    0.57494E-01
Hessian eigenvector     1 has the largest overlap with TSRC:  0.05749
           Primitive Internal Coordinates (atoms in internal order)
-------------------------------------------------------------------------------
    index    type      i       j       k       l   value(A,deg)     Max Ovl Vect
-------------------------------------------------------------------------------
       1     bnd       1       5       0       0     1.45828648     0.00716056
       2     bnd       1       2       0       0     1.35868230    -0.01905435
       3     bnd       3       9       0       0     1.08312705    -0.00071959
       4     bnd       1       4       0       0     1.08613172    -0.00004790
       5     bnd       3       6       0       0     1.08320441    -0.00163014
       6     bnd       2       7       0       0     1.08452451    -0.00689309
       7     bnd       3       8       0       0     1.08420856    -0.00077749
       8     bnd       5      10       0       0     1.19054418     0.07022334
       9     bnd       2      11       0       0     1.08049447     0.02555104
      10     bnd       5      12       0       0     1.39113603    -0.02128669
      11     bnd       2       3       0       0     2.50947167     0.08096553
      12     bnd       1       3       0       0     3.22847815     0.07103391
      13     bnd       2       6       0       0     2.86117715     0.06932649
      14     bnd       2       8       0       0     2.84905876     0.06239921
      15     bnd       2       9       0       0     2.86010252     0.05411737
      16     bnd       3       7       0       0     2.68801050     0.04856182
      17     bnd       3      11       0       0     2.63352412     0.06894179
      18     ang       5       1       2       0   124.33533262     0.11367548
      19     ang       5       1       4       0   114.63096706    -0.06826766
      20     ang       5       1       3       0   113.08646741    -0.08514001
      21     ang       2       1       4       0   121.00586582    -0.04762218
      22     ang       2       1       3       0    47.10259382     0.00391140
      23     ang       4       1       3       0   108.66124294     0.02714062
      24     ang       1       2       7       0   120.62380672     0.03077261
      25     ang       1       2      11       0   120.93376892    -0.05653703
      26     ang       1       2       3       0   109.52965498     0.00516452
      27     ang       1       2       6       0    97.52199569     0.00413145
      28     ang       1       2       8       0   131.73104466     0.00054292
      29     ang       1       2       9       0    97.76417919     0.01207720
      30     ang       7       2      11       0   117.00089562     0.03033513
      31     ang       7       2       3       0    87.38606252    -0.01199788
      32     ang       7       2       6       0   109.42295730    -0.01752071
      33     ang       7       2       8       0    76.22414449    -0.01429702
      34     ang       7       2       9       0    77.13399819    -0.00546685
      35     ang      11       2       3       0    84.39701898    -0.00685341
      36     ang      11       2       6       0    74.33520944    -0.02120207
      37     ang      11       2       8       0    73.40295808     0.01187142
      38     ang      11       2       9       0   106.44425313    -0.00990708
      39     ang       6       2       8       0    38.06789807    -0.00872610
      40     ang       6       2       9       0    37.94456448    -0.00678160
      41     ang       8       2       9       0    38.07471678    -0.00751379
      42     ang       9       3       6       0   118.32335985     0.00726926
      43     ang       9       3       8       0   118.46355678     0.00105320
      44     ang       9       3       2       0    97.50014645    -0.01155216
      45     ang       9       3       1       0    85.73538303    -0.00053383
      46     ang       9       3       7       0    85.82847406    -0.00343195
      47     ang       9       3      11       0   121.59287699    -0.01175410
      48     ang       6       3       8       0   118.46033613     0.00074375
      49     ang       6       3       2       0    97.56318652    -0.00274554
      50     ang       6       3       1       0    85.52046363    -0.00215317
      51     ang       6       3       7       0   121.32548836    -0.00886689
      52     ang       6       3      11       0    85.73363975    -0.01979994
      53     ang       8       3       2       0    96.79867183    -0.00678832
      54     ang       8       3       1       0   120.16579909    -0.01590707
      55     ang       8       3       7       0    84.29783482    -0.00860966
      56     ang       8       3      11       0    84.12052021     0.01073442
      57     ang       1       3       7       0    40.86889536    -0.00670979
      58     ang       1       3      11       0    40.98846394    -0.02148679
      59     ang       7       3      11       0    40.57829354     0.00174279
      60     ang       1       5      10       0   127.54135018     0.04006086
      61     ang       1       5      12       0   113.40204429    -0.06275891
      62     ang      10       5      12       0   119.04757049     0.02227461
      63     ang       3       6       2       0    60.39436618     0.00813939
      64     ang       2       7       3       0    68.84510256     0.01796691
      65     ang       3       8       2       0    60.99928483     0.01136498
      66     ang       3       9       2       0    60.44697097     0.01514403
      67     ang       2      11       3       0    71.50335994     0.00770396
      68     dih       2       1       5      10   179.55407962     0.06432451
      69     dih       2       1       5      12     0.66933794    -0.00876872
      70     dih       4       1       5      10     1.46246809     0.19539822
      71     dih       4       1       5      12   182.57772641     0.12230499
      72     dih       3       1       5      10   126.77802725     0.09482204
      73     dih       3       1       5      12   -52.10671442     0.02172881
      74     dih       5       1       2       7     8.06794635     0.22941584
      75     dih       5       1       2      11   173.95756239     0.25572563
      76     dih       5       1       2       3   269.22445184     0.22723686
      77     dih       5       1       2       6   250.16642160     0.23417538
      78     dih       5       1       2       8   269.02384913     0.22030246
      79     dih       5       1       2       9   -71.53644574     0.22801975
      80     dih       4       1       2       7   186.04396241     0.09189623
      81     dih       4       1       2      11    -8.06642155     0.11820601
      82     dih       4       1       2       3    87.20046790     0.08971724
      83     dih       4       1       2       6    68.14243766     0.09665576
      84     dih       4       1       2       8    86.99986519     0.08278284
      85     dih       4       1       2       9   106.43957032     0.09050013
      86     dih       3       1       2       7    98.84349450     0.00217899
      87     dih       3       1       2      11   264.73311054     0.02848877
      88     dih       3       1       2       6   -19.05803025     0.00693852
      89     dih       3       1       2       8    -0.20060271    -0.00693440
      90     dih       3       1       2       9    19.23910242     0.00078290
      91     dih       6       3       9       2   102.81288671    -0.00803449
      92     dih       8       3       9       2   258.04198309     0.01437996
      93     dih       1       3       9       2    20.23404797    -0.00421614
      94     dih       7       3       9       2   -20.75072749     0.00240012
      95     dih      11       3       9       2    -0.61784235     0.02174525
      96     dih       9       3       6       2   257.22381538     0.01316830
      97     dih       8       3       6       2   101.99391337    -0.00932121
      98     dih       1       3       6       2   -20.07008960     0.01028505
      99     dih       7       3       6       2     0.59689524     0.00779592
     100     dih      11       3       6       2    21.04291862    -0.01044018
     101     dih       1       2       7       3   248.78585187    -0.00417491
     102     dih      11       2       7       3    82.35958785    -0.01724988
     103     dih       6       2       7       3     0.50342082     0.00655200
     104     dih       8       2       7       3    19.42490692    -0.00602906
     105     dih       9       2       7       3   -19.73417277     0.00024240
     106     dih       9       3       8       2   102.36628480    -0.01713374
     107     dih       6       3       8       2   257.56118980     0.00696222
     108     dih       1       3       8       2    -0.18175008    -0.00624547
     109     dih       7       3       8       2    20.25728001    -0.00816080
     110     dih      11       3       8       2   -20.53801466    -0.00994491
     111     dih       1       2      11       3   109.43927724    -0.00449430
     112     dih       7       2      11       3   -84.17910947     0.02151993
     113     dih       6       2      11       3    19.98666944    -0.01249227
     114     dih       8       2      11       3   -19.69409519    -0.00542275
     115     dih       9       2      11       3    -0.50455373     0.01797232
     116     dih       1       2       3       9    60.40858980     0.01666001
     117     dih       1       2       3       6   -59.60606161     0.01242392
     118     dih       1       2       3       8   180.39618042     0.01375440
     119     dih       1       2       3       7   121.65909087     0.02922435
     120     dih       1       2       3      11   239.11964558     0.06211421
     121     dih       7       2       3       9   -61.25050107    -0.01256433
     122     dih       7       2       3       6   178.73484752    -0.01680043
     123     dih       7       2       3       8    58.73708955    -0.01546994
     124     dih       7       2       3       1   238.34090913    -0.02922435
     125     dih       7       2       3      11   117.46055472     0.03288987
     126     dih      11       2       3       9   181.28894422    -0.04545420
     127     dih      11       2       3       6    61.27429280    -0.04969030
     128     dih      11       2       3       8   -58.72346516    -0.04835981
     129     dih      11       2       3       1   120.88035442    -0.06211421
     130     dih      11       2       3       7   242.53944528    -0.03288987
     131     dih       6       2       3       9   120.01465141     0.00423610
     132     dih       6       2       3       8   240.00224203     0.00133049
     133     dih       6       2       3       1    59.60606161    -0.01242392
     134     dih       6       2       3       7   181.26515248     0.01680043
     135     dih       6       2       3      11   -61.27429280     0.04969030
     136     dih       8       2       3       9   240.01240938     0.00290561
     137     dih       8       2       3       6   119.99775797    -0.00133049
     138     dih       8       2       3       1   179.60381958    -0.01375440
     139     dih       8       2       3       7   -58.73708955     0.01546994
     140     dih       8       2       3      11    58.72346516     0.04835981
     141     dih       9       2       3       6   239.98534859    -0.00423610
     142     dih       9       2       3       8   119.98759062    -0.00290561
     143     dih       9       2       3       1   -60.40858980    -0.01666001
     144     dih       9       2       3       7    61.25050107     0.01256433
     145     dih       9       2       3      11   178.71105578     0.04545420
     146     dih       5       1       3       9    -4.01043739     0.24506134
     147     dih       5       1       3       6   237.10384523     0.23736194
     148     dih       5       1       3       8   116.61629050     0.24184149
     149     dih       5       1       3       2   116.16127431     0.22609417
     150     dih       5       1       3       7    84.53982878     0.24074109
     151     dih       5       1       3      11   148.45665050     0.26376267
     152     dih       2       1       3       9   239.82828830     0.01896717
     153     dih       2       1       3       6   120.94257093     0.01126777
     154     dih       2       1       3       8     0.45501619     0.01574732
     155     dih       2       1       3       7   -31.62144552     0.01464693
     156     dih       2       1       3      11    32.29537620     0.03766850
     157     dih       4       1       3       9   124.46319757     0.10792625
     158     dih       4       1       3       6     5.57748020     0.10022685
     159     dih       4       1       3       8   245.08992546     0.10470640
     160     dih       4       1       3       2   244.63490927     0.08895908
     161     dih       4       1       3       7   213.01346375     0.10360600
     162     dih       4       1       3      11   -83.06971453     0.12662758
     163     dih       1       2       6       3   124.91532144     0.01229785
     164     dih       7       2       6       3    -1.34011527    -0.01766400
     165     dih      11       2       6       3   245.01342860    -0.04708854
     166     dih       8       2       6       3   -32.05592191    -0.00043070
     167     dih       9       2       6       3    31.91928722    -0.00163086
     168     dih       1       2       8       3     0.50033575     0.01735188
     169     dih       7       2       8       3   241.54551295    -0.01186089
     170     dih      11       2       8       3   117.43096075    -0.04852048
     171     dih       6       2       8       3    31.81123063    -0.00087617
     172     dih       9       2       8       3   -31.82545781    -0.00148354
     173     dih       1       2       9       3   235.80443811     0.01364461
     174     dih       7       2       9       3   116.05487902    -0.01554033
     175     dih      11       2       9       3     1.33750414    -0.04732686
     176     dih       6       2       9       3   -31.90324195     0.00439783
     177     dih       8       2       9       3    32.05414548     0.00003540
     178     dih       9       3       7       2   119.36201877    -0.01540963
     179     dih       6       3       7       2    -1.46820512    -0.01940593
     180     dih       8       3       7       2   238.54003825    -0.01260350
     181     dih       1       3       7       2    31.06151285    -0.01880322
     182     dih      11       3       7       2   -33.84825303     0.01393183
     183     dih       9       3      11       2     1.50031327    -0.05304612
     184     dih       6       3      11       2   240.65879852    -0.04516846
     185     dih       8       3      11       2   121.44408930    -0.04757364
     186     dih       1       3      11       2   -31.26411719    -0.02521333
     187     dih       7       3      11       2    33.35309315    -0.02161663
 
----------------------------------------------------------------------
Geometry Convergence after Step   2       (Hartree/Angstrom,Angstrom)
----------------------------------------------------------------------
current energy                               -2.36416878 Hartree
energy change                      -0.00226164     0.00012000    F
constrained gradient max            0.02410425     0.00100000    F
constrained gradient rms            0.00564393     0.00066667    F
gradient max                        0.02410425
gradient rms                        0.00564393
cart. step max                      0.08806867     0.01000000    F
cart. step rms                      0.02159433     0.00666667    F
 
 
--------
Geometry
--------
Formula: C4H6FO
Atoms
  Index Symbol   x (angstrom)   y (angstrom)   z (angstrom)
      1      C     0.80385536    -0.21837823     0.87865703
      2      C     0.80840530    -0.22343537    -0.48067165
      3      C    -1.53569459    -0.48133958    -1.31991961
      4      H     0.83558579    -1.14106782     1.45088959
      5      C     0.74665290     0.99472134     1.68630800
      6      H    -1.74794731    -1.43775680    -0.85713508
      7      H     0.85160699     0.70838654    -1.03450974
      8      H    -1.29641628    -0.46079073    -2.37731970
      9      H    -1.94804143     0.41167631    -0.86615899
     10      O     0.75268867     1.07557175     2.87586796
     11      H     0.99492535    -1.13167568    -1.03597944
     12      F     0.71952387     2.16079817     0.92813696
 
Total System Charge             0.00000
 
 *** GOStep3 ***

 Energy gradients wrt nuclear displacements
 ==========================================

     Atom      Cartesian (a.u./angstrom)
                 X         Y         Z
 ----------------------------------------
     1 C     0.000255 -0.003275  0.012573
     2 C     0.000873 -0.004922 -0.003373
     3 C     0.000699 -0.000158 -0.000092
     4 H    -0.000428 -0.000788 -0.001233
     5 C    -0.003943 -0.001932  0.011112
     6 H    -0.000185 -0.000033  0.000080
     7 H    -0.000701  0.001387 -0.000457
     8 H    -0.000221 -0.000041 -0.000127
     9 H    -0.000479 -0.000195 -0.000014
    10 O     0.001790 -0.001104 -0.018688
    11 H     0.000241  0.006058  0.000331
    12 F     0.002099  0.005003 -0.000110
 ----------------------------------------
 Mulliken charges used for AMS results%charges...
Hessian eigenvector     1(    -0.005) has overlap with TSRC:    0.44001E-01
Hessian eigenvector     1 has the largest overlap with TSRC:  0.04400
           Primitive Internal Coordinates (atoms in internal order)
-------------------------------------------------------------------------------
    index    type      i       j       k       l   value(A,deg)     Max Ovl Vect
-------------------------------------------------------------------------------
       1     bnd       1       5       0       0     1.45848647    -0.00254472
       2     bnd       1       2       0       0     1.35934571    -0.00477032
       3     bnd       3       9       0       0     1.08323866    -0.00018583
       4     bnd       1       4       0       0     1.08619197     0.00023712
       5     bnd       3       6       0       0     1.08349187    -0.00148399
       6     bnd       2       7       0       0     1.08484796    -0.00055847
       7     bnd       3       8       0       0     1.08432989    -0.00049840
       8     bnd       5      10       0       0     1.19231963     0.00635518
       9     bnd       2      11       0       0     1.08076682     0.00283862
      10     bnd       5      12       0       0     1.39114862    -0.00218788
      11     bnd       2       3       0       0     2.50312925     0.06213692
      12     bnd       1       3       0       0     3.22123919     0.05762412
      13     bnd       2       6       0       0     2.85503764     0.05624298
      14     bnd       2       8       0       0     2.84321741     0.05010055
      15     bnd       2       9       0       0     2.85481451     0.04372449
      16     bnd       3       7       0       0     2.68255772     0.03404541
      17     bnd       3      11       0       0     2.62823065     0.05497225
      18     ang       5       1       2       0   123.84708692     0.05048829
      19     ang       5       1       4       0   114.57990354    -0.01380439
      20     ang       5       1       3       0   114.66855815    -0.12432980
      21     ang       2       1       4       0   121.57134485    -0.03858932
      22     ang       2       1       3       0    47.12593079     0.00317528
      23     ang       4       1       3       0   108.14616853     0.04720986
      24     ang       1       2       7       0   120.49430970     0.01926814
      25     ang       1       2      11       0   121.16515238    -0.02956990
      26     ang       1       2       3       0   109.42205143     0.00205517
      27     ang       1       2       6       0    97.49519526    -0.00493922
      28     ang       1       2       8       0   131.67484054    -0.00176394
      29     ang       1       2       9       0    97.52561654     0.01374275
      30     ang       7       2      11       0   116.91340221     0.01350617
      31     ang       7       2       3       0    87.39928741    -0.01178816
      32     ang       7       2       6       0   109.49168747    -0.01618648
      33     ang       7       2       8       0    76.15055769    -0.00477424
      34     ang       7       2       9       0    77.19846529    -0.01528914
      35     ang      11       2       3       0    84.41984651    -0.00141847
      36     ang      11       2       6       0    74.29681960     0.00015432
      37     ang      11       2       8       0    73.43251396     0.00094497
      38     ang      11       2       9       0   106.51171233    -0.00433734
      39     ang       6       2       8       0    38.15748873    -0.00688765
      40     ang       6       2       9       0    38.02763194    -0.00589329
      41     ang       8       2       9       0    38.15973275    -0.00612778
      42     ang       9       3       6       0   118.30846467     0.00374718
      43     ang       9       3       8       0   118.48094822     0.00004654
      44     ang       9       3       2       0    97.53265192    -0.00773512
      45     ang       9       3       1       0    85.59919317     0.00662122
      46     ang       9       3       7       0    85.90405288    -0.01130800
      47     ang       9       3      11       0   121.68567603    -0.01209861
      48     ang       6       3       8       0   118.45523605     0.00139760
      49     ang       6       3       2       0    97.53861004    -0.00033433
      50     ang       6       3       1       0    85.57321215    -0.00809324
      51     ang       6       3       7       0   121.35780725    -0.00353505
      52     ang       6       3      11       0    85.64450326     0.00139073
      53     ang       8       3       2       0    96.79691287    -0.00400104
      54     ang       8       3       1       0   120.24891691    -0.00932599
      55     ang       8       3       7       0    84.20130059     0.00272548
      56     ang       8       3      11       0    84.12071302    -0.00089684
      57     ang       1       3       7       0    40.95963269    -0.00385409
      58     ang       1       3      11       0    41.16199028    -0.01484580
      59     ang       7       3      11       0    40.65592602    -0.00293642
      60     ang       1       5      10       0   127.49411889     0.01287420
      61     ang       1       5      12       0   113.33785543    -0.01832593
      62     ang      10       5      12       0   119.14327332     0.00328895
      63     ang       3       6       2       0    60.36155310     0.00484424
      64     ang       2       7       3       0    68.77276660     0.01511986
      65     ang       3       8       2       0    60.95028365     0.00772138
      66     ang       3       9       2       0    60.37081021     0.01064498
      67     ang       2      11       3       0    71.42142448     0.00577271
      68     dih       2       1       5      10   180.81438088     0.18288966
      69     dih       2       1       5      12    -1.02965550    -0.19068299
      70     dih       4       1       5      10     1.27826531     0.29559179
      71     dih       4       1       5      12   179.43422893    -0.07798086
      72     dih       3       1       5      10   127.21933207     0.23553437
      73     dih       3       1       5      12   -54.62470431    -0.13803828
      74     dih       5       1       2       7     5.11382741     0.22407276
      75     dih       5       1       2      11   171.06055624     0.24142072
      76     dih       5       1       2       3   266.38219574     0.22879243
      77     dih       5       1       2       6   247.20598831     0.23908742
      78     dih       5       1       2       8   266.35244388     0.21353390
      79     dih       5       1       2       9   -74.42452237     0.23342406
      80     dih       4       1       2       7   184.61869323     0.10624777
      81     dih       4       1       2      11    -9.43457794     0.12359573
      82     dih       4       1       2       3    85.88706156     0.11096744
      83     dih       4       1       2       6    66.71085413     0.12126243
      84     dih       4       1       2       8    85.85730971     0.09570891
      85     dih       4       1       2       9   105.08034345     0.11559907
      86     dih       3       1       2       7    98.73163167    -0.00471967
      87     dih       3       1       2      11   264.67836050     0.01262829
      88     dih       3       1       2       6   -19.17620743     0.01029499
      89     dih       3       1       2       8    -0.02975185    -0.01525852
      90     dih       3       1       2       9    19.19328189     0.00463163
      91     dih       6       3       9       2   102.79935598    -0.00391822
      92     dih       8       3       9       2   258.02075711     0.00915995
      93     dih       1       3       9       2    20.23326324     0.00223714
      94     dih       7       3       9       2   -20.84322459     0.00594599
      95     dih      11       3       9       2    -0.56313534    -0.00017797
      96     dih       9       3       6       2   257.20411384     0.00823223
      97     dih       8       3       6       2   101.97627785    -0.00450506
      98     dih       1       3       6       2   -20.21440762     0.01078707
      99     dih       7       3       6       2     0.69163032    -0.00682516
     100     dih      11       3       6       2    21.07422822    -0.00403504
     101     dih       1       2       7       3   248.92740398     0.00139496
     102     dih      11       2       7       3    82.40216843    -0.00914825
     103     dih       6       2       7       3     0.58344249    -0.00579570
     104     dih       8       2       7       3    19.43512777     0.00012760
     105     dih       9       2       7       3   -19.80891494     0.00452438
     106     dih       9       3       8       2   102.40725581    -0.01131519
     107     dih       6       3       8       2   257.59202086     0.00237817
     108     dih       1       3       8       2    -0.02703536    -0.01385656
     109     dih       7       3       8       2    20.26851162     0.00018094
     110     dih      11       3       8       2   -20.60882080     0.00322469
     111     dih       1       2      11       3   109.35195061    -0.00178432
     112     dih       7       2      11       3   -84.21910565     0.01601709
     113     dih       6       2      11       3    20.02123822    -0.00430427
     114     dih       8       2      11       3   -19.75580696     0.00299063
     115     dih       9       2      11       3    -0.45938475    -0.00025062
     116     dih       1       2       3       9    60.04659819     0.03268079
     117     dih       1       2       3       6   -59.95447232     0.03065764
     118     dih       1       2       3       8   180.05868212     0.03017702
     119     dih       1       2       3       7   121.50757957     0.01646039
     120     dih       1       2       3      11   238.87566899     0.03178650
     121     dih       7       2       3       9   -61.46098137     0.01622041
     122     dih       7       2       3       6   178.53794812     0.01419725
     123     dih       7       2       3       8    58.55110256     0.01371663
     124     dih       7       2       3       1   238.49242043    -0.01646039
     125     dih       7       2       3      11   117.36808942     0.01532611
     126     dih      11       2       3       9   181.17092921     0.00089430
     127     dih      11       2       3       6    61.16985870    -0.00112886
     128     dih      11       2       3       8   -58.81698686    -0.00160947
     129     dih      11       2       3       1   121.12433101    -0.03178650
     130     dih      11       2       3       7   242.63191058    -0.01532611
     131     dih       6       2       3       9   120.00107051     0.00202316
     132     dih       6       2       3       8   240.01315444    -0.00048061
     133     dih       6       2       3       1    59.95447232    -0.03065764
     134     dih       6       2       3       7   181.46205188    -0.01419725
     135     dih       6       2       3      11   -61.16985870     0.00112886
     136     dih       8       2       3       9   239.98791607     0.00250377
     137     dih       8       2       3       6   119.98684556     0.00048061
     138     dih       8       2       3       1   179.94131788    -0.03017702
     139     dih       8       2       3       7   -58.55110256    -0.01371663
     140     dih       8       2       3      11    58.81698686     0.00160947
     141     dih       9       2       3       6   239.99892949    -0.00202316
     142     dih       9       2       3       8   120.01208393    -0.00250377
     143     dih       9       2       3       1   -60.04659819    -0.03268079
     144     dih       9       2       3       7    61.46098137    -0.01622041
     145     dih       9       2       3      11   178.82907079    -0.00089430
     146     dih       5       1       3       9    -6.31429822     0.20516223
     147     dih       5       1       3       6   234.80407372     0.20120193
     148     dih       5       1       3       8   114.26833146     0.20699709
     149     dih       5       1       3       2   114.20087757     0.17234024
     150     dih       5       1       3       7    82.50390403     0.18049447
     151     dih       5       1       3      11   146.36150650     0.18887995
     152     dih       2       1       3       9   239.48482421     0.03282199
     153     dih       2       1       3       6   120.60319615     0.02886169
     154     dih       2       1       3       8     0.06745388     0.03465685
     155     dih       2       1       3       7   -31.69697354     0.00815423
     156     dih       2       1       3      11    32.16062893     0.01653971
     157     dih       4       1       3       9   122.89979346     0.12681397
     158     dih       4       1       3       6     4.01816540     0.12285368
     159     dih       4       1       3       8   243.48242314     0.12864884
     160     dih       4       1       3       2   243.41496926     0.09399199
     161     dih       4       1       3       7   211.71799572     0.10214622
     162     dih       4       1       3      11   -84.42440182     0.11053169
     163     dih       1       2       6       3   124.57294754     0.02775304
     164     dih       7       2       6       3    -1.54935940     0.01517411
     165     dih      11       2       6       3   244.91847443    -0.00171981
     166     dih       8       2       6       3   -32.06613469     0.00037889
     167     dih       9       2       6       3    31.92496571    -0.00049640
     168     dih       1       2       8       3     0.07409368     0.03807536
     169     dih       7       2       8       3   241.37151477     0.01654686
     170     dih      11       2       8       3   117.33416064    -0.00108821
     171     dih       6       2       8       3    31.83209922    -0.00162593
     172     dih       9       2       8       3   -31.81624131    -0.00128768
     173     dih       1       2       9       3   235.51017907     0.02899623
     174     dih       7       2       9       3   115.84758788     0.01215650
     175     dih      11       2       9       3     1.21551235     0.00088410
     176     dih       6       2       9       3   -31.93002859     0.00295311
     177     dih       8       2       9       3    32.05521945     0.00009593
     178     dih       9       3       7       2   119.17427899     0.01252358
     179     dih       6       3       7       2    -1.69740192     0.01654367
     180     dih       8       3       7       2   238.37159696     0.01394678
     181     dih       1       3       7       2    31.17203216    -0.01070375
     182     dih      11       3       7       2   -33.90827496     0.00952070
     183     dih       9       3      11       2     1.36419723     0.00081568
     184     dih       6       3      11       2   240.57464861    -0.00119490
     185     dih       8       3      11       2   121.35087108    -0.00251722
     186     dih       1       3      11       2   -31.17256344    -0.01476451
     187     dih       7       3      11       2    33.41336882    -0.00796704
 
----------------------------------------------------------------------
Geometry Convergence after Step   3       (Hartree/Angstrom,Angstrom)
----------------------------------------------------------------------
current energy                               -2.36407014 Hartree
energy change                       0.00009864     0.00012000    T
constrained gradient max            0.01869595     0.00100000    F
constrained gradient rms            0.00463635     0.00066667    F
gradient max                        0.01869595
gradient rms                        0.00463635
cart. step max                      0.02991758     0.01000000    F
cart. step rms                      0.00894659     0.00666667    F
 
 
--------
Geometry
--------
Formula: C4H6FO
Atoms
  Index Symbol   x (angstrom)   y (angstrom)   z (angstrom)
      1      C     0.80740106    -0.20979367     0.87176650
      2      C     0.81042133    -0.22339723    -0.48559265
      3      C    -1.53623158    -0.48149504    -1.32121753
      4      H     0.82004729    -1.12905285     1.45015274
      5      C     0.77657048     0.99786717     1.69170959
      6      H    -1.74307456    -1.44283633    -0.86605125
      7      H     0.85661808     0.70195997    -1.04821063
      8      H    -1.29861302    -0.45135887    -2.37879457
      9      H    -1.94905773     0.40661015    -0.85844524
     10      O     0.74991846     1.07539213     2.89107002
     11      H     0.99036802    -1.14404267    -1.02945576
     12      F     0.70077680     2.15685715     0.93123409
 
Total System Charge             0.00000
 
 *** GOStep4 ***

 Energy gradients wrt nuclear displacements
 ==========================================

     Atom      Cartesian (a.u./angstrom)
                 X         Y         Z
 ----------------------------------------
     1 C    -0.005789 -0.001675  0.000658
     2 C     0.000283 -0.001080 -0.000144
     3 C     0.000588 -0.000070 -0.000087
     4 H    -0.001985  0.000877  0.000127
     5 C     0.018347 -0.002391 -0.009129
     6 H    -0.000111 -0.000211  0.000045
     7 H    -0.002015  0.000556  0.000260
     8 H    -0.000191 -0.000079 -0.000185
     9 H    -0.000410 -0.000147 -0.000032
    10 O    -0.006614  0.001015  0.012185
    11 H     0.002150  0.001640 -0.000953
    12 F    -0.004254  0.001566 -0.002746
 ----------------------------------------
 Mulliken charges used for AMS results%charges...
Hessian eigenvector     1(    -0.006) has overlap with TSRC:    0.17746E-01
Hessian eigenvector     1 has the largest overlap with TSRC:  0.01775
           Primitive Internal Coordinates (atoms in internal order)
-------------------------------------------------------------------------------
    index    type      i       j       k       l   value(A,deg)     Max Ovl Vect
-------------------------------------------------------------------------------
       1     bnd       1       5       0       0     1.46003490     0.00269444
       2     bnd       1       2       0       0     1.35743068    -0.00814800
       3     bnd       3       9       0       0     1.08319640    -0.00105025
       4     bnd       1       4       0       0     1.08615285     0.00153241
       5     bnd       3       6       0       0     1.08357623    -0.00039062
       6     bnd       2       7       0       0     1.08395529    -0.00395235
       7     bnd       3       8       0       0     1.08436155    -0.00027108
       8     bnd       5      10       0       0     1.20215885    -0.00018628
       9     bnd       2      11       0       0     1.08432280     0.01148941
      10     bnd       5      12       0       0     1.38828147    -0.01432148
      11     bnd       2       3       0       0     2.50432891     0.02566404
      12     bnd       1       3       0       0     3.22112007     0.01312301
      13     bnd       2       6       0       0     2.85519206     0.01512145
      14     bnd       2       8       0       0     2.84327380     0.01229590
      15     bnd       2       9       0       0     2.85493485     0.01335219
      16     bnd       3       7       0       0     2.68343586     0.02253463
      17     bnd       3      11       0       0     2.62826936     0.00335620
      18     ang       5       1       2       0   124.74312046     0.04860958
      19     ang       5       1       4       0   113.65589930    -0.03832717
      20     ang       5       1       3       0   115.89639335     0.00917018
      21     ang       2       1       4       0   121.59916046    -0.01135802
      22     ang       2       1       3       0    47.15598973     0.00450737
      23     ang       4       1       3       0   107.43489762    -0.03501455
      24     ang       1       2       7       0   120.70073225     0.02514727
      25     ang       1       2      11       0   120.69187604    -0.04324793
      26     ang       1       2       3       0   109.42681430    -0.00259032
      27     ang       1       2       6       0    97.78954250     0.03490001
      28     ang       1       2       8       0   131.68008700    -0.00289378
      29     ang       1       2       9       0    97.25181373    -0.03817723
      30     ang       7       2      11       0   117.22040868     0.02262764
      31     ang       7       2       3       0    87.40516213     0.00026229
      32     ang       7       2       6       0   109.48484088    -0.00183016
      33     ang       7       2       8       0    75.78580735    -0.04678993
      34     ang       7       2       9       0    77.58574696     0.04898488
      35     ang      11       2       3       0    84.29773500    -0.01237431
      36     ang      11       2       6       0    73.67753056    -0.06938638
      37     ang      11       2       8       0    73.80263638     0.04424681
[...]
     12      F     0.61446892     2.14956650     0.93087493
 
Total System Charge             0.00000
 
 *** GOStep18 ***

 Energy gradients wrt nuclear displacements
 ==========================================

     Atom      Cartesian (a.u./angstrom)
                 X         Y         Z
 ----------------------------------------
     1 C    -0.000847  0.000353  0.000391
     2 C     0.000164 -0.000083 -0.001035
     3 C     0.001067 -0.000062  0.000556
     4 H    -0.000101 -0.000267 -0.000434
     5 C    -0.000325  0.000059 -0.000188
     6 H     0.000442 -0.000037  0.000130
     7 H    -0.000214  0.000008 -0.000196
     8 H     0.000439  0.000085  0.000175
     9 H     0.000215  0.000072  0.000184
    10 O     0.000170 -0.000030  0.000331
    11 H    -0.000949 -0.000100  0.000112
    12 F    -0.000062  0.000002 -0.000026
 ----------------------------------------
 Mulliken charges used for AMS results%charges...
Hessian eigenvector     1(     0.000) has overlap with TSRC:    0.21956E-01
Hessian eigenvector     2(     0.005) has overlap with TSRC:    0.11522E+00
Hessian eigenvector     3(     0.006) has overlap with TSRC:    0.32033E-01
Hessian eigenvector     4(     0.009) has overlap with TSRC:    0.43206E-01
Hessian eigenvector     5(     0.015) has overlap with TSRC:    0.12179E+00
Hessian eigenvector     6(     0.020) has overlap with TSRC:    0.28480E-01
Hessian eigenvector     7(     0.024) has overlap with TSRC:    0.38823E-02
Hessian eigenvector     8(     0.024) has overlap with TSRC:    0.17475E-01
Hessian eigenvector     9(     0.030) has overlap with TSRC:    0.87099E-01
Hessian eigenvector    10(     0.043) has overlap with TSRC:    0.50655E-02
Hessian eigenvector    11(     0.047) has overlap with TSRC:    0.26253E-01
Hessian eigenvector    12(     0.052) has overlap with TSRC:    0.14943E-02
Hessian eigenvector    13(     0.061) has overlap with TSRC:    0.33016E-01
Hessian eigenvector    14(     0.062) has overlap with TSRC:    0.90840E-02
Hessian eigenvector    15(     0.065) has overlap with TSRC:    0.40446E-01
Hessian eigenvector    16(     0.072) has overlap with TSRC:    0.23265E-01
Hessian eigenvector    17(     0.087) has overlap with TSRC:    0.17802E+00
Hessian eigenvector    18(     0.101) has overlap with TSRC:    0.59393E-01
Hessian eigenvector    19(     0.230) has overlap with TSRC:    0.15489E-02
Hessian eigenvector    20(     0.255) has overlap with TSRC:    0.19084E-02
Hessian eigenvector    21(     0.360) has overlap with TSRC:    0.16564E-02
Hessian eigenvector    22(     0.365) has overlap with TSRC:    0.51451E-02
Hessian eigenvector    23(     0.375) has overlap with TSRC:    0.10909E-01
Hessian eigenvector    24(     0.379) has overlap with TSRC:    0.60107E-02
Hessian eigenvector    25(     0.381) has overlap with TSRC:    0.12116E-01
Hessian eigenvector    26(     0.420) has overlap with TSRC:    0.21043E-01
Hessian eigenvector    27(     0.501) has overlap with TSRC:    0.19135E-04
Hessian eigenvector    28(     0.523) has overlap with TSRC:    0.16749E-02
Hessian eigenvector    29(     0.526) has overlap with TSRC:    0.13505E-03
Hessian eigenvector    30(     0.687) has overlap with TSRC:    0.15056E-02
Hessian eigenvector    17 has the largest overlap with TSRC:  0.17802
           Primitive Internal Coordinates (atoms in internal order)
-------------------------------------------------------------------------------
    index    type      i       j       k       l   value(A,deg)     Max Ovl Vect
-------------------------------------------------------------------------------
       1     bnd       1       5       0       0     1.46061840    -0.00023354
       2     bnd       1       2       0       0     1.35499579     0.05952334
       3     bnd       3       9       0       0     1.08284655     0.00889754
       4     bnd       1       4       0       0     1.08679951     0.00112997
       5     bnd       3       6       0       0     1.08307272     0.00793645
       6     bnd       2       7       0       0     1.08375232     0.01082030
       7     bnd       3       8       0       0     1.08390012     0.00434836
       8     bnd       5      10       0       0     1.19813989     0.01048999
       9     bnd       2      11       0       0     1.08480048     0.00145086
      10     bnd       5      12       0       0     1.38509912     0.01004342
      11     bnd       2       3       0       0     2.52918455    -0.29992208
      12     bnd       1       3       0       0     3.23426321    -0.48269026
      13     bnd       2       6       0       0     2.86931457    -0.28787427
      14     bnd       2       8       0       0     2.85453531    -0.31310569
      15     bnd       2       9       0       0     2.85936421    -0.29325168
      16     bnd       3       7       0       0     2.68091595    -0.26848404
      17     bnd       3      11       0       0     2.65898160    -0.21399245
      18     ang       5       1       2       0   125.39402663     0.01681865
      19     ang       5       1       4       0   113.64354578     0.07732236
      20     ang       5       1       3       0   113.28926705    -0.02772072
      21     ang       2       1       4       0   120.95393205    -0.09447598
      22     ang       2       1       3       0    47.69239899     0.06712899
      23     ang       4       1       3       0   109.14239894    -0.09157042
      24     ang       1       2       7       0   121.46869234     0.02767331
      25     ang       1       2      11       0   119.99905032    -0.01530870
      26     ang       1       2       3       0   108.96644150    -0.13175272
      27     ang       1       2       6       0    97.53988224    -0.13750688
      28     ang       1       2       8       0   131.14463719    -0.10599176
      29     ang       1       2       9       0    96.68900020    -0.13967398
      30     ang       7       2      11       0   117.47579498     0.01322997
      31     ang       7       2       3       0    85.98347786     0.00095663
      32     ang       7       2       6       0   107.95227805     0.02453566
      33     ang       7       2       8       0    74.24572039    -0.01565029
      34     ang       7       2       9       0    76.45714920    -0.00525044
      35     ang      11       2       3       0    84.73652932     0.03111668
      36     ang      11       2       6       0    73.78699851     0.01239038
      37     ang      11       2       8       0    74.62565444     0.02498631
      38     ang      11       2       9       0   106.83994015     0.05581359
      39     ang       6       2       8       0    38.02481348     0.04246615
      40     ang       6       2       9       0    37.97012001     0.04015188
      41     ang       8       2       9       0    38.09634285     0.04271653
      42     ang       9       3       6       0   118.73651965     0.00100537
      43     ang       9       3       8       0   118.77931594     0.00747413
      44     ang       9       3       2       0    96.35861782    -0.01110794
      45     ang       9       3       1       0    84.11275646    -0.04468208
      46     ang       9       3       7       0    85.44877144    -0.01825918
      47     ang       9       3      11       0   120.32160398     0.01000403
      48     ang       6       3       8       0   118.75044702     0.00873712
      49     ang       6       3       2       0    96.95231297    -0.00782064
      50     ang       6       3       1       0    85.54482288    -0.03998443
      51     ang       6       3       7       0   120.69086289     0.01787989
      52     ang       6       3      11       0    84.30433641    -0.02461122
      53     ang       8       3       2       0    96.03838274    -0.02101618
      54     ang       8       3       1       0   119.37267571     0.04361939
      55     ang       8       3       7       0    82.89173902    -0.03761758
      56     ang       8       3      11       0    84.40652930    -0.02273684
      57     ang       1       3       7       0    40.91837798     0.07885825
      58     ang       1       3      11       0    40.65757928     0.06873659
      59     ang       7       3      11       0    40.62217149     0.04100029
      60     ang       1       5      10       0   127.62629604    -0.02462174
      61     ang       1       5      12       0   112.81657132     0.01336894
      62     ang      10       5      12       0   119.55711100     0.01129953
      63     ang       3       6       2       0    61.04241078    -0.01584388
      64     ang       2       7       3       0    70.23475205    -0.02675832
      65     ang       3       8       2       0    61.77621953    -0.00473059
      66     ang       3       9       2       0    61.53223647    -0.01332288
      67     ang       2      11       3       0    71.29363403    -0.05190199
      68     dih       2       1       5      10   181.60759401     0.05411977
      69     dih       2       1       5      12     1.55324500     0.06225005
      70     dih       4       1       5      10     2.66493605     0.07487164
      71     dih       4       1       5      12   182.61058704     0.08300192
      72     dih       3       1       5      10   127.98661900    -0.01287899
      73     dih       3       1       5      12   -52.06773001    -0.00474871
      74     dih       5       1       2       7     6.57089611    -0.05551069
      75     dih       5       1       2      11   174.51949564     0.06942552
      76     dih       5       1       2       3   269.47629559     0.01660872
      77     dih       5       1       2       6   250.11321858     0.00223229
      78     dih       5       1       2       8   270.13775150     0.01893850
      79     dih       5       1       2       9   -71.61987950     0.03012220
      80     dih       4       1       2       7   185.44144660    -0.07533986
      81     dih       4       1       2      11    -6.60995388     0.04959634
      82     dih       4       1       2       3    88.34684608    -0.00322045
      83     dih       4       1       2       6    68.98376907    -0.01759688
      84     dih       4       1       2       8    89.00830198    -0.00089068
      85     dih       4       1       2       9   107.25067099     0.01029302
      86     dih       3       1       2       7    97.09460052    -0.07211941
      87     dih       3       1       2      11   265.04320005     0.05281679
      88     dih       3       1       2       6   -19.36307700    -0.01437643
      89     dih       3       1       2       8     0.66145591     0.00232977
      90     dih       3       1       2       9    18.90382492     0.01351347
      91     dih       6       3       9       2   101.53704470    -0.01530602
      92     dih       8       3       9       2   259.51531032     0.02908449
      93     dih       1       3       9       2    19.90900525     0.05526790
      94     dih       7       3       9       2   -21.16645475    -0.02554237
      95     dih      11       3       9       2     0.60966689     0.01054313
      96     dih       9       3       6       2   258.80762028     0.01722172
      97     dih       8       3       6       2   100.82294577    -0.02684698
      98     dih       1       3       6       2   -20.40242235    -0.05616709
      99     dih       7       3       6       2     1.52899467     0.00555194
     100     dih      11       3       6       2    20.40412616     0.01441952
     101     dih       1       2       7       3   250.18279510     0.14920619
     102     dih      11       2       7       3    81.94244269     0.03400662
     103     dih       6       2       7       3     1.28418498     0.00465191
     104     dih       8       2       7       3    19.14902812     0.02084961
     105     dih       9       2       7       3   -20.21559441    -0.02474929
     106     dih       9       3       8       2   100.67093511    -0.02334312
     107     dih       6       3       8       2   258.64611086     0.01920729
     108     dih       1       3       8       2     0.59974251     0.00146897
     109     dih       7       3       8       2    19.86225649     0.02012626
     110     dih      11       3       8       2   -20.99471679    -0.02348337
     111     dih       1       2      11       3   108.88646197    -0.13768069
     112     dih       7       2      11       3   -82.69271015    -0.01514562
     113     dih       6       2      11       3    19.46413504     0.01606579
     114     dih       8       2      11       3   -20.10424768    -0.02489567
     115     dih       9       2      11       3     0.50939760     0.00841584
     116     dih       1       2       3       9    58.75300146    -0.00502779
     117     dih       1       2       3       6   -61.30856967    -0.00171870
     118     dih       1       2       3       8   178.68078217    -0.00438152
     119     dih       1       2       3       7   121.95336421     0.00863513
     120     dih       1       2       3      11   240.04849747     0.01874328
     121     dih       7       2       3       9   -63.20036275    -0.01366292
     122     dih       7       2       3       6   176.73806612    -0.01035383
     123     dih       7       2       3       8    56.72741795    -0.01301665
     124     dih       7       2       3       1   238.04663579    -0.00863513
     125     dih       7       2       3      11   118.09513325     0.01010816
     126     dih      11       2       3       9   178.70450399    -0.02377107
     127     dih      11       2       3       6    58.64293287    -0.02046198
     128     dih      11       2       3       8   -61.36771530    -0.02312480
     129     dih      11       2       3       1   119.95150253    -0.01874328
     130     dih      11       2       3       7   241.90486675    -0.01010816
     131     dih       6       2       3       9   120.06157113    -0.00330909
     132     dih       6       2       3       8   239.98935183    -0.00266282
     133     dih       6       2       3       1    61.30856967     0.00171870
     134     dih       6       2       3       7   183.26193388     0.01035383
     135     dih       6       2       3      11   -58.64293287     0.02046198
     136     dih       8       2       3       9   240.07221930    -0.00064627
     137     dih       8       2       3       6   120.01064817     0.00266282
     138     dih       8       2       3       1   181.31921783     0.00438152
     139     dih       8       2       3       7   -56.72741795     0.01301665
     140     dih       8       2       3      11    61.36771530     0.02312480
     141     dih       9       2       3       6   239.93842887     0.00330909
     142     dih       9       2       3       8   119.92778070     0.00064627
     143     dih       9       2       3       1   -58.75300146     0.00502779
     144     dih       9       2       3       7    63.20036275     0.01366292
     145     dih       9       2       3      11   181.29549601     0.02377107
     146     dih       5       1       3       9    -3.88652623     0.05275265
     147     dih       5       1       3       6   236.58666505     0.04070735
     148     dih       5       1       3       8   115.93821275     0.04459650
     149     dih       5       1       3       2   117.44367683     0.04941369
     150     dih       5       1       3       7    85.95137626     0.07271130
     151     dih       5       1       3      11   150.14503651     0.03653026
     152     dih       2       1       3       9   238.66979694     0.00333896
     153     dih       2       1       3       6   119.14298823    -0.00870634
     154     dih       2       1       3       8    -1.50546407    -0.00481720
     155     dih       2       1       3       7   -31.49230056     0.02329761
     156     dih       2       1       3      11    32.70135969    -0.01288343
     157     dih       4       1       3       9   123.81792447     0.05816450
     158     dih       4       1       3       6     4.29111575     0.04611920
     159     dih       4       1       3       8   243.64266345     0.05000834
     160     dih       4       1       3       2   245.14812753     0.05482554
     161     dih       4       1       3       7   213.65582697     0.07812315
     162     dih       4       1       3      11   -82.15051279     0.04194211
     163     dih       1       2       6       3   123.19328906    -0.04250017
     164     dih       7       2       6       3    -3.42063603    -0.01115208
     165     dih      11       2       6       3   242.32033822    -0.02500230
     166     dih       8       2       6       3   -32.06018616    -0.00459928
     167     dih       9       2       6       3    31.96842004     0.00669091
     168     dih       1       2       8       3    -1.65680666    -0.00594553
     169     dih       7       2       8       3   240.06237590    -0.00740155
     170     dih      11       2       8       3   114.98069062    -0.01852542
     171     dih       6       2       8       3    31.78377797     0.00168012
     172     dih       9       2       8       3   -31.91596300    -0.00338219
     173     dih       1       2       9       3   234.49501108     0.03662731
     174     dih       7       2       9       3   113.67157847    -0.01787403
     175     dih      11       2       9       3    -1.34784087    -0.02407573
     176     dih       6       2       9       3   -31.80892741    -0.00550608
     177     dih       8       2       9       3    32.03291138     0.00512629
     178     dih       9       3       7       2   117.13885459    -0.01830146
     179     dih       6       3       7       2    -3.76602560    -0.01230101
     180     dih       8       3       7       2   236.91597728    -0.00261903
     181     dih       1       3       7       2    30.88072682     0.03198576
     182     dih      11       3       7       2   -33.39840753     0.00430083
     183     dih       9       3      11       2    -1.49160592    -0.02737046
     184     dih       6       3      11       2   238.41539952    -0.01489817
     185     dih       8       3      11       2   118.71514937    -0.03081736
     186     dih       1       3      11       2   -31.79587771    -0.04923522
     187     dih       7       3      11       2    33.11974762     0.00334918
 
----------------------------------------------------------------------
Geometry Convergence after Step  18       (Hartree/Angstrom,Angstrom)
----------------------------------------------------------------------
current energy                               -2.36442898 Hartree
energy change                       0.00000066     0.00012000    T
constrained gradient max            0.00105628     0.00100000    F
constrained gradient rms            0.00039593     0.00066667    T
gradient max                        0.00105628
gradient rms                        0.00039593
cart. step max                      0.00582221     0.01000000    T
cart. step rms                      0.00187946     0.00666667    T
 
 
--------
Geometry
--------
Formula: C4H6FO
Atoms
  Index Symbol   x (angstrom)   y (angstrom)   z (angstrom)
      1      C     0.82788981    -0.21118056     0.86548646
      2      C     0.83395501    -0.23976724    -0.48936080
      3      C    -1.54389884    -0.45943803    -1.31549995
      4      H     0.87775344    -1.12986430     1.44401509
      5      C     0.73313328     0.99356567     1.68570754
      6      H    -1.75917644    -1.41130191    -0.84581572
      7      H     0.87274964     0.67180709    -1.07418321
      8      H    -1.30030328    -0.44260614    -2.37152502
      9      H    -1.91641872     0.44556361    -0.85210572
     10      O     0.74934006     1.06738985     2.88137166
     11      H     0.99752719    -1.17652357    -1.01131932
     12      F     0.61259347     2.14906542     0.93139431
 
Total System Charge             0.00000
 
 *** GOStep19 ***
