
 *******************************************************************************
 *                                                                             *
 *  --------------------------------                                           *
 *   Amsterdam Modeling Suite (AMS)              2021.102                      *
 *  --------------------------------                                           *
 *                                               r95042 2021-06-07             *
 *                                                                             *
 *                                                                             *
 *                              =================                              *
 *                              |               |                              *
 *                              |     A M S     |                              *
 *                              |               |                              *
 *                              =================                              *
 *                                                                             *
 *                                                                             *
 *   Online information and documentation:  https://www.scm.com/support/       *
 *   E-mail:  support@scm.com   info@scm.com                                   *
 *                                                                             *
 *   Scientific publications using AMS results must be properly referenced     *
 *   See the User Manuals (or the web site) for recommended citations          *
 *   The terms and conditions of the End User License Agreement apply to       *
 *   the use of AMS, https://www.scm.com/license-terms/                        *
 *                                                                             *
 **********************  x86_64_linux_intel / intelmpi  ************************
 
 Licensed to: VU/FEW (+ SARA) / ALGEMEEN / Amsterdam / THE NETHERLANDS
 SCM User ID: u7668
  
 AMS 2021.102  RunTime: Jan21-2022 00:36:21  ShM Nodes: 1  Procs: 1

 AMS jobname: 11.no_catalyst_F_H.TS
 AMS jobid  : 672408238

 Start   directory: /scistor/tc/yhk800/MasterProject/calculations/no_catalyst_F_H/11.no_catalyst_F_H.TS/
 Results directory: /scistor/tc/yhk800/MasterProject/calculations/no_catalyst_F_H/11.no_catalyst_F_H.TS/
 Scratch directory: /scratch/3670/amstmp_11.no_catalyst_F_H.TS_kid0.672408238/

 RNG seed: 855096629 997371667 1057157231 1587875628 171819553 -2073696302 1693604509 1045624902



                      ************************************************************************
                      *  ADF 2021.102  RunTime: Jan21-2022 00:36:21  ShM Nodes: 1  Procs: 1  *
                      ************************************************************************
  
       *****************************
       *  TRANSITION STATE SEARCH  *
       *****************************

Optimization Method                    Quasi Newton
Optimization Coordinates               Delocalized Coordinates
Optimize lattice                       F
 
 ------------------------------------------------------
 Convergence criteria (Hartree,Angstrom)
 ------------------------------------------------------
 Maximum gradient               0.001000000000
 Maximum rms gradient           0.000666666667
 Maximum step allowed           0.010000000000
 Maximum rms step allowed       0.006666666667
 Maximum energy change allowe   0.000120000000
 Maximum stress energy allowe   0.000500000000
 
Initial model Hessian                  Automatic Hessian
 
------------------------------------
Quasi-Newton Optimizer Parameters
------------------------------------
Hessian Update Method                  Bofill
Maximum number of steps                  250
First GDIIS cycle                          0
Maximum GDIIS vectors                      0
Trust radius (bohr)                        0.200000
Trust radius varies                        F
Constraints converged at all steps         T
Use projector                              T
 
 Rigid motions settings for: old optimizer
 Atomic rotations (x,y,z):     T T T
 Atomic translations (x,y,z):  T T T
 Tolerance:                   1.000000000000000E-006
 
           1  TSRC entries:
    i   type      a1    a2    a3    a4    coef
    1 Distance     2     3               -1.000
 
--------
Geometry
--------
Formula: C4H6FO
Atoms
  Index Symbol   x (angstrom)   y (angstrom)   z (angstrom)
      1      C     0.81668000    -0.23471900     0.88197500
      2      C     0.81678400    -0.23413100    -0.47719300
      3      C    -1.53160000    -0.46998000    -1.30857600
      4      H     0.85636200    -1.16386700     1.44859300
      5      C     0.73893400     1.00063500     1.66014300
      6      H    -1.75224300    -1.42324600    -0.84366900
      7      H     0.86540100     0.70149500    -1.02879400
      8      H    -1.29572100    -0.45322200    -2.36675600
      9      H    -1.93437200     0.42729600    -0.85485600
     10      O     0.73088900     1.05622100     2.88164900
     11      H     0.99495642    -1.13003362    -1.03443002
     12      F     0.67907420     2.18026153     0.89007934
 
Total System Charge             0.00000
 
 
----------------
ADF Engine Input
----------------
 
 NumericalQuality VeryGood
 SCF
 Converge 1.0e-6
 Iterations 99
 End
 SYMMETRY NOSYM
 SpinPolarization 1.0
 Unrestricted Yes
 XC
 GGA OLYP
 End
 basis
 core None
 type TZ2P
 End
 

 Title: *** (NO TITLE) ***

 Using automatic Hessian for delocalized coordinates.
 *** GOStep1 ***

 Energy gradients wrt nuclear displacements
 ==========================================

     Atom      Cartesian (a.u./angstrom)
                 X         Y         Z
 ----------------------------------------
     1 C     0.000765 -0.017479  0.018973
     2 C     0.002431 -0.015597 -0.004157
     3 C     0.000349 -0.000260 -0.000241
     4 H     0.000296 -0.007807 -0.002929
     5 C     0.000093  0.001747 -0.066713
     6 H    -0.000196  0.000285  0.000048
     7 H     0.000404  0.003763 -0.002460
     8 H    -0.000277 -0.000012 -0.000074
     9 H    -0.000522 -0.000365 -0.000028
    10 O     0.000334 -0.011985  0.069904
    11 H    -0.002760  0.018396  0.007774
    12 F    -0.000917  0.029313 -0.020096
 ----------------------------------------
 Mulliken charges used for AMS results%charges...
           Primitive Internal Coordinates (atoms in internal order)
-------------------------------------------------------------------------------
    index    type      i       j       k       l   value(A,deg)     TSRC Vect
-------------------------------------------------------------------------------
       1     bnd       1       5       0       0     1.46208392    -0.00000000
       2     bnd       1       2       0       0     1.35916813     0.04479268
       3     bnd       3       9       0       0     1.08313958     0.02690305
       4     bnd       1       4       0       0     1.08901177    -0.00000000
       5     bnd       3       6       0       0     1.08329955     0.02663923
       6     bnd       2       7       0       0     1.08720894     0.01630736
       7     bnd       3       8       0       0     1.08428070     0.02926956
       8     bnd       5      10       0       0     1.22279656    -0.00000000
       9     bnd       2      11       0       0     1.07000001     0.01192701
      10     bnd       5      12       0       0     1.41000000    -0.00000000
      11     bnd       2       3       0       0     2.50234487    -0.14439287
      12     bnd       1       3       0       0     3.21998143    -0.08845678
      13     bnd       2       6       0       0     2.85450501    -0.09171576
      14     bnd       2       8       0       0     2.84273224    -0.09097435
      15     bnd       2       9       0       0     2.85464085    -0.09162039
      16     bnd       3       7       0       0     2.68258186    -0.09715668
      17     bnd       3      11       0       0     2.62570260    -0.09970240
      18     ang       5       1       2       0   122.13193049     0.00521399
      19     ang       5       1       4       0   116.48149708    -0.00688352
      20     ang       5       1       3       0   112.64562536     0.00973384
      21     ang       2       1       4       0   121.37727346     0.00158420
      22     ang       2       1       3       0    47.13980479    -0.01996672
      23     ang       4       1       3       0   108.55407601     0.00760328
      24     ang       1       2       7       0   120.51279539    -0.00751574
      25     ang       1       2      11       0   121.36128216    -0.00632428
      26     ang       1       2       3       0   109.39804563     0.00718623
      27     ang       1       2       6       0    97.36189422     0.00046005
      28     ang       1       2       8       0   131.65236189     0.01918542
      29     ang       1       2       9       0    97.60393042     0.00044784
      30     ang       7       2      11       0   116.67222783     0.00524026
      31     ang       7       2       3       0    87.39281970     0.01512433
      32     ang       7       2       6       0   109.48758492     0.02643907
      33     ang       7       2       8       0    76.25016237     0.00886246
      34     ang       7       2       9       0    77.08981866     0.00882184
      35     ang      11       2       3       0    84.51010404     0.01486022
      36     ang      11       2       6       0    74.58595081     0.00884666
      37     ang      11       2       8       0    73.32443789     0.00868490
      38     ang      11       2       9       0   106.59375947     0.02621540
      39     ang       6       2       8       0    38.16371016     0.01972913
      40     ang       6       2       9       0    38.01699289     0.01935327
      41     ang       8       2       9       0    38.16203879     0.01975683
      42     ang       9       3       6       0   118.25885447    -0.00663164
      43     ang       9       3       8       0   118.48323850    -0.00711804
      44     ang       9       3       2       0    97.56929804     0.01622358
      45     ang       9       3       1       0    85.73843521     0.00883083
      46     ang       9       3       7       0    85.80331135     0.00868206
      47     ang       9       3      11       0   121.48827574     0.02839201
      48     ang       6       3       8       0   118.47247906    -0.00706732
      49     ang       6       3       2       0    97.55621160     0.01623869
      50     ang       6       3       1       0    85.46171991     0.00882796
      51     ang       6       3       7       0   121.43376470     0.02854592
      52     ang       6       3      11       0    85.98434689     0.00885558
      53     ang       8       3       2       0    96.81291220     0.01588123
      54     ang       8       3       1       0   120.27444570     0.02866179
      55     ang       8       3       7       0    84.29830723     0.00879637
      56     ang       8       3      11       0    84.05640983     0.00878086
      57     ang       1       3       7       0    41.01789145     0.02117921
      58     ang       1       3      11       0    41.02628758     0.02110946
      59     ang       7       3      11       0    40.45513557     0.02075255
      60     ang       1       5      10       0   124.78014579    -0.00000000
      61     ang       1       5      12       0   114.73739867     0.00000000
      62     ang      10       5      12       0   120.48134630    -0.00000000
      63     ang       3       6       2       0    60.34468769    -0.02755152
      64     ang       2       7       3       0    68.72451165    -0.02742977
      65     ang       3       8       2       0    60.93212808    -0.02788032
      66     ang       3       9       2       0    60.33684884    -0.02757832
      67     ang       2      11       3       0    71.55860906    -0.02702927
      68     dih       2       1       5      10   179.74813341    -0.00792984
      69     dih       2       1       5      12    -0.63506953    -0.00792984
      70     dih       4       1       5      10     0.84367616    -0.00291417
      71     dih       4       1       5      12   180.46047323    -0.00291417
      72     dih       3       1       5      10   127.21624574     0.01084401
      73     dih       3       1       5      12   -53.16695720     0.01084401
      74     dih       5       1       2       7     6.57009342     0.02221798
      75     dih       5       1       2      11   172.35502872    -0.01839394
      76     dih       5       1       2       3   267.85385074     0.00209181
      77     dih       5       1       2       6   248.75690649    -0.00766707
      78     dih       5       1       2       8   267.65479661     0.00202092
      79     dih       5       1       2       9   -72.88759900     0.01191440
      80     dih       4       1       2       7   185.42152053     0.01687134
      81     dih       4       1       2      11    -8.79354417    -0.02374058
      82     dih       4       1       2       3    86.70527785    -0.00325483
      83     dih       4       1       2       6    67.60833360    -0.01301372
      84     dih       4       1       2       8    86.50622373    -0.00332573
      85     dih       4       1       2       9   105.96382811     0.00656776
      86     dih       3       1       2       7    98.71624268     0.02012617
      87     dih       3       1       2      11   264.50117798    -0.02048575
      88     dih       3       1       2       6   -19.09694425    -0.00975888
      89     dih       3       1       2       8    -0.19905413    -0.00007089
      90     dih       3       1       2       9    19.25855026     0.00982259
      91     dih       6       3       9       2   102.82836572     0.02662757
      92     dih       8       3       9       2   257.98018397    -0.02617358
      93     dih       1       3       9       2    20.30570963     0.01068283
      94     dih       7       3       9       2   -20.82918846    -0.01007666
      95     dih      11       3       9       2    -0.82262789    -0.00035798
      96     dih       9       3       6       2   257.16400671    -0.02661896
      97     dih       8       3       6       2   102.00948582     0.02618919
      98     dih       1       3       6       2   -20.14929510    -0.01064504
      99     dih       7       3       6       2     0.52968161     0.00012654
     100     dih      11       3       6       2    20.99355189     0.01003677
     101     dih       1       2       7       3   248.95626953    -0.01638682
     102     dih      11       2       7       3    82.52763162     0.02387965
     103     dih       6       2       7       3     0.44547776     0.00004405
     104     dih       8       2       7       3    19.49721097     0.00980451
     105     dih       9       2       7       3   -19.75505464    -0.00907959
     106     dih       9       3       8       2   102.45974316     0.02639111
     107     dih       6       3       8       2   257.55808319    -0.02641483
     108     dih       1       3       8       2    -0.18104675    -0.00006382
     109     dih       7       3       8       2    20.38290605     0.01019953
     110     dih      11       3       8       2   -20.29058747    -0.01001133
     111     dih       1       2      11       3   109.40048384     0.01684084
     112     dih       7       2      11       3   -84.29422306    -0.02394593
     113     dih       6       2      11       3    20.10982482     0.00907258
     114     dih       8       2      11       3   -19.64380594    -0.00974187
     115     dih       9       2      11       3    -0.67870888    -0.00018841
     116     dih       1       2       3       9    60.36685908     0.00014480
     117     dih       1       2       3       6   -59.59533627    -0.00045332
     118     dih       1       2       3       8   180.39271465    -0.00017808
     119     dih       1       2       3       7   121.52101014    -0.00106815
     120     dih       1       2       3      11   238.63730914     0.00074508
     121     dih       7       2       3       9   -61.15415106     0.00121295
     122     dih       7       2       3       6   178.88365359     0.00061483
     123     dih       7       2       3       8    58.87170451     0.00089007
     124     dih       7       2       3       1   238.47898986     0.00106815
     125     dih       7       2       3      11   117.11629900     0.00181323
     126     dih      11       2       3       9   181.72954994    -0.00060028
     127     dih      11       2       3       6    61.76735459    -0.00119840
     128     dih      11       2       3       8   -58.24459449    -0.00092316
     129     dih      11       2       3       1   121.36269086    -0.00074508
     130     dih      11       2       3       7   242.88370100    -0.00181323
     131     dih       6       2       3       9   119.96219535     0.00059812
     132     dih       6       2       3       8   239.98805092     0.00027524
     133     dih       6       2       3       1    59.59533627     0.00045332
     134     dih       6       2       3       7   181.11634641    -0.00061483
     135     dih       6       2       3      11   -61.76735459     0.00119840
     136     dih       8       2       3       9   239.97414443     0.00032288
     137     dih       8       2       3       6   120.01194908    -0.00027524
     138     dih       8       2       3       1   179.60728535     0.00017808
     139     dih       8       2       3       7   -58.87170451    -0.00089007
     140     dih       8       2       3      11    58.24459449     0.00092316
     141     dih       9       2       3       6   240.03780465    -0.00059812
     142     dih       9       2       3       8   120.02585557    -0.00032288
     143     dih       9       2       3       1   -60.36685908    -0.00014480
     144     dih       9       2       3       7    61.15415106    -0.00121295
     145     dih       9       2       3      11   178.27045006     0.00060028
     146     dih       5       1       3       9    -6.70885435    -0.00667420
     147     dih       5       1       3       6   234.46351100     0.00233166
     148     dih       5       1       3       8   113.97123608    -0.00207422
     149     dih       5       1       3       2   113.51971531    -0.00198637
     150     dih       5       1       3       7    81.79279287    -0.00452005
     151     dih       5       1       3      11   145.36861586     0.00025840
     152     dih       2       1       3       9   239.77143035    -0.00468782
     153     dih       2       1       3       6   120.94379569     0.00431803
     154     dih       2       1       3       8     0.45152078    -0.00008785
     155     dih       2       1       3       7   -31.72692244    -0.00253368
     156     dih       2       1       3      11    31.84890055     0.00224478
     157     dih       4       1       3       9   123.80841936    -0.00181578
     158     dih       4       1       3       6     4.98078471     0.00719008
     159     dih       4       1       3       8   244.48850980     0.00278420
     160     dih       4       1       3       2   244.03698902     0.00287205
     161     dih       4       1       3       7   212.31006658     0.00033837
     162     dih       4       1       3      11   -84.11411043     0.00511682
     163     dih       1       2       6       3   124.88764731     0.00316217
     164     dih       7       2       6       3    -1.18296723     0.00044411
     165     dih      11       2       6       3   245.46600317    -0.00362440
     166     dih       8       2       6       3   -32.05539858    -0.00274125
     167     dih       9       2       6       3    31.94330304     0.00179020
     168     dih       1       2       8       3     0.49575478    -0.00009904
     169     dih       7       2       8       3   241.68513846    -0.00174912
     170     dih      11       2       8       3   117.92511051     0.00113566
     171     dih       6       2       8       3    31.81706571     0.00180946
     172     dih       9       2       8       3   -31.80538315    -0.00187154
     173     dih       1       2       9       3   235.80616395    -0.00351500
     174     dih       7       2       9       3   116.14173452     0.00407809
     175     dih      11       2       9       3     1.79645291    -0.00033370
     176     dih       6       2       9       3   -31.95136330    -0.00172181
     177     dih       8       2       9       3    32.05169900     0.00273514
     178     dih       9       3       7       2   119.46891254     0.00612504
     179     dih       6       3       7       2    -1.29702339     0.00036811
     180     dih       8       3       7       2   238.67074179    -0.00367677
     181     dih       1       3       7       2    31.14063561     0.00347590
     182     dih      11       3       7       2   -33.81065462    -0.00144349
     183     dih       9       3      11       2     2.01064384    -0.00016307
     184     dih       6       3      11       2   241.10811001    -0.00619594
     185     dih       8       3      11       2   121.91193176     0.00359725
     186     dih       1       3      11       2   -31.19334464    -0.00341436
     187     dih       7       3      11       2    33.73730423     0.00168721
Hessian eigenvector     1(     0.004) has overlap with TSRC:    0.37271E-04
Hessian eigenvector     2(     0.008) has overlap with TSRC:    0.84449E-04
Hessian eigenvector     3(     0.009) has overlap with TSRC:    0.62996E-04
Hessian eigenvector     4(     0.009) has overlap with TSRC:    0.42479E-02
Hessian eigenvector     5(     0.010) has overlap with TSRC:    0.52963E-02
Hessian eigenvector     6(     0.020) has overlap with TSRC:    0.11492E+00
Hessian eigenvector     7(     0.021) has overlap with TSRC:    0.31713E-01
Hessian eigenvector     8(     0.024) has overlap with TSRC:    0.27267E-01
Hessian eigenvector     9(     0.024) has overlap with TSRC:    0.97652E-02
Hessian eigenvector    10(     0.032) has overlap with TSRC:    0.12558E+00
Hessian eigenvector    11(     0.048) has overlap with TSRC:    0.89405E-02
Hessian eigenvector    12(     0.055) has overlap with TSRC:    0.56084E-02
Hessian eigenvector    13(     0.062) has overlap with TSRC:    0.39033E-02
Hessian eigenvector    14(     0.063) has overlap with TSRC:    0.14582E-02
Hessian eigenvector    15(     0.067) has overlap with TSRC:    0.35345E-01
Hessian eigenvector    16(     0.073) has overlap with TSRC:    0.35163E-01
Hessian eigenvector    17(     0.094) has overlap with TSRC:    0.25095E+00
Hessian eigenvector    18(     0.105) has overlap with TSRC:    0.37098E-01
Hessian eigenvector    19(     0.232) has overlap with TSRC:    0.25499E-08
Hessian eigenvector    20(     0.253) has overlap with TSRC:    0.66462E-10
Hessian eigenvector    21(     0.361) has overlap with TSRC:    0.14489E-04
Hessian eigenvector    22(     0.365) has overlap with TSRC:    0.12730E-01
Hessian eigenvector    23(     0.375) has overlap with TSRC:    0.23695E-01
Hessian eigenvector    24(     0.380) has overlap with TSRC:    0.22613E-01
Hessian eigenvector    25(     0.382) has overlap with TSRC:    0.21374E-01
Hessian eigenvector    26(     0.420) has overlap with TSRC:    0.50735E-01
Hessian eigenvector    27(     0.500) has overlap with TSRC:    0.16969E-14
Hessian eigenvector    28(     0.526) has overlap with TSRC:    0.18215E-16
Hessian eigenvector    29(     0.528) has overlap with TSRC:    0.22072E-15
Hessian eigenvector    30(     0.601) has overlap with TSRC:    0.34239E-15
Hessian eigenvector    17 has the largest overlap with TSRC:  0.25095
           Primitive Internal Coordinates (atoms in internal order)
-------------------------------------------------------------------------------
    index    type      i       j       k       l   value(A,deg)     Max Ovl Vect
-------------------------------------------------------------------------------
       1     bnd       1       5       0       0     1.46208392     0.00000000
       2     bnd       1       2       0       0     1.35916813    -0.04692353
       3     bnd       3       9       0       0     1.08313958    -0.00936941
       4     bnd       1       4       0       0     1.08901177    -0.00000000
       5     bnd       3       6       0       0     1.08329955    -0.00908762
       6     bnd       2       7       0       0     1.08720894    -0.01260200
       7     bnd       3       8       0       0     1.08428070    -0.00677567
       8     bnd       5      10       0       0     1.22279656     0.00000000
       9     bnd       2      11       0       0     1.07000001    -0.01288904
      10     bnd       5      12       0       0     1.41000000     0.00000000
      11     bnd       2       3       0       0     2.50234487     0.35490169
      12     bnd       1       3       0       0     3.21998143     0.43073442
      13     bnd       2       6       0       0     2.85450501     0.32219832
      14     bnd       2       8       0       0     2.84273224     0.33795777
      15     bnd       2       9       0       0     2.85464085     0.32394916
      16     bnd       3       7       0       0     2.68258186     0.31488190
      17     bnd       3      11       0       0     2.62570260     0.31992501
      18     ang       5       1       2       0   122.13193049    -0.05350715
      19     ang       5       1       4       0   116.48149708     0.13136770
      20     ang       5       1       3       0   112.64562536    -0.03680025
      21     ang       2       1       4       0   121.37727346    -0.07861714
      22     ang       2       1       3       0    47.13980479    -0.02303494
      23     ang       4       1       3       0   108.55407601    -0.05653466
      24     ang       1       2       7       0   120.51279539    -0.01554268
      25     ang       1       2      11       0   121.36128216    -0.00809628
      26     ang       1       2       3       0   109.39804563     0.07281641
      27     ang       1       2       6       0    97.36189422     0.08478483
      28     ang       1       2       8       0   131.65236189     0.04537820
      29     ang       1       2       9       0    97.60393042     0.08331313
      30     ang       7       2      11       0   116.67222783     0.00668458
      31     ang       7       2       3       0    87.39281970    -0.00264256
      32     ang       7       2       6       0   109.48758492    -0.02861009
      33     ang       7       2       8       0    76.25016237     0.01172478
      34     ang       7       2       9       0    77.08981866     0.00727487
      35     ang      11       2       3       0    84.51010404    -0.00020303
      36     ang      11       2       6       0    74.58595081     0.00893827
      37     ang      11       2       8       0    73.32443789     0.01384161
      38     ang      11       2       9       0   106.59375947    -0.02639632
      39     ang       6       2       8       0    38.16371016    -0.04561674
      40     ang       6       2       9       0    38.01699289    -0.04370059
      41     ang       8       2       9       0    38.16203879    -0.04589798
      42     ang       9       3       6       0   118.25885447     0.00325220
      43     ang       9       3       8       0   118.48323850    -0.00317852
      44     ang       9       3       2       0    97.56929804    -0.00014327
      45     ang       9       3       1       0    85.73843521     0.02474223
      46     ang       9       3       7       0    85.80331135     0.01288601
      47     ang       9       3      11       0   121.48827574    -0.03155012
      48     ang       6       3       8       0   118.47247906    -0.00258363
      49     ang       6       3       2       0    97.55621160    -0.00119953
      50     ang       6       3       1       0    85.46171991     0.02569953
      51     ang       6       3       7       0   121.43376470    -0.03144328
      52     ang       6       3      11       0    85.98434689     0.01235035
      53     ang       8       3       2       0    96.81291220     0.00713907
      54     ang       8       3       1       0   120.27444570    -0.04263380
      55     ang       8       3       7       0    84.29830723     0.02367449
      56     ang       8       3      11       0    84.05640983     0.02453551
      57     ang       1       3       7       0    41.01789145    -0.06947779
      58     ang       1       3      11       0    41.02628758    -0.06945663
      59     ang       7       3      11       0    40.45513557    -0.04970462
      60     ang       1       5      10       0   124.78014579     0.00000018
      61     ang       1       5      12       0   114.73739867     0.00000022
      62     ang      10       5      12       0   120.48134630     0.00000018
      63     ang       3       6       2       0    60.34468769     0.02719021
      64     ang       2       7       3       0    68.72451165     0.03291479
      65     ang       3       8       2       0    60.93212808     0.02030714
      66     ang       3       9       2       0    60.33684884     0.02637073
      67     ang       2      11       3       0    71.55860906     0.03165493
      68     dih       2       1       5      10   179.74813341    -0.03149197
      69     dih       2       1       5      12    -0.63506953    -0.03139208
      70     dih       4       1       5      10     0.84367616     0.01383865
      71     dih       4       1       5      12   180.46047323     0.01393854
      72     dih       3       1       5      10   127.21624574     0.01545071
      73     dih       3       1       5      12   -53.16695720     0.01555060
      74     dih       5       1       2       7     6.57009342     0.05711997
      75     dih       5       1       2      11   172.35502872    -0.02346090
      76     dih       5       1       2       3   267.85385074     0.02000126
      77     dih       5       1       2       6   248.75690649     0.03763964
      78     dih       5       1       2       8   267.65479661     0.02124003
      79     dih       5       1       2       9   -72.88759900     0.00120598
      80     dih       4       1       2       7   185.42152053     0.01186789
      81     dih       4       1       2      11    -8.79354417    -0.06871298
      82     dih       4       1       2       3    86.70527785    -0.02525082
      83     dih       4       1       2       6    67.60833360    -0.00761244
      84     dih       4       1       2       8    86.50622373    -0.02401205
      85     dih       4       1       2       9   105.96382811    -0.04404610
      86     dih       3       1       2       7    98.71624268     0.03711871
      87     dih       3       1       2      11   264.50117798    -0.04346216
      88     dih       3       1       2       6   -19.09694425     0.01763838
      89     dih       3       1       2       8    -0.19905413     0.00123877
      90     dih       3       1       2       9    19.25855026    -0.01879528
      91     dih       6       3       9       2   102.82836572    -0.00063876
      92     dih       8       3       9       2   257.98018397    -0.00743555
      93     dih       1       3       9       2    20.30570963    -0.04323657
      94     dih       7       3       9       2   -20.82918846     0.02748376
      95     dih      11       3       9       2    -0.82262789     0.00215280
      96     dih       9       3       6       2   257.16400671     0.00002359
      97     dih       8       3       6       2   102.00948582     0.00696928
      98     dih       1       3       6       2   -20.14929510     0.04205904
      99     dih       7       3       6       2     0.52968161    -0.00188019
     100     dih      11       3       6       2    20.99355189    -0.02852960
     101     dih       1       2       7       3   248.95626953    -0.08112054
     102     dih      11       2       7       3    82.52763162    -0.00233038
     103     dih       6       2       7       3     0.44547776    -0.00147668
     104     dih       8       2       7       3    19.49721097    -0.02399514
     105     dih       9       2       7       3   -19.75505464     0.02485364
     106     dih       9       3       8       2   102.45974316     0.00321877
     107     dih       6       3       8       2   257.55808319    -0.00213270
     108     dih       1       3       8       2    -0.18104675     0.00148338
     109     dih       7       3       8       2    20.38290605    -0.02547526
     110     dih      11       3       8       2   -20.29058747     0.02634058
     111     dih       1       2      11       3   109.40048384     0.08463198
     112     dih       7       2      11       3   -84.29422306     0.00406819
     113     dih       6       2      11       3    20.10982482    -0.02529459
     114     dih       8       2      11       3   -19.64380594     0.02464205
     115     dih       9       2      11       3    -0.67870888     0.00156621
     116     dih       1       2       3       9    60.36685908    -0.00054048
     117     dih       1       2       3       6   -59.59533627    -0.00359662
     118     dih       1       2       3       8   180.39271465    -0.00226093
     119     dih       1       2       3       7   121.52101014    -0.00585289
     120     dih       1       2       3      11   238.63730914     0.00126327
     121     dih       7       2       3       9   -61.15415106     0.00531242
     122     dih       7       2       3       6   178.88365359     0.00225627
     123     dih       7       2       3       8    58.87170451     0.00359196
     124     dih       7       2       3       1   238.47898986     0.00585289
     125     dih       7       2       3      11   117.11629900     0.00711616
     126     dih      11       2       3       9   181.72954994    -0.00180374
     127     dih      11       2       3       6    61.76735459    -0.00485989
     128     dih      11       2       3       8   -58.24459449    -0.00352420
     129     dih      11       2       3       1   121.36269086    -0.00126327
     130     dih      11       2       3       7   242.88370100    -0.00711616
     131     dih       6       2       3       9   119.96219535     0.00305615
     132     dih       6       2       3       8   239.98805092     0.00133569
     133     dih       6       2       3       1    59.59533627     0.00359662
     134     dih       6       2       3       7   181.11634641    -0.00225627
     135     dih       6       2       3      11   -61.76735459     0.00485989
     136     dih       8       2       3       9   239.97414443     0.00172046
     137     dih       8       2       3       6   120.01194908    -0.00133569
     138     dih       8       2       3       1   179.60728535     0.00226093
     139     dih       8       2       3       7   -58.87170451    -0.00359196
     140     dih       8       2       3      11    58.24459449     0.00352420
     141     dih       9       2       3       6   240.03780465    -0.00305615
     142     dih       9       2       3       8   120.02585557    -0.00172046
     143     dih       9       2       3       1   -60.36685908     0.00054048
     144     dih       9       2       3       7    61.15415106    -0.00531242
     145     dih       9       2       3      11   178.27045006     0.00180374
     146     dih       5       1       3       9    -6.70885435    -0.04732244
     147     dih       5       1       3       6   234.46351100    -0.04404658
     148     dih       5       1       3       8   113.97123608    -0.04646569
     149     dih       5       1       3       2   113.51971531    -0.04366333
     150     dih       5       1       3       7    81.79279287    -0.05299616
     151     dih       5       1       3      11   145.36861586    -0.03762149
     152     dih       2       1       3       9   239.77143035    -0.00365911
     153     dih       2       1       3       6   120.94379569    -0.00038324
     154     dih       2       1       3       8     0.45152078    -0.00280236
     155     dih       2       1       3       7   -31.72692244    -0.00933283
     156     dih       2       1       3      11    31.84890055     0.00604184
     157     dih       4       1       3       9   123.80841936     0.05284985
     158     dih       4       1       3       6     4.98078471     0.05612572
     159     dih       4       1       3       8   244.48850980     0.05370660
     160     dih       4       1       3       2   244.03698902     0.05650896
     161     dih       4       1       3       7   212.31006658     0.04717613
     162     dih       4       1       3      11   -84.11411043     0.06255080
     163     dih       1       2       6       3   124.88764731     0.01803427
     164     dih       7       2       6       3    -1.18296723     0.00260251
     165     dih      11       2       6       3   245.46600317    -0.01115867
     166     dih       8       2       6       3   -32.05539858     0.00516954
     167     dih       9       2       6       3    31.94330304    -0.00652928
     168     dih       1       2       8       3     0.49575478    -0.00272679
     169     dih       7       2       8       3   241.68513846    -0.00152214
     170     dih      11       2       8       3   117.92511051     0.00374403
     171     dih       6       2       8       3    31.81706571    -0.00322289
     172     dih       9       2       8       3   -31.80538315     0.00323131
     173     dih       1       2       9       3   235.80616395    -0.02181967
     174     dih       7       2       9       3   116.14173452     0.00960460
     175     dih      11       2       9       3     1.79645291    -0.00212088
     176     dih       6       2       9       3   -31.95136330     0.00615704
     177     dih       8       2       9       3    32.05169900    -0.00480303
     178     dih       9       3       7       2   119.46891254     0.00681802
     179     dih       6       3       7       2    -1.29702339     0.00305308
     180     dih       8       3       7       2   238.67074179    -0.00172072
     181     dih       1       3       7       2    31.14063561    -0.01887083
     182     dih      11       3       7       2   -33.81065462     0.01086662
     183     dih       9       3      11       2     2.01064384    -0.00277489
     184     dih       6       3      11       2   241.10811001    -0.00601130
     185     dih       8       3      11       2   121.91193176     0.00196870
     186     dih       1       3      11       2   -31.19334464     0.02064629
     187     dih       7       3      11       2    33.73730423    -0.00916575
 
----------------------------------------------------------------------
Geometry Convergence after Step   1       (Hartree/Angstrom,Angstrom)
----------------------------------------------------------------------
current energy                               -2.36190715 Hartree
energy change                      -2.36190715     0.00012000    F
constrained gradient max            0.06989768     0.00100000    F
constrained gradient rms            0.01839217     0.00066667    F
gradient max                        0.06989768
gradient rms                        0.01839217
cart. step max                      0.04761901     0.01000000    F
cart. step rms                      0.01593854     0.00666667    F
 
 
--------
Geometry
--------
Formula: C4H6FO
Atoms
  Index Symbol   x (angstrom)   y (angstrom)   z (angstrom)
      1      C     0.83125304    -0.22049301     0.87319112
      2      C     0.82482800    -0.23676769    -0.48537851
      3      C    -1.53432598    -0.46267725    -1.31048786
      4      H     0.87354319    -1.14382153     1.44359282
      5      C     0.74140419     0.98980545     1.68171091
      6      H    -1.76219541    -1.40823013    -0.83368910
      7      H     0.88086775     0.68796616    -1.04922271
      8      H    -1.30072582    -0.46095088    -2.36923060
      9      H    -1.92668636     0.44423340    -0.86694461
     10      O     0.73451638     1.06986443     2.86954027
     11      H     0.99121044    -1.15463156    -1.03064092
     12      F     0.63145519     2.15241253     0.92572450
 
Total System Charge             0.00000
 
 *** GOStep2 ***

 Energy gradients wrt nuclear displacements
 ==========================================

     Atom      Cartesian (a.u./angstrom)
                 X         Y         Z
 ----------------------------------------
     1 C    -0.000141 -0.000977  0.012449
     2 C    -0.000649 -0.006182 -0.003867
     3 C     0.001237 -0.000410  0.000253
     4 H    -0.000201 -0.001134 -0.002349
     5 C     0.004351 -0.001940  0.015900
     6 H    -0.000231  0.000330 -0.000130
     7 H     0.001235  0.000817  0.000056
     8 H    -0.000365 -0.000001  0.000012
     9 H    -0.000562 -0.000313 -0.000147
    10 O    -0.001757 -0.001024 -0.024096
    11 H    -0.001216  0.005844  0.000690
    12 F    -0.001702  0.004989  0.001229
 ----------------------------------------
 Mulliken charges used for AMS results%charges...
Hessian eigenvector     1(    -0.008) has overlap with TSRC:    0.57494E-01
Hessian eigenvector     1 has the largest overlap with TSRC:  0.05749
           Primitive Internal Coordinates (atoms in internal order)
-------------------------------------------------------------------------------
    index    type      i       j       k       l   value(A,deg)     Max Ovl Vect
-------------------------------------------------------------------------------
       1     bnd       1       5       0       0     1.45828648     0.00716056
       2     bnd       1       2       0       0     1.35868230    -0.01905435
       3     bnd       3       9       0       0     1.08312705    -0.00071959
       4     bnd       1       4       0       0     1.08613172    -0.00004790
       5     bnd       3       6       0       0     1.08320441    -0.00163014
       6     bnd       2       7       0       0     1.08452451    -0.00689309
       7     bnd       3       8       0       0     1.08420856    -0.00077749
       8     bnd       5      10       0       0     1.19054418     0.07022334
       9     bnd       2      11       0       0     1.08049447     0.02555104
      10     bnd       5      12       0       0     1.39113603    -0.02128669
      11     bnd       2       3       0       0     2.50947167     0.08096553
      12     bnd       1       3       0       0     3.22847815     0.07103391
      13     bnd       2       6       0       0     2.86117715     0.06932649
      14     bnd       2       8       0       0     2.84905876     0.06239921
      15     bnd       2       9       0       0     2.86010252     0.05411737
      16     bnd       3       7       0       0     2.68801050     0.04856182
      17     bnd       3      11       0       0     2.63352412     0.06894179
      18     ang       5       1       2       0   124.33533262     0.11367548
      19     ang       5       1       4       0   114.63096706    -0.06826766
      20     ang       5       1       3       0   113.08646741    -0.08514001
      21     ang       2       1       4       0   121.00586582    -0.04762218
      22     ang       2       1       3       0    47.10259382     0.00391140
      23     ang       4       1       3       0   108.66124294     0.02714062
      24     ang       1       2       7       0   120.62380672     0.03077261
      25     ang       1       2      11       0   120.93376892    -0.05653703
      26     ang       1       2       3       0   109.52965498     0.00516452
      27     ang       1       2       6       0    97.52199569     0.00413145
      28     ang       1       2       8       0   131.73104466     0.00054292
      29     ang       1       2       9       0    97.76417919     0.01207720
      30     ang       7       2      11       0   117.00089562     0.03033513
      31     ang       7       2       3       0    87.38606252    -0.01199788
      32     ang       7       2       6       0   109.42295730    -0.01752071
      33     ang       7       2       8       0    76.22414449    -0.01429702
      34     ang       7       2       9       0    77.13399819    -0.00546685
      35     ang      11       2       3       0    84.39701898    -0.00685341
      36     ang      11       2       6       0    74.33520944    -0.02120207
      37     ang      11       2       8       0    73.40295808     0.01187142
      38     ang      11       2       9       0   106.44425313    -0.00990708
      39     ang       6       2       8       0    38.06789807    -0.00872610
      40     ang       6       2       9       0    37.94456448    -0.00678160
      41     ang       8       2       9       0    38.07471678    -0.00751379
      42     ang       9       3       6       0   118.32335985     0.00726926
      43     ang       9       3       8       0   118.46355678     0.00105320
      44     ang       9       3       2       0    97.50014645    -0.01155216
      45     ang       9       3       1       0    85.73538303    -0.00053383
      46     ang       9       3       7       0    85.82847406    -0.00343195
      47     ang       9       3      11       0   121.59287699    -0.01175410
      48     ang       6       3       8       0   118.46033613     0.00074375
      49     ang       6       3       2       0    97.56318652    -0.00274554
      50     ang       6       3       1       0    85.52046363    -0.00215317
      51     ang       6       3       7       0   121.32548836    -0.00886689
      52     ang       6       3      11       0    85.73363975    -0.01979994
      53     ang       8       3       2       0    96.79867183    -0.00678832
      54     ang       8       3       1       0   120.16579909    -0.01590707
      55     ang       8       3       7       0    84.29783482    -0.00860966
      56     ang       8       3      11       0    84.12052021     0.01073442
      57     ang       1       3       7       0    40.86889536    -0.00670979
      58     ang       1       3      11       0    40.98846394    -0.02148679
      59     ang       7       3      11       0    40.57829354     0.00174279
      60     ang       1       5      10       0   127.54135018     0.04006086
      61     ang       1       5      12       0   113.40204429    -0.06275891
      62     ang      10       5      12       0   119.04757049     0.02227461
      63     ang       3       6       2       0    60.39436618     0.00813939
      64     ang       2       7       3       0    68.84510256     0.01796691
      65     ang       3       8       2       0    60.99928483     0.01136498
      66     ang       3       9       2       0    60.44697097     0.01514403
      67     ang       2      11       3       0    71.50335994     0.00770396
      68     dih       2       1       5      10   179.55407962     0.06432451
      69     dih       2       1       5      12     0.66933794    -0.00876872
      70     dih       4       1       5      10     1.46246809     0.19539822
      71     dih       4       1       5      12   182.57772641     0.12230499
      72     dih       3       1       5      10   126.77802725     0.09482204
      73     dih       3       1       5      12   -52.10671442     0.02172881
      74     dih       5       1       2       7     8.06794635     0.22941584
      75     dih       5       1       2      11   173.95756239     0.25572563
      76     dih       5       1       2       3   269.22445184     0.22723686
      77     dih       5       1       2       6   250.16642160     0.23417538
      78     dih       5       1       2       8   269.02384913     0.22030246
      79     dih       5       1       2       9   -71.53644574     0.22801975
      80     dih       4       1       2       7   186.04396241     0.09189623
      81     dih       4       1       2      11    -8.06642155     0.11820601
      82     dih       4       1       2       3    87.20046790     0.08971724
      83     dih       4       1       2       6    68.14243766     0.09665576
      84     dih       4       1       2       8    86.99986519     0.08278284
      85     dih       4       1       2       9   106.43957032     0.09050013
      86     dih       3       1       2       7    98.84349450     0.00217899
      87     dih       3       1       2      11   264.73311054     0.02848877
      88     dih       3       1       2       6   -19.05803025     0.00693852
      89     dih       3       1       2       8    -0.20060271    -0.00693440
      90     dih       3       1       2       9    19.23910242     0.00078290
      91     dih       6       3       9       2   102.81288671    -0.00803449
      92     dih       8       3       9       2   258.04198309     0.01437996
      93     dih       1       3       9       2    20.23404797    -0.00421614
      94     dih       7       3       9       2   -20.75072749     0.00240012
      95     dih      11       3       9       2    -0.61784235     0.02174525
      96     dih       9       3       6       2   257.22381538     0.01316830
      97     dih       8       3       6       2   101.99391337    -0.00932121
      98     dih       1       3       6       2   -20.07008960     0.01028505
      99     dih       7       3       6       2     0.59689524     0.00779592
     100     dih      11       3       6       2    21.04291862    -0.01044018
     101     dih       1       2       7       3   248.78585187    -0.00417491
     102     dih      11       2       7       3    82.35958785    -0.01724988
     103     dih       6       2       7       3     0.50342082     0.00655200
     104     dih       8       2       7       3    19.42490692    -0.00602906
     105     dih       9       2       7       3   -19.73417277     0.00024240
     106     dih       9       3       8       2   102.36628480    -0.01713374
     107     dih       6       3       8       2   257.56118980     0.00696222
     108     dih       1       3       8       2    -0.18175008    -0.00624547
     109     dih       7       3       8       2    20.25728001    -0.00816080
     110     dih      11       3       8       2   -20.53801466    -0.00994491
     111     dih       1       2      11       3   109.43927724    -0.00449430
     112     dih       7       2      11       3   -84.17910947     0.02151993
     113     dih       6       2      11       3    19.98666944    -0.01249227
     114     dih       8       2      11       3   -19.69409519    -0.00542275
     115     dih       9       2      11       3    -0.50455373     0.01797232
     116     dih       1       2       3       9    60.40858980     0.01666001
     117     dih       1       2       3       6   -59.60606161     0.01242392
     118     dih       1       2       3       8   180.39618042     0.01375440
     119     dih       1       2       3       7   121.65909087     0.02922435
     120     dih       1       2       3      11   239.11964558     0.06211421
     121     dih       7       2       3       9   -61.25050107    -0.01256433
     122     dih       7       2       3       6   178.73484752    -0.01680043
     123     dih       7       2       3       8    58.73708955    -0.01546994
     124     dih       7       2       3       1   238.34090913    -0.02922435
     125     dih       7       2       3      11   117.46055472     0.03288987
     126     dih      11       2       3       9   181.28894422    -0.04545420
     127     dih      11       2       3       6    61.27429280    -0.04969030
     128     dih      11       2       3       8   -58.72346516    -0.04835981
     129     dih      11       2       3       1   120.88035442    -0.06211421
     130     dih      11       2       3       7   242.53944528    -0.03288987
     131     dih       6       2       3       9   120.01465141     0.00423610
     132     dih       6       2       3       8   240.00224203     0.00133049
     133     dih       6       2       3       1    59.60606161    -0.01242392
     134     dih       6       2       3       7   181.26515248     0.01680043
     135     dih       6       2       3      11   -61.27429280     0.04969030
     136     dih       8       2       3       9   240.01240938     0.00290561
     137     dih       8       2       3       6   119.99775797    -0.00133049
     138     dih       8       2       3       1   179.60381958    -0.01375440
     139     dih       8       2       3       7   -58.73708955     0.01546994
     140     dih       8       2       3      11    58.72346516     0.04835981
     141     dih       9       2       3       6   239.98534859    -0.00423610
     142     dih       9       2       3       8   119.98759062    -0.00290561
     143     dih       9       2       3       1   -60.40858980    -0.01666001
     144     dih       9       2       3       7    61.25050107     0.01256433
     145     dih       9       2       3      11   178.71105578     0.04545420
     146     dih       5       1       3       9    -4.01043739     0.24506134
     147     dih       5       1       3       6   237.10384523     0.23736194
     148     dih       5       1       3       8   116.61629050     0.24184149
     149     dih       5       1       3       2   116.16127431     0.22609417
     150     dih       5       1       3       7    84.53982878     0.24074109
     151     dih       5       1       3      11   148.45665050     0.26376267
     152     dih       2       1       3       9   239.82828830     0.01896717
     153     dih       2       1       3       6   120.94257093     0.01126777
     154     dih       2       1       3       8     0.45501619     0.01574732
     155     dih       2       1       3       7   -31.62144552     0.01464693
     156     dih       2       1       3      11    32.29537620     0.03766850
     157     dih       4       1       3       9   124.46319757     0.10792625
     158     dih       4       1       3       6     5.57748020     0.10022685
     159     dih       4       1       3       8   245.08992546     0.10470640
     160     dih       4       1       3       2   244.63490927     0.08895908
     161     dih       4       1       3       7   213.01346375     0.10360600
     162     dih       4       1       3      11   -83.06971453     0.12662758
     163     dih       1       2       6       3   124.91532144     0.01229785
     164     dih       7       2       6       3    -1.34011527    -0.01766400
     165     dih      11       2       6       3   245.01342860    -0.04708854
     166     dih       8       2       6       3   -32.05592191    -0.00043070
     167     dih       9       2       6       3    31.91928722    -0.00163086
     168     dih       1       2       8       3     0.50033575     0.01735188
     169     dih       7       2       8       3   241.54551295    -0.01186089
     170     dih      11       2       8       3   117.43096075    -0.04852048
     171     dih       6       2       8       3    31.81123063    -0.00087617
     172     dih       9       2       8       3   -31.82545781    -0.00148354
     173     dih       1       2       9       3   235.80443811     0.01364461
     174     dih       7       2       9       3   116.05487902    -0.01554033
     175     dih      11       2       9       3     1.33750414    -0.04732686
     176     dih       6       2       9       3   -31.90324195     0.00439783
     177     dih       8       2       9       3    32.05414548     0.00003540
     178     dih       9       3       7       2   119.36201877    -0.01540963
     179     dih       6       3       7       2    -1.46820512    -0.01940593
     180     dih       8       3       7       2   238.54003825    -0.01260350
     181     dih       1       3       7       2    31.06151285    -0.01880322
     182     dih      11       3       7       2   -33.84825303     0.01393183
     183     dih       9       3      11       2     1.50031327    -0.05304612
     184     dih       6       3      11       2   240.65879852    -0.04516846
     185     dih       8       3      11       2   121.44408930    -0.04757364
     186     dih       1       3      11       2   -31.26411719    -0.02521333
     187     dih       7       3      11       2    33.35309315    -0.02161663
 
----------------------------------------------------------------------
Geometry Convergence after Step   2       (Hartree/Angstrom,Angstrom)
----------------------------------------------------------------------
current energy                               -2.36416878 Hartree
energy change                      -0.00226164     0.00012000    F
constrained gradient max            0.02410425     0.00100000    F
constrained gradient rms            0.00564393     0.00066667    F
gradient max                        0.02410425
gradient rms                        0.00564393
cart. step max                      0.08806867     0.01000000    F
cart. step rms                      0.02159433     0.00666667    F
 
 
--------
Geometry
--------
Formula: C4H6FO
Atoms
  Index Symbol   x (angstrom)   y (angstrom)   z (angstrom)
      1      C     0.80385536    -0.21837823     0.87865703
      2      C     0.80840530    -0.22343537    -0.48067165
      3      C    -1.53569459    -0.48133958    -1.31991961
      4      H     0.83558579    -1.14106782     1.45088959
      5      C     0.74665290     0.99472134     1.68630800
      6      H    -1.74794731    -1.43775680    -0.85713508
      7      H     0.85160699     0.70838654    -1.03450974
      8      H    -1.29641628    -0.46079073    -2.37731970
      9      H    -1.94804143     0.41167631    -0.86615899
     10      O     0.75268867     1.07557175     2.87586796
     11      H     0.99492535    -1.13167568    -1.03597944
     12      F     0.71952387     2.16079817     0.92813696
 
Total System Charge             0.00000
 
 *** GOStep3 ***

 Energy gradients wrt nuclear displacements
 ==========================================

     Atom      Cartesian (a.u./angstrom)
                 X         Y         Z
 ----------------------------------------
     1 C     0.000255 -0.003275  0.012573
     2 C     0.000873 -0.004922 -0.003373
     3 C     0.000699 -0.000158 -0.000092
     4 H    -0.000428 -0.000788 -0.001233
     5 C    -0.003943 -0.001932  0.011112
     6 H    -0.000185 -0.000033  0.000080
     7 H    -0.000701  0.001387 -0.000457
     8 H    -0.000221 -0.000041 -0.000127
     9 H    -0.000479 -0.000195 -0.000014
    10 O     0.001790 -0.001104 -0.018688
    11 H     0.000241  0.006058  0.000331
    12 F     0.002099  0.005003 -0.000110
 ----------------------------------------
 Mulliken charges used for AMS results%charges...
Hessian eigenvector     1(    -0.005) has overlap with TSRC:    0.44001E-01
Hessian eigenvector     1 has the largest overlap with TSRC:  0.04400
           Primitive Internal Coordinates (atoms in internal order)
-------------------------------------------------------------------------------
    index    type      i       j       k       l   value(A,deg)     Max Ovl Vect
-------------------------------------------------------------------------------
       1     bnd       1       5       0       0     1.45848647    -0.00254472
       2     bnd       1       2       0       0     1.35934571    -0.00477032
       3     bnd       3       9       0       0     1.08323866    -0.00018583
       4     bnd       1       4       0       0     1.08619197     0.00023712
       5     bnd       3       6       0       0     1.08349187    -0.00148399
       6     bnd       2       7       0       0     1.08484796    -0.00055847
       7     bnd       3       8       0       0     1.08432989    -0.00049840
       8     bnd       5      10       0       0     1.19231963     0.00635518
       9     bnd       2      11       0       0     1.08076682     0.00283862
      10     bnd       5      12       0       0     1.39114862    -0.00218788
      11     bnd       2       3       0       0     2.50312925     0.06213692
      12     bnd       1       3       0       0     3.22123919     0.05762412
      13     bnd       2       6       0       0     2.85503764     0.05624298
      14     bnd       2       8       0       0     2.84321741     0.05010055
      15     bnd       2       9       0       0     2.85481451     0.04372449
      16     bnd       3       7       0       0     2.68255772     0.03404541
      17     bnd       3      11       0       0     2.62823065     0.05497225
      18     ang       5       1       2       0   123.84708692     0.05048829
      19     ang       5       1       4       0   114.57990354    -0.01380439
      20     ang       5       1       3       0   114.66855815    -0.12432980
      21     ang       2       1       4       0   121.57134485    -0.03858932
      22     ang       2       1       3       0    47.12593079     0.00317528
      23     ang       4       1       3       0   108.14616853     0.04720986
      24     ang       1       2       7       0   120.49430970     0.01926814
      25     ang       1       2      11       0   121.16515238    -0.02956990
      26     ang       1       2       3       0   109.42205143     0.00205517
      27     ang       1       2       6       0    97.49519526    -0.00493922
      28     ang       1       2       8       0   131.67484054    -0.00176394
      29     ang       1       2       9       0    97.52561654     0.01374275
      30     ang       7       2      11       0   116.91340221     0.01350617
      31     ang       7       2       3       0    87.39928741    -0.01178816
      32     ang       7       2       6       0   109.49168747    -0.01618648
      33     ang       7       2       8       0    76.15055769    -0.00477424
      34     ang       7       2       9       0    77.19846529    -0.01528914
      35     ang      11       2       3       0    84.41984651    -0.00141847
      36     ang      11       2       6       0    74.29681960     0.00015432
      37     ang      11       2       8       0    73.43251396     0.00094497
      38     ang      11       2       9       0   106.51171233    -0.00433734
      39     ang       6       2       8       0    38.15748873    -0.00688765
      40     ang       6       2       9       0    38.02763194    -0.00589329
      41     ang       8       2       9       0    38.15973275    -0.00612778
      42     ang       9       3       6       0   118.30846467     0.00374718
      43     ang       9       3       8       0   118.48094822     0.00004654
      44     ang       9       3       2       0    97.53265192    -0.00773512
      45     ang       9       3       1       0    85.59919317     0.00662122
      46     ang       9       3       7       0    85.90405288    -0.01130800
      47     ang       9       3      11       0   121.68567603    -0.01209861
      48     ang       6       3       8       0   118.45523605     0.00139760
      49     ang       6       3       2       0    97.53861004    -0.00033433
      50     ang       6       3       1       0    85.57321215    -0.00809324
      51     ang       6       3       7       0   121.35780725    -0.00353505
      52     ang       6       3      11       0    85.64450326     0.00139073
      53     ang       8       3       2       0    96.79691287    -0.00400104
      54     ang       8       3       1       0   120.24891691    -0.00932599
      55     ang       8       3       7       0    84.20130059     0.00272548
      56     ang       8       3      11       0    84.12071302    -0.00089684
      57     ang       1       3       7       0    40.95963269    -0.00385409
      58     ang       1       3      11       0    41.16199028    -0.01484580
      59     ang       7       3      11       0    40.65592602    -0.00293642
      60     ang       1       5      10       0   127.49411889     0.01287420
      61     ang       1       5      12       0   113.33785543    -0.01832593
      62     ang      10       5      12       0   119.14327332     0.00328895
      63     ang       3       6       2       0    60.36155310     0.00484424
      64     ang       2       7       3       0    68.77276660     0.01511986
      65     ang       3       8       2       0    60.95028365     0.00772138
      66     ang       3       9       2       0    60.37081021     0.01064498
      67     ang       2      11       3       0    71.42142448     0.00577271
      68     dih       2       1       5      10   180.81438088     0.18288966
      69     dih       2       1       5      12    -1.02965550    -0.19068299
      70     dih       4       1       5      10     1.27826531     0.29559179
      71     dih       4       1       5      12   179.43422893    -0.07798086
      72     dih       3       1       5      10   127.21933207     0.23553437
      73     dih       3       1       5      12   -54.62470431    -0.13803828
      74     dih       5       1       2       7     5.11382741     0.22407276
      75     dih       5       1       2      11   171.06055624     0.24142072
      76     dih       5       1       2       3   266.38219574     0.22879243
      77     dih       5       1       2       6   247.20598831     0.23908742
      78     dih       5       1       2       8   266.35244388     0.21353390
      79     dih       5       1       2       9   -74.42452237     0.23342406
      80     dih       4       1       2       7   184.61869323     0.10624777
      81     dih       4       1       2      11    -9.43457794     0.12359573
      82     dih       4       1       2       3    85.88706156     0.11096744
      83     dih       4       1       2       6    66.71085413     0.12126243
      84     dih       4       1       2       8    85.85730971     0.09570891
      85     dih       4       1       2       9   105.08034345     0.11559907
      86     dih       3       1       2       7    98.73163167    -0.00471967
      87     dih       3       1       2      11   264.67836050     0.01262829
      88     dih       3       1       2       6   -19.17620743     0.01029499
      89     dih       3       1       2       8    -0.02975185    -0.01525852
      90     dih       3       1       2       9    19.19328189     0.00463163
      91     dih       6       3       9       2   102.79935598    -0.00391822
      92     dih       8       3       9       2   258.02075711     0.00915995
      93     dih       1       3       9       2    20.23326324     0.00223714
      94     dih       7       3       9       2   -20.84322459     0.00594599
      95     dih      11       3       9       2    -0.56313534    -0.00017797
      96     dih       9       3       6       2   257.20411384     0.00823223
      97     dih       8       3       6       2   101.97627785    -0.00450506
      98     dih       1       3       6       2   -20.21440762     0.01078707
      99     dih       7       3       6       2     0.69163032    -0.00682516
     100     dih      11       3       6       2    21.07422822    -0.00403504
     101     dih       1       2       7       3   248.92740398     0.00139496
     102     dih      11       2       7       3    82.40216843    -0.00914825
     103     dih       6       2       7       3     0.58344249    -0.00579570
     104     dih       8       2       7       3    19.43512777     0.00012760
     105     dih       9       2       7       3   -19.80891494     0.00452438
     106     dih       9       3       8       2   102.40725581    -0.01131519
     107     dih       6       3       8       2   257.59202086     0.00237817
     108     dih       1       3       8       2    -0.02703536    -0.01385656
     109     dih       7       3       8       2    20.26851162     0.00018094
     110     dih      11       3       8       2   -20.60882080     0.00322469
     111     dih       1       2      11       3   109.35195061    -0.00178432
     112     dih       7       2      11       3   -84.21910565     0.01601709
     113     dih       6       2      11       3    20.02123822    -0.00430427
     114     dih       8       2      11       3   -19.75580696     0.00299063
     115     dih       9       2      11       3    -0.45938475    -0.00025062
     116     dih       1       2       3       9    60.04659819     0.03268079
     117     dih       1       2       3       6   -59.95447232     0.03065764
     118     dih       1       2       3       8   180.05868212     0.03017702
     119     dih       1       2       3       7   121.50757957     0.01646039
     120     dih       1       2       3      11   238.87566899     0.03178650
     121     dih       7       2       3       9   -61.46098137     0.01622041
     122     dih       7       2       3       6   178.53794812     0.01419725
     123     dih       7       2       3       8    58.55110256     0.01371663
     124     dih       7       2       3       1   238.49242043    -0.01646039
     125     dih       7       2       3      11   117.36808942     0.01532611
     126     dih      11       2       3       9   181.17092921     0.00089430
     127     dih      11       2       3       6    61.16985870    -0.00112886
     128     dih      11       2       3       8   -58.81698686    -0.00160947
     129     dih      11       2       3       1   121.12433101    -0.03178650
     130     dih      11       2       3       7   242.63191058    -0.01532611
     131     dih       6       2       3       9   120.00107051     0.00202316
     132     dih       6       2       3       8   240.01315444    -0.00048061
     133     dih       6       2       3       1    59.95447232    -0.03065764
     134     dih       6       2       3       7   181.46205188    -0.01419725
     135     dih       6       2       3      11   -61.16985870     0.00112886
     136     dih       8       2       3       9   239.98791607     0.00250377
     137     dih       8       2       3       6   119.98684556     0.00048061
     138     dih       8       2       3       1   179.94131788    -0.03017702
     139     dih       8       2       3       7   -58.55110256    -0.01371663
     140     dih       8       2       3      11    58.81698686     0.00160947
     141     dih       9       2       3       6   239.99892949    -0.00202316
     142     dih       9       2       3       8   120.01208393    -0.00250377
     143     dih       9       2       3       1   -60.04659819    -0.03268079
     144     dih       9       2       3       7    61.46098137    -0.01622041
     145     dih       9       2       3      11   178.82907079    -0.00089430
     146     dih       5       1       3       9    -6.31429822     0.20516223
     147     dih       5       1       3       6   234.80407372     0.20120193
     148     dih       5       1       3       8   114.26833146     0.20699709
     149     dih       5       1       3       2   114.20087757     0.17234024
     150     dih       5       1       3       7    82.50390403     0.18049447
     151     dih       5       1       3      11   146.36150650     0.18887995
     152     dih       2       1       3       9   239.48482421     0.03282199
     153     dih       2       1       3       6   120.60319615     0.02886169
     154     dih       2       1       3       8     0.06745388     0.03465685
     155     dih       2       1       3       7   -31.69697354     0.00815423
     156     dih       2       1       3      11    32.16062893     0.01653971
     157     dih       4       1       3       9   122.89979346     0.12681397
     158     dih       4       1       3       6     4.01816540     0.12285368
     159     dih       4       1       3       8   243.48242314     0.12864884
     160     dih       4       1       3       2   243.41496926     0.09399199
     161     dih       4       1       3       7   211.71799572     0.10214622
     162     dih       4       1       3      11   -84.42440182     0.11053169
     163     dih       1       2       6       3   124.57294754     0.02775304
     164     dih       7       2       6       3    -1.54935940     0.01517411
     165     dih      11       2       6       3   244.91847443    -0.00171981
     166     dih       8       2       6       3   -32.06613469     0.00037889
     167     dih       9       2       6       3    31.92496571    -0.00049640
     168     dih       1       2       8       3     0.07409368     0.03807536
     169     dih       7       2       8       3   241.37151477     0.01654686
     170     dih      11       2       8       3   117.33416064    -0.00108821
     171     dih       6       2       8       3    31.83209922    -0.00162593
     172     dih       9       2       8       3   -31.81624131    -0.00128768
     173     dih       1       2       9       3   235.51017907     0.02899623
     174     dih       7       2       9       3   115.84758788     0.01215650
     175     dih      11       2       9       3     1.21551235     0.00088410
     176     dih       6       2       9       3   -31.93002859     0.00295311
     177     dih       8       2       9       3    32.05521945     0.00009593
     178     dih       9       3       7       2   119.17427899     0.01252358
     179     dih       6       3       7       2    -1.69740192     0.01654367
     180     dih       8       3       7       2   238.37159696     0.01394678
     181     dih       1       3       7       2    31.17203216    -0.01070375
     182     dih      11       3       7       2   -33.90827496     0.00952070
     183     dih       9       3      11       2     1.36419723     0.00081568
     184     dih       6       3      11       2   240.57464861    -0.00119490
     185     dih       8       3      11       2   121.35087108    -0.00251722
     186     dih       1       3      11       2   -31.17256344    -0.01476451
     187     dih       7       3      11       2    33.41336882    -0.00796704
 
----------------------------------------------------------------------
Geometry Convergence after Step   3       (Hartree/Angstrom,Angstrom)
----------------------------------------------------------------------
current energy                               -2.36407014 Hartree
energy change                       0.00009864     0.00012000    T
constrained gradient max            0.01869595     0.00100000    F
constrained gradient rms            0.00463635     0.00066667    F
gradient max                        0.01869595
gradient rms                        0.00463635
cart. step max                      0.02991758     0.01000000    F
cart. step rms                      0.00894659     0.00666667    F
 
 
--------
Geometry
--------
Formula: C4H6FO
Atoms
  Index Symbol   x (angstrom)   y (angstrom)   z (angstrom)
      1      C     0.80740106    -0.20979367     0.87176650
      2      C     0.81042133    -0.22339723    -0.48559265
      3      C    -1.53623158    -0.48149504    -1.32121753
      4      H     0.82004729    -1.12905285     1.45015274
      5      C     0.77657048     0.99786717     1.69170959
      6      H    -1.74307456    -1.44283633    -0.86605125
      7      H     0.85661808     0.70195997    -1.04821063
      8      H    -1.29861302    -0.45135887    -2.37879457
      9      H    -1.94905773     0.40661015    -0.85844524
     10      O     0.74991846     1.07539213     2.89107002
     11      H     0.99036802    -1.14404267    -1.02945576
     12      F     0.70077680     2.15685715     0.93123409
 
Total System Charge             0.00000
 
 *** GOStep4 ***

 Energy gradients wrt nuclear displacements
 ==========================================

     Atom      Cartesian (a.u./angstrom)
                 X         Y         Z
 ----------------------------------------
     1 C    -0.005789 -0.001675  0.000658
     2 C     0.000283 -0.001080 -0.000144
     3 C     0.000588 -0.000070 -0.000087
     4 H    -0.001985  0.000877  0.000127
     5 C     0.018347 -0.002391 -0.009129
     6 H    -0.000111 -0.000211  0.000045
     7 H    -0.002015  0.000556  0.000260
     8 H    -0.000191 -0.000079 -0.000185
     9 H    -0.000410 -0.000147 -0.000032
    10 O    -0.006614  0.001015  0.012185
    11 H     0.002150  0.001640 -0.000953
    12 F    -0.004254  0.001566 -0.002746
 ----------------------------------------
 Mulliken charges used for AMS results%charges...
Hessian eigenvector     1(    -0.006) has overlap with TSRC:    0.17746E-01
Hessian eigenvector     1 has the largest overlap with TSRC:  0.01775
           Primitive Internal Coordinates (atoms in internal order)
-------------------------------------------------------------------------------
    index    type      i       j       k       l   value(A,deg)     Max Ovl Vect
-------------------------------------------------------------------------------
       1     bnd       1       5       0       0     1.46003490     0.00269444
       2     bnd       1       2       0       0     1.35743068    -0.00814800
       3     bnd       3       9       0       0     1.08319640    -0.00105025
       4     bnd       1       4       0       0     1.08615285     0.00153241
       5     bnd       3       6       0       0     1.08357623    -0.00039062
       6     bnd       2       7       0       0     1.08395529    -0.00395235
       7     bnd       3       8       0       0     1.08436155    -0.00027108
       8     bnd       5      10       0       0     1.20215885    -0.00018628
       9     bnd       2      11       0       0     1.08432280     0.01148941
      10     bnd       5      12       0       0     1.38828147    -0.01432148
      11     bnd       2       3       0       0     2.50432891     0.02566404
      12     bnd       1       3       0       0     3.22112007     0.01312301
      13     bnd       2       6       0       0     2.85519206     0.01512145
      14     bnd       2       8       0       0     2.84327380     0.01229590
      15     bnd       2       9       0       0     2.85493485     0.01335219
      16     bnd       3       7       0       0     2.68343586     0.02253463
      17     bnd       3      11       0       0     2.62826936     0.00335620
      18     ang       5       1       2       0   124.74312046     0.04860958
      19     ang       5       1       4       0   113.65589930    -0.03832717
      20     ang       5       1       3       0   115.89639335     0.00917018
      21     ang       2       1       4       0   121.59916046    -0.01135802
      22     ang       2       1       3       0    47.15598973     0.00450737
      23     ang       4       1       3       0   107.43489762    -0.03501455
      24     ang       1       2       7       0   120.70073225     0.02514727
      25     ang       1       2      11       0   120.69187604    -0.04324793
      26     ang       1       2       3       0   109.42681430    -0.00259032
      27     ang       1       2       6       0    97.78954250     0.03490001
      28     ang       1       2       8       0   131.68008700    -0.00289378
      29     ang       1       2       9       0    97.25181373    -0.03817723
      30     ang       7       2      11       0   117.22040868     0.02262764
      31     ang       7       2       3       0    87.40516213     0.00026229
      32     ang       7       2       6       0   109.48484088    -0.00183016
      33     ang       7       2       8       0    75.78580735    -0.04678993
      34     ang       7       2       9       0    77.58574696     0.04898488
      35     ang      11       2       3       0    84.29773500    -0.01237431
      36     ang      11       2       6       0    73.67753056    -0.06938638
      37     ang      11       2       8       0    73.80263638     0.04424681
[...]
     5     C      -0.194986  -0.050835  -0.008957
     6     H       0.060327   0.019533   0.024492
     7     H      -0.456570  -0.019955  -0.018026
     8     H       0.059243   0.016780   0.024085
     9     H      -0.143242   0.001617  -0.049685
    10     O       0.054444   0.120027  -0.021433
    11     H       0.601837   0.058631  -0.093309
    12     F       0.053692   0.004581   0.091060
 
 Mode:    17      Frequency (cm-1):      589.2336     Intensity (km/mol):        6.6838
 Index  Atom      ---- Displacements (x/y/z) ----
     1     C      -0.048062   0.266586  -0.027525
     2     C       0.022491  -0.014874  -0.036085
     3     C      -0.009152   0.013672   0.000448
     4     H       0.332447   0.264993  -0.066654
     5     C      -0.132683   0.075116   0.124761
     6     H       0.018211   0.008111   0.001454
     7     H      -0.191654  -0.265739  -0.444029
     8     H       0.004807   0.013848   0.003517
     9     H      -0.075256  -0.001186  -0.021546
    10     O       0.054745  -0.142111   0.158232
    11     H       0.337709  -0.200617   0.387183
    12     F       0.037036  -0.085846  -0.164694
 
 Mode:    18      Frequency (cm-1):      755.0102     Intensity (km/mol):       10.2756
 Index  Atom      ---- Displacements (x/y/z) ----
     1     C      -0.014734   0.023277  -0.013980
     2     C      -0.007942   0.006750   0.013130
     3     C      -0.085723  -0.007582  -0.030250
     4     H       0.016238   0.022061  -0.020873
     5     C      -0.003523  -0.000341  -0.015345
     6     H       0.516678  -0.008860   0.213862
     7     H      -0.144141  -0.032581  -0.054966
     8     H       0.532784   0.045168   0.122644
     9     H       0.514160   0.100074   0.213668
    10     O      -0.000110   0.006193  -0.019593
    11     H      -0.161619  -0.036205   0.040360
    12     F       0.003198  -0.023932   0.018529
 
 Mode:    19      Frequency (cm-1):      776.4175     Intensity (km/mol):       49.2034
 Index  Atom      ---- Displacements (x/y/z) ----
     1     C       0.002386  -0.253684  -0.066215
     2     C       0.009036  -0.091056  -0.141164
     3     C      -0.053753  -0.002194  -0.014691
     4     H      -0.009352  -0.355503  -0.203559
     5     C       0.046404  -0.083419   0.233705
     6     H       0.236858  -0.006601   0.096943
     7     H      -0.062749   0.110826   0.171519
     8     H       0.261313   0.016740   0.062657
     9     H       0.184686   0.042734   0.076218
    10     O      -0.003854  -0.016036   0.264476
    11     H       0.060058   0.104085  -0.475759
    12     F      -0.034914   0.289979  -0.215586
 
 Mode:    20      Frequency (cm-1):      793.9667     Intensity (km/mol):       25.1235
 Index  Atom      ---- Displacements (x/y/z) ----
     1     C      -0.243410   0.010926  -0.007213
     2     C       0.032716  -0.027673  -0.004933
     3     C      -0.004864   0.010188   0.003249
     4     H       0.408923   0.076546   0.030471
     5     C       0.365769   0.046081  -0.011944
     6     H       0.012962   0.010423   0.009317
     7     H      -0.421054  -0.004348   0.005248
     8     H       0.014726   0.006595   0.007876
     9     H      -0.038704   0.003931  -0.009426
    10     O      -0.095496  -0.007825  -0.001471
    11     H       0.656249   0.073606   0.021596
    12     F      -0.048064  -0.027221   0.010950
 
 Mode:    21      Frequency (cm-1):      934.3435     Intensity (km/mol):        3.9454
 Index  Atom      ---- Displacements (x/y/z) ----
     1     C      -0.065430  -0.017728  -0.016393
     2     C       0.118396   0.031066   0.030120
     3     C       0.055909   0.003480   0.017234
     4     H       0.228150  -0.057336  -0.112211
     5     C       0.001213  -0.024334   0.007727
     6     H      -0.086338   0.005029  -0.038993
     7     H      -0.513303  -0.072201  -0.163435
     8     H      -0.085012  -0.007999  -0.017894
     9     H      -0.077464  -0.022457  -0.034496
    10     O      -0.000043   0.005129  -0.001400
    11     H      -0.755371  -0.126534   0.025068
    12     F      -0.001103   0.015363  -0.005118
 
 Mode:    22      Frequency (cm-1):      952.7270     Intensity (km/mol):       40.7637
 Index  Atom      ---- Displacements (x/y/z) ----
     1     C       0.051765   0.025517  -0.013205
     2     C       0.036266  -0.063913  -0.020514
     3     C       0.014725   0.006081   0.003284
     4     H      -0.640341   0.078550   0.142872
     5     C      -0.005147   0.078484  -0.000220
     6     H       0.002413   0.007753  -0.000254
     7     H      -0.633503   0.068712   0.143720
     8     H      -0.014861   0.002622  -0.003997
     9     H      -0.022089   0.000039  -0.012356
    10     O       0.002979  -0.011108   0.018812
    11     H       0.085183   0.112824  -0.313494
    12     F       0.000727  -0.034159   0.005833
 
 Mode:    23      Frequency (cm-1):      993.9422     Intensity (km/mol):       62.2498
 Index  Atom      ---- Displacements (x/y/z) ----
     1     C       0.046388  -0.010057   0.011715
     2     C      -0.018626   0.077042   0.048797
     3     C       0.002593   0.004792  -0.000247
     4     H      -0.440555  -0.216219  -0.273352
     5     C       0.025262  -0.125972   0.004778
     6     H       0.002190   0.002082  -0.005638
     7     H      -0.318901  -0.177108  -0.355934
     8     H      -0.019607  -0.004131  -0.005530
     9     H      -0.018607  -0.000442  -0.004184
    10     O      -0.003900   0.017686  -0.030154
    11     H       0.329657  -0.126634   0.517631
    12     F      -0.007135   0.047056  -0.008959
 
 Mode:    24      Frequency (cm-1):     1186.3466     Intensity (km/mol):      169.6679
 Index  Atom      ---- Displacements (x/y/z) ----
     1     C       0.018908  -0.247863   0.032320
     2     C      -0.018174   0.085592  -0.014013
     3     C       0.000668  -0.000050   0.000071
     4     H       0.027895  -0.535443  -0.418280
     5     C      -0.027846   0.382294  -0.039005
     6     H       0.005580   0.003809   0.006580
     7     H       0.024883  -0.201401  -0.469236
     8     H       0.015892  -0.000114   0.004377
     9     H       0.018697  -0.000380   0.014605
    10     O       0.003580  -0.051398   0.032852
    11     H       0.083036  -0.033087   0.202381
    12     F       0.004354  -0.055002   0.020359
 
 Mode:    25      Frequency (cm-1):     1268.9368     Intensity (km/mol):        9.5622
 Index  Atom      ---- Displacements (x/y/z) ----
     1     C       0.001309  -0.082705   0.075211
     2     C       0.007499   0.082574  -0.101532
     3     C      -0.007952   0.000233  -0.001620
     4     H      -0.030963   0.338339   0.776186
     5     C       0.003166  -0.025693  -0.006214
     6     H       0.006877  -0.007434  -0.010188
     7     H      -0.026100  -0.144457  -0.478615
     8     H       0.014062  -0.009977   0.003432
     9     H       0.010622   0.004640   0.003182
    10     O      -0.000145   0.000991   0.009616
    11     H      -0.008252   0.010973  -0.007336
    12     F      -0.000627   0.005140  -0.001730
 
 Mode:    26      Frequency (cm-1):     1379.1137     Intensity (km/mol):        3.1538
 Index  Atom      ---- Displacements (x/y/z) ----
     1     C      -0.000501   0.003433   0.002824
     2     C       0.000066  -0.002559   0.002170
     3     C      -0.014434   0.087524   0.019546
     4     H       0.003420  -0.008114  -0.017028
     5     C      -0.000329   0.000213   0.000225
     6     H       0.132996  -0.247449  -0.507177
     7     H       0.002660  -0.007672  -0.006007
     8     H       0.025728  -0.772877   0.040850
     9     H       0.012496  -0.023037   0.232355
    10     O       0.000036  -0.000201  -0.001091
    11     H      -0.000042   0.012010  -0.024712
    12     F       0.000166  -0.000252   0.000220
 
 Mode:    27      Frequency (cm-1):     1382.7235     Intensity (km/mol):        3.9547
 Index  Atom      ---- Displacements (x/y/z) ----
     1     C       0.001851  -0.011980  -0.023295
     2     C      -0.000047   0.004890  -0.004976
     3     C       0.027191   0.023597  -0.081582
     4     H      -0.004613   0.036882   0.055764
     5     C      -0.000945   0.004962  -0.001117
     6     H      -0.233371   0.322576   0.388480
     7     H      -0.013368   0.058378   0.083967
     8     H       0.124453  -0.208219  -0.034092
     9     H      -0.208131  -0.394093   0.625112
    10     O       0.000149   0.000446   0.005678
    11     H      -0.002714  -0.061334   0.116271
    12     F       0.000074  -0.000896  -0.000229
 
 Mode:    28      Frequency (cm-1):     1398.4987     Intensity (km/mol):       31.5896
 Index  Atom      ---- Displacements (x/y/z) ----
     1     C      -0.007985   0.069403   0.142250
     2     C       0.000429  -0.027553   0.010962
     3     C       0.000918   0.001350  -0.021233
     4     H       0.020038  -0.196527  -0.284944
     5     C       0.003872  -0.034540   0.004693
     6     H      -0.051704   0.079641   0.105521
     7     H       0.075081  -0.302204  -0.449738
     8     H       0.031886  -0.015405  -0.009752
     9     H      -0.044554  -0.084699   0.127463
    10     O      -0.000380  -0.001933  -0.030719
    11     H       0.019292   0.322675  -0.632841
    12     F      -0.000587   0.006583   0.000239
 
 Mode:    29      Frequency (cm-1):     1559.9985     Intensity (km/mol):       18.1026
 Index  Atom      ---- Displacements (x/y/z) ----
     1     C      -0.005356   0.059334   0.300454
     2     C       0.034333  -0.019040  -0.290899
     3     C      -0.017358  -0.001467  -0.004277
     4     H       0.020454  -0.299747  -0.235514
     5     C       0.000595  -0.000401   0.006567
     6     H       0.019456  -0.009982  -0.004596
     7     H      -0.140727   0.447985   0.394933
     8     H       0.012871   0.000613   0.003393
     9     H       0.017048   0.011791  -0.005589
    10     O       0.000298  -0.010999  -0.045287
    11     H      -0.081452  -0.417646   0.336235
    12     F       0.000117  -0.000847   0.004713
 
 Mode:    30      Frequency (cm-1):     1788.4008     Intensity (km/mol):      462.6029
 Index  Atom      ---- Displacements (x/y/z) ----
     1     C      -0.001972   0.054837   0.087860
     2     C       0.009450   0.002061   0.003297
     3     C      -0.006631  -0.000539  -0.002720
     4     H      -0.000362  -0.092584  -0.211141
     5     C      -0.000146  -0.130928  -0.796318
     6     H       0.002358  -0.003876  -0.003661
     7     H      -0.023810   0.017369   0.018533
     8     H      -0.003714  -0.000818  -0.002638
     9     H       0.003450   0.004693  -0.002733
    10     O       0.004117   0.042889   0.529477
    11     H      -0.026522  -0.000558   0.011069
    12     F      -0.001331   0.015011   0.011459
 
 Mode:    31      Frequency (cm-1):     3063.0835     Intensity (km/mol):        0.0320
 Index  Atom      ---- Displacements (x/y/z) ----
     1     C      -0.000065   0.000027   0.000065
     2     C       0.000247  -0.000159  -0.001612
     3     C       0.012246   0.001743   0.007215
     4     H       0.000109  -0.001147   0.000557
     5     C      -0.000027   0.000192   0.000082
     6     H      -0.109575  -0.490129   0.268467
     7     H      -0.000825  -0.013796   0.008376
     8     H       0.144041  -0.010754  -0.582314
     9     H      -0.178480   0.480427   0.228662
    10     O       0.000006  -0.000035  -0.000060
    11     H      -0.003086   0.015357   0.008498
    12     F       0.000004  -0.000047   0.000013
 
 Mode:    32      Frequency (cm-1):     3123.3195     Intensity (km/mol):        2.5847
 Index  Atom      ---- Displacements (x/y/z) ----
     1     C      -0.000540   0.009370   0.000010
     2     C       0.012174  -0.009501  -0.063835
     3     C      -0.001046   0.000027   0.000256
     4     H       0.006760  -0.110098   0.067041
     5     C      -0.000089   0.000685   0.000101
     6     H       0.002803   0.013761  -0.007460
     7     H      -0.017995  -0.545182   0.331723
     8     H      -0.002418   0.000183   0.010858
     9     H       0.004902  -0.014468  -0.006741
    10     O       0.000024  -0.000151  -0.000311
    11     H      -0.119546   0.653209   0.360165
    12     F       0.000006  -0.000102   0.000268
 
 Mode:    33      Frequency (cm-1):     3149.7414     Intensity (km/mol):        1.0589
 Index  Atom      ---- Displacements (x/y/z) ----
     1     C       0.004577  -0.071088   0.046951
     2     C       0.001040   0.010394  -0.013276
     3     C      -0.000372  -0.000215  -0.000174
     4     H      -0.052503   0.833418  -0.515492
     5     C      -0.000067   0.000902   0.002652
     6     H       0.000717   0.001733  -0.000574
     7     H      -0.005290  -0.144498   0.089037
     8     H      -0.000161   0.000206   0.001419
     9     H       0.000195  -0.000179  -0.000102
    10     O      -0.000002  -0.000113  -0.000845
    11     H      -0.003868   0.019400   0.010968
    12     F      -0.000039   0.000330  -0.000123
 
 Mode:    34      Frequency (cm-1):     3221.8975     Intensity (km/mol):        0.4398
 Index  Atom      ---- Displacements (x/y/z) ----
     1     C       0.000621  -0.009407   0.004938
     2     C       0.006547  -0.098509   0.007306
     3     C      -0.000310   0.005123  -0.000338
     4     H      -0.006626   0.098774  -0.062497
     5     C       0.000025  -0.000022   0.000938
     6     H      -0.006718  -0.029894   0.016638
     7     H       0.022902   0.628698  -0.403745
     8     H      -0.000335   0.000802   0.000930
     9     H       0.010747  -0.028175  -0.013810
    10     O      -0.000007   0.000048  -0.000191
    11     H      -0.101871   0.550985   0.318242
    12     F       0.000003   0.000119  -0.000300
 
 Mode:    35      Frequency (cm-1):     3238.5622     Intensity (km/mol):        2.3520
 Index  Atom      ---- Displacements (x/y/z) ----
     1     C       0.000049  -0.000108  -0.000060
     2     C       0.000079  -0.000733   0.000282
     3     C      -0.032263  -0.012869   0.093234
     4     H      -0.000192   0.001467  -0.001014
     5     C      -0.000010  -0.000054  -0.000024
     6     H       0.102779   0.453424  -0.228294
     7     H       0.000978   0.008546  -0.004573
     8     H       0.176507  -0.018510  -0.766223
     9     H       0.102488  -0.282354  -0.113589
    10     O       0.000002   0.000007   0.000004
    11     H       0.000113   0.000933   0.001237
    12     F       0.000002   0.000014  -0.000005
 
 Mode:    36      Frequency (cm-1):     3246.7190     Intensity (km/mol):        1.5576
 Index  Atom      ---- Displacements (x/y/z) ----
     1     C      -0.000009   0.000265  -0.000187
     2     C      -0.000305   0.004585  -0.000274
     3     C      -0.012063   0.098410   0.009489
     4     H       0.000152  -0.003517   0.002371
     5     C       0.000006   0.000032  -0.000089
     6     H      -0.134970  -0.539310   0.301834
     7     H      -0.002272  -0.029879   0.018684
     8     H       0.022828   0.015096  -0.105385
     9     H       0.254955  -0.644171  -0.309453
    10     O      -0.000003  -0.000007   0.000026
    11     H       0.006428  -0.027615  -0.015444
    12     F       0.000013  -0.000019   0.000029

PES point character: Geometry corresponds to a transition state.
                     (Hint: Very small negative frequencies do not count towards being a
                     transition state, as they usually indicate noise on a very flat PES. See
                     the PESPointCharacter%NegativeFrequenciesTolerance keyword documentation.)




 ============================
 Statistical Thermal Analysis  ***  ideal gas assumed  ***
 ============================
  
 Pressure:                  1.000000 atm.
 Temperature:             298.150000 K



 Moments of Inertia [amu*bohr^2] and principal axis
 ==================================================

         307.7534       1001.2045       1073.8560
 ------------------------------------------------
           0.3843         -0.3261         -0.8637
           0.4460          0.8847         -0.1356
           0.8083         -0.3332          0.4854


 The rotational contribution to the molecular entropy includes
 a term, dependent on the symmetry number sigma. The results 
 reported below were computed using sigma = 1, determined from
 the point group symmetry of the input geometry (NOSYM). 
 If this is not the correct symmetry, try symmetrizing the molecule before
 running the calculation (note: linear molecules should be aligned along one
 of the Cartesian axes).
 Contributions from frequencies below 20 1/cm are not included in vibrational sums.
 Their contributions, if any, are reported separately.


     Temp                                                        Transl      Rotat     Vibrat     Total
     ----                                                        ------      -----     ------     -----

     298.15   Entropy (cal/mol-K):                               39.372     27.295     20.354     87.021
              Nuclear Internal Energy (kcal/mol):                 0.889      0.889     56.600     58.377
              Constant Volume Heat Capacity (cal/mol-K):          2.981      2.981     19.840     25.802
          (c) Constant Volume Heat Capacity (cal/mol-K):          2.981      2.981     17.519     23.481

       Summary of energy terms
                                                   hartree              eV         kcal/mol           kJ/mol
                                      --------------------     -----------       ----------      -----------
      Energy from Engine:               -2.364425761295204        -64.3393         -1483.70         -6207.80
      Nuclear Internal Energy:           0.093030178492189          2.5315            58.38           244.25
  (c) Nuclear Internal Energy:           0.091862785212702          2.4997            57.64           241.19
      Internal Energy U:                -2.271395582803016        -61.8078         -1425.32         -5963.55
      pV/n = RT:                         0.000944186013486          0.0257             0.59             2.48
      Enthalpy H:                       -2.270451396789530        -61.7821         -1424.73         -5961.07
      -T*S:                             -0.041346598268810         -1.1251           -25.95          -108.56
  (c) -T*S:                             -0.040325911505711         -1.0973           -25.30          -105.88
      Gibbs free energy:                -2.311797995058340        -62.9072         -1450.68         -6069.62
 
 
 
  (c) The properties marked with this symbol have been corrected using 'low vibrational frequency free rotor
      interpolation corrections'. For those terms all positive frequencies are used (also ones below 20 1/cm),
      but the contribution to the partition function of small vibrational frequencies is modified as described
      in the following paper:
      S. Grimme, 'Supramolecular Binding Thermodynamics by Dispersion-Corrected Density Functional Theory'
      (Chem. Eur. J. 2012, 18, 9955-9964)
      Configuration: Dampener Frequency          :   100.000 1/cm
                     Dampener Alpha              :     4.000
                     Averaging Moment of Inertia : 1.000E-44 kg m2

--------------
Atomic charges
--------------
  Index   Atom    Charge
      1      C    0.1321
      2      C    0.4499
      3      C    0.5214
      4      H   -0.1652
      5      C    0.8121
      6      H   -0.1546
      7      H   -0.1673
      8      H   -0.1606
      9      H   -0.1427
     10      O   -0.4965
     11      H   -0.1977
     12      F   -0.4309


Dipole moment vector    (Debye):    -0.53454855   -2.46421802   -3.38637660
              magnitude (Debye):     4.22204442


Final PES point is a transition state. Transition state search successful!


AMS application finished. Exiting.
NORMAL TERMINATION
     Total cpu time:   22851.33
  Total system time:      36.02
 Total elapsed time:   22951.24
