

 Parallel Execution: Process Information
 ==============================================================================
 Rank   Node Name                              NodeID   MyNodeRank  NodeMaster
    0   node109                                   0          0          0
    1   node109                                   0          1         -1
    2   node109                                   0          2         -1
    3   node109                                   0          3         -1
 ==============================================================================


May use up to 122928MB of RAM as shared memory on node 0

 *******************************************************************************
 *                                                                             *
 *  --------------------------------                                           *
 *   Amsterdam Modeling Suite (AMS)              2021.102                      *
 *  --------------------------------                                           *
 *                                               r95042 2021-06-07             *
 *                                                                             *
 *                                                                             *
 *                              =================                              *
 *                              |               |                              *
 *                              |     A M S     |                              *
 *                              |               |                              *
 *                              =================                              *
 *                                                                             *
 *                                                                             *
 *   Online information and documentation:  https://www.scm.com/support/       *
 *   E-mail:  support@scm.com   info@scm.com                                   *
 *                                                                             *
 *   Scientific publications using AMS results must be properly referenced     *
 *   See the User Manuals (or the web site) for recommended citations          *
 *   The terms and conditions of the End User License Agreement apply to       *
 *   the use of AMS, https://www.scm.com/license-terms/                        *
 *                                                                             *
 **********************  x86_64_linux_intel / intelmpi  ************************
 
 Licensed to: VU/FEW (+ SARA) / ALGEMEEN / Amsterdam / THE NETHERLANDS
 SCM User ID: u7668
  
 AMS 2021.102  RunTime: Jan27-2022 12:50:19  ShM Nodes: 1  Procs: 4

 AMS jobname: 4.achiral_catalyst.H_Ph_ZnCl2.Rsub_cat_complex
 AMS jobid  : 790535882

 Start   directory: /scistor/tc/yhk800/MasterProject/calculations/achiral_catalyst_H_Ph_ZnCl2/4.achiral_catalyst.H_Ph_ZnCl2.Rsub_cat_complex/
 Results directory: /scistor/tc/yhk800/MasterProject/calculations/achiral_catalyst_H_Ph_ZnCl2/4.achiral_catalyst.H_Ph_ZnCl2.Rsub_cat_complex/
 Scratch directory: /scratch/5292/amstmp_4.achiral_catalyst.H_Ph_ZnCl2.Rsub_cat_complex_kid0.790535882/


 Communication costs MPI_COMM_WORLD:      1.715 usec per message,   0.0100 usec per 8-byte item
 Communication costs for intra-node:      0.083 usec per message,   0.0081 usec per 8-byte item

 RNG seed: -573146813 -963446645 -63196089 -1553053910 923499118 207817804 -452901663 1076233157



                      ************************************************************************
                      *  ADF 2021.102  RunTime: Jan27-2022 12:50:20  ShM Nodes: 1  Procs: 4  *
                      ************************************************************************
  
       ***************************
       *  GEOMETRY OPTIMIZATION  *
       ***************************

Optimization Method                    Quasi Newton
Optimization Coordinates               Delocalized Coordinates
Optimize lattice                       F
 
 ------------------------------------------------------
 Convergence criteria (Hartree,Angstrom)
 ------------------------------------------------------
 Maximum gradient               0.001000000000
 Maximum rms gradient           0.000666666667
 Maximum step allowed           0.010000000000
 Maximum rms step allowed       0.006666666667
 Maximum energy change allowe   0.000210000000
 Maximum stress energy allowe   0.000500000000
 
Initial model Hessian                  Automatic Hessian
 
------------------------------------
Quasi-Newton Optimizer Parameters
------------------------------------
Hessian Update Method                  BFGS
Maximum number of steps                  250
First GDIIS cycle                          0
Maximum GDIIS vectors                      0
Trust radius (bohr)                        0.200000
Trust radius varies                        T
Constraints converged at all steps         T
Use projector                              T
 
 Rigid motions settings for: old optimizer
 Atomic rotations (x,y,z):     T T T
 Atomic translations (x,y,z):  T T T
 Tolerance:                   1.000000000000000E-006
 
--------
Geometry
--------
Formula: C9H8Cl2OSn
Atoms
  Index Symbol   x (angstrom)   y (angstrom)   z (angstrom)
      1      H    -0.62056146    -0.03764738    -0.08023722
      2      C    -0.09659473    -2.02948020    -0.54883449
      3      C     0.18266548    -0.75219647    -0.26512258
      4      C     1.55928918    -0.22013974    -0.18291419
      5      O     1.86635738     0.93365884     0.07180470
      6      H     0.69695300    -2.74612423    -0.73626627
      7      C    -4.19306316    -3.45045331    -0.75693434
      8      C    -3.40647232    -3.74315213     0.36417241
      9      C    -2.08487807    -3.28472070     0.43130916
     10      C    -1.54987465    -2.53359044    -0.62266085
     11      C    -2.33646548    -2.24089162    -1.74376760
     12      C    -3.65805974    -2.69932305    -1.81090435
     13      H    -3.81587125    -4.31793708     1.17069844
     14      H    -1.48295774    -3.50870166     1.28921002
     15      H    -1.92706657    -1.66610667    -2.55029363
     16      H    -4.25998008    -2.47534209    -2.66880521
     17      H    -5.20438242    -3.80125730    -0.80830917
     18      H     2.32514145    -0.94333367    -0.37095895
     19     Sn     1.85103070     2.46611042     0.80757453
     20     Cl     2.20976082     2.91058035     3.11963972
     21     Cl     1.78879142     4.68377222    -0.05841484
 
Total System Charge             0.00000
 
 
----------------
ADF Engine Input
----------------
 
 NumericalQuality VeryGood
 SCF
 Converge 1.0e-6
 Iterations 99
 End
 SYMMETRY NOSYM
 XC
 GGA OLYP
 End
 basis
 core None
 type TZ2P
 End
 

 Title: *** (NO TITLE) ***

 Using automatic Hessian for delocalized coordinates.
 *** GOStep1 ***

 Energy gradients wrt nuclear displacements
 ==========================================

     Atom      Cartesian (a.u./angstrom)
                 X         Y         Z
 ----------------------------------------
     1 H     0.000643  0.002075 -0.000565
     2 C     0.068205  0.051801  0.007792
     3 C    -0.072157 -0.081633 -0.015833
     4 C     0.129296  0.229871  0.045787
     5 O    -0.047210  0.237913  0.233482
     6 H    -0.003673  0.005256 -0.001830
     7 C    -0.024650 -0.008776 -0.000632
     8 C    -0.010794 -0.016217  0.022779
     9 C     0.019092  0.002810  0.018766
    10 C    -0.054505 -0.015104  0.001527
    11 C     0.018340  0.012538 -0.016226
    12 C    -0.015186  0.006808 -0.024471
    13 H     0.007267  0.010432 -0.015945
    14 H    -0.011149  0.003973 -0.015869
    15 H    -0.007792 -0.010054  0.014754
    16 H     0.010960 -0.004565  0.016735
    17 H     0.019207  0.006738  0.001041
    18 H    -0.031771  0.022032 -0.012889
    19 Sn    0.023341 -0.421827 -0.228681
    20 Cl   -0.015006 -0.001401 -0.061978
    21 Cl   -0.002459 -0.032668  0.032257
 ----------------------------------------
 Mulliken charges used for AMS results%charges...
 
----------------------------------------------------------------------
Geometry Convergence after Step   1       (Hartree/Angstrom,Angstrom)
----------------------------------------------------------------------
current energy                               -4.27301502 Hartree
energy change                      -4.27301502     0.00021000    F
constrained gradient max            0.42184623     0.00100000    F
constrained gradient rms            0.08473606     0.00066667    F
gradient max                        0.42184623
gradient rms                        0.08473606
cart. step max                      0.04351388     0.01000000    F
cart. step rms                      0.01289110     0.00666667    F
 
 
--------
Geometry
--------
Formula: C9H8Cl2OSn
Atoms
  Index Symbol   x (angstrom)   y (angstrom)   z (angstrom)
      1      H    -0.60504680    -0.02851888    -0.09212077
      2      C    -0.10381393    -2.03854262    -0.55268057
      3      C     0.19087731    -0.75163143    -0.27410089
      4      C     1.55889719    -0.24080616    -0.19870670
      5      O     1.88584050     0.91473816     0.03991163
      6      H     0.68565797    -2.76271343    -0.73680228
      7      C    -4.19160913    -3.44615848    -0.75284784
      8      C    -3.40508008    -3.73572828     0.36679298
      9      C    -2.08393298    -3.28123481     0.43156262
     10      C    -1.54664942    -2.53485693    -0.62465252
     11      C    -2.33535706    -2.24570325    -1.74532910
     12      C    -3.65641638    -2.70133391    -1.80850104
     13      H    -3.81657654    -4.30902518     1.18001917
     14      H    -1.47973668    -3.50484229     1.29410133
     15      H    -1.92449575    -1.67248039    -2.55861070
     16      H    -4.26136073    -2.47813593    -2.67082178
     17      H    -5.20854657    -3.79651442    -0.80196466
     18      H     2.32820113    -0.97435321    -0.38257102
     19     Sn     1.84242603     2.49811527     0.82889591
     20     Cl     2.19601229     2.91352098     3.16315360
     21     Cl     1.77447138     4.71992930    -0.05474208
 
Total System Charge             0.00000
 
 *** GOStep2 ***

 Energy gradients wrt nuclear displacements
 ==========================================

     Atom      Cartesian (a.u./angstrom)
                 X         Y         Z
 ----------------------------------------
     1 H     0.001217  0.002896 -0.000418
     2 C     0.054395  0.029209  0.003105
     3 C    -0.051007 -0.053312 -0.008286
     4 C     0.097620  0.193719  0.034885
     5 O    -0.044729  0.153135  0.188169
     6 H    -0.003665  0.003256 -0.002552
     7 C    -0.015922 -0.005657 -0.000268
     8 C    -0.007421 -0.010909  0.015180
     9 C     0.013283  0.004131  0.012597
    10 C    -0.046020 -0.013352  0.001449
    11 C     0.013885  0.007639 -0.010831
    12 C    -0.010350  0.004581 -0.016386
    13 H     0.004686  0.006731 -0.010897
    14 H    -0.007427  0.002594 -0.010685
    15 H    -0.005291 -0.006620  0.009914
    16 H     0.007097 -0.003136  0.011277
    17 H     0.012799  0.004477  0.000650
    18 H    -0.023237  0.017383 -0.013603
    19 Sn    0.025660 -0.303890 -0.178738
    20 Cl   -0.013088 -0.000835 -0.053968
    21 Cl   -0.002486 -0.032038  0.029407
 ----------------------------------------
 Mulliken charges used for AMS results%charges...

 dE(predicted):    -0.34126E-01, dE(actual):    -0.38069E-01, Trust radius:    0.400000, all in a.u.
 
----------------------------------------------------------------------
Geometry Convergence after Step   2       (Hartree/Angstrom,Angstrom)
----------------------------------------------------------------------
current energy                               -4.31108448 Hartree
energy change                      -0.03806946     0.00021000    F
constrained gradient max            0.30390424     0.00100000    F
constrained gradient rms            0.06355610     0.00066667    F
gradient max                        0.30390424
gradient rms                        0.06355610
cart. step max                      0.09196596     0.01000000    F
cart. step rms                      0.02671039     0.00666667    F
 
 
--------
Geometry
--------
Formula: C9H8Cl2OSn
Atoms
  Index Symbol   x (angstrom)   y (angstrom)   z (angstrom)
      1      H    -0.58212730    -0.00844451    -0.12405548
      2      C    -0.12287577    -2.04219244    -0.55385472
      3      C     0.19976858    -0.74815858    -0.29501477
      4      C     1.55690528    -0.28847961    -0.23563661
      5      O     1.93806133     0.88442270    -0.03785321
      6      H     0.66398022    -2.77640720    -0.72518700
      7      C    -4.18572523    -3.44158351    -0.74600104
      8      C    -3.39972684    -3.72145608     0.37341818
      9      C    -2.08104023    -3.26861851     0.43612199
     10      C    -1.53980510    -2.52813007    -0.62402091
     11      C    -2.33248282    -2.24959892    -1.74602716
     12      C    -3.65063363    -2.70619591    -1.80458046
     13      H    -3.81298720    -4.29206055     1.19759387
     14      H    -1.47456966    -3.48836981     1.30726541
     15      H    -1.92045980    -1.67892981    -2.57005664
     16      H    -4.25857211    -2.48759165    -2.67539473
     17      H    -5.20968780    -3.79491429    -0.79278278
     18      H     2.32688845    -1.04792452    -0.40490726
     19     Sn     1.81957757     2.54822981     0.86926652
     20     Cl     2.16372648     2.89367617     3.25511955
     21     Cl     1.74554735     4.78645137    -0.05342745
 
Total System Charge             0.00000
 
 *** GOStep3 ***

 Energy gradients wrt nuclear displacements
 ==========================================

     Atom      Cartesian (a.u./angstrom)
                 X         Y         Z
 ----------------------------------------
     1 H     0.001616  0.002637 -0.000113
     2 C     0.027411  0.008231 -0.000555
     3 C    -0.015009 -0.022401 -0.000297
     4 C     0.024252  0.092615  0.015784
     5 O    -0.022306  0.108392  0.134650
     6 H    -0.002991  0.000908 -0.003732
     7 C    -0.003673 -0.001339  0.000128
     8 C    -0.002314 -0.003372  0.004223
     9 C     0.004284  0.005486  0.004653
    10 C    -0.023384 -0.007383  0.001317
    11 C     0.006684  0.000570 -0.003768
    12 C    -0.003077  0.001534 -0.004740
    13 H     0.001105  0.001514 -0.003487
    14 H    -0.002117  0.000584 -0.003115
    15 H    -0.001715 -0.001724  0.002824
    16 H     0.001672 -0.001007  0.003373
    17 H     0.003557  0.001294  0.000153
    18 H    -0.007738  0.007310 -0.015076
    19 Sn    0.025976 -0.171294 -0.118092
    20 Cl   -0.009318  0.000434 -0.035112
    21 Cl   -0.002914 -0.022989  0.020982
 ----------------------------------------
 Mulliken charges used for AMS results%charges...

 dE(predicted):    -0.47447E-01, dE(actual):    -0.51660E-01, Trust radius:    0.800000, all in a.u.
 
----------------------------------------------------------------------
Geometry Convergence after Step   3       (Hartree/Angstrom,Angstrom)
----------------------------------------------------------------------
current energy                               -4.36274440 Hartree
energy change                      -0.05165992     0.00021000    F
constrained gradient max            0.17129436     0.00100000    F
constrained gradient rms            0.03755665     0.00066667    F
gradient max                        0.17129436
gradient rms                        0.03755665
cart. step max                      0.18203965     0.01000000    F
cart. step rms                      0.05120686     0.00666667    F
 
 
--------
Geometry
--------
Formula: C9H8Cl2OSn
Atoms
  Index Symbol   x (angstrom)   y (angstrom)   z (angstrom)
      1      H    -0.57158522     0.05195357    -0.25335886
      2      C    -0.16336747    -2.02111016    -0.50211089
      3      C     0.19432562    -0.71638560    -0.34407041
      4      C     1.55345957    -0.33107370    -0.30340179
      5      O     1.98378990     0.86707404    -0.21989286
      6      H     0.63079116    -2.76766225    -0.58536227
      7      C    -4.17814618    -3.46674507    -0.76122866
      8      C    -3.39953362    -3.74986662     0.36092381
      9      C    -2.08932425    -3.28372578     0.44418871
     10      C    -1.54443062    -2.50680929    -0.59203353
     11      C    -2.33640128    -2.22535653    -1.71698048
     12      C    -3.64186451    -2.70737960    -1.79966885
     13      H    -3.81290811    -4.33955942     1.17877690
     14      H    -1.48759893    -3.51263369     1.32297717
     15      H    -1.92403519    -1.63263586    -2.53219632
     16      H    -4.24277739    -2.48336189    -2.68071658
     17      H    -5.20048715    -3.83793480    -0.82571557
     18      H     2.31536578    -1.13514471    -0.33400297
     19     Sn     1.73964928     2.61891105     0.91765110
     20     Cl     2.26543111     2.83844166     3.34543869
     21     Cl     1.75340926     4.88472873    -0.06923105
 
Total System Charge             0.00000
 
 *** GOStep4 ***

 Energy gradients wrt nuclear displacements
 ==========================================

     Atom      Cartesian (a.u./angstrom)
                 X         Y         Z
 ----------------------------------------
     1 H    -0.000784 -0.000436  0.001351
     2 C    -0.006526 -0.006261 -0.001342
     3 C     0.021406  0.007250  0.009391
     4 C    -0.046911 -0.014765 -0.003173
     5 O     0.005548  0.094423  0.072669
     6 H    -0.000239  0.000172 -0.005457
     7 C     0.003954  0.001206  0.000494
     8 C     0.000543  0.001991 -0.003842
     9 C    -0.002628  0.005444 -0.000401
    10 C     0.006667  0.003180  0.000814
    11 C     0.000667 -0.006059  0.000615
    12 C     0.001935 -0.001189  0.003370
    13 H    -0.001180 -0.001857  0.002060
    14 H     0.001501 -0.000642  0.002251
    15 H     0.000858  0.001692 -0.002120
    16 H    -0.001901  0.000729 -0.002222
    17 H    -0.002862 -0.000977 -0.000169
    18 H     0.005884 -0.002844 -0.008224
    19 Sn    0.027865 -0.079344 -0.066536
    20 Cl   -0.007732  0.000896 -0.006125
    21 Cl   -0.006067 -0.002610  0.006597
 ----------------------------------------
 Mulliken charges used for AMS results%charges...

 dE(predicted):    -0.35248E-01, dE(actual):    -0.44943E-01, Trust radius:    1.000000, all in a.u.
 
----------------------------------------------------------------------
Geometry Convergence after Step   4       (Hartree/Angstrom,Angstrom)
----------------------------------------------------------------------
current energy                               -4.40768739 Hartree
energy change                      -0.04494299     0.00021000    F
constrained gradient max            0.09442302     0.00100000    F
constrained gradient rms            0.02159920     0.00066667    F
gradient max                        0.09442302
gradient rms                        0.02159920
cart. step max                      0.21147067     0.01000000    F
cart. step rms                      0.05815992     0.00666667    F
 
 
--------
Geometry
--------
Formula: C9H8Cl2OSn
Atoms
  Index Symbol   x (angstrom)   y (angstrom)   z (angstrom)
      1      H    -0.58852277     0.07360630    -0.41597249
      2      C    -0.18843520    -2.01276701    -0.46088022
      3      C     0.17345102    -0.70253006    -0.39087454
      4      C     1.53696643    -0.32921202    -0.28296431
      5      O     1.95214958     0.87569136    -0.28813099
      6      H     0.61213892    -2.75826116    -0.42951655
      7      C    -4.17874068    -3.49582273    -0.78371163
      8      C    -3.39761506    -3.81240084     0.32829719
      9      C    -2.09258867    -3.33845731     0.42910831
     10      C    -1.55402402    -2.51268912    -0.57466133
     11      C    -2.35122150    -2.19667863    -1.68845252
     12      C    -3.64946461    -2.69222153    -1.79217019
     13      H    -3.80464504    -4.43513024     1.12491035
     14      H    -1.48953803    -3.59395718     1.30009253
     15      H    -1.94486155    -1.56836494    -2.48007143
     16      H    -4.24970258    -2.44342293    -2.66730755
     17      H    -5.19680021    -3.87618540    -0.86372421
     18      H     2.29760317    -1.13318340    -0.20186102
     19     Sn     1.60920705     2.68458545     0.96796959
     20     Cl     2.47690178     2.89089767     3.32655605
     21     Cl     1.87150372     4.92022779    -0.10664974
 
Total System Charge             0.00000
 
 *** GOStep5 ***

 Energy gradients wrt nuclear displacements
 ==========================================

     Atom      Cartesian (a.u./angstrom)
                 X         Y         Z
 ----------------------------------------
     1 H    -0.002476 -0.002211  0.000814
     2 C    -0.014296 -0.006124 -0.004161
     3 C     0.022590  0.014732  0.009594
     4 C    -0.045859 -0.042109  0.005723
     5 O     0.005130  0.080638  0.034706
     6 H     0.002058  0.000151 -0.006587
     7 C     0.003874  0.001305  0.000392
     8 C     0.000699  0.002288 -0.004437
     9 C    -0.004679  0.005399 -0.000038
    10 C     0.011935  0.004267  0.003062
    11 C     0.000527 -0.007145 -0.000108
    12 C     0.001929 -0.001872  0.004221
    13 H    -0.001066 -0.002012  0.002518
    14 H     0.001612 -0.000574  0.002590
    15 H     0.001032  0.002300 -0.002186
    16 H    -0.001795  0.001063 -0.002651
    17 H    -0.003110 -0.001069 -0.000210
    18 H     0.007350 -0.003527 -0.005549
    19 Sn    0.026039 -0.058726 -0.047665
    20 Cl   -0.004971  0.002168  0.010835
    21 Cl   -0.006524  0.011060 -0.000865
 ----------------------------------------
 Mulliken charges used for AMS results%charges...

 dE(predicted):    -0.20232E-01, dE(actual):    -0.19129E-01, Trust radius:    1.000000, all in a.u.
 
----------------------------------------------------------------------
Geometry Convergence after Step   5       (Hartree/Angstrom,Angstrom)
----------------------------------------------------------------------
current energy                               -4.42681614 Hartree
energy change                      -0.01912875     0.00021000    F
constrained gradient max            0.08063517     0.00100000    F
constrained gradient rms            0.01780989     0.00066667    F
gradient max                        0.08063517
gradient rms                        0.01780989
cart. step max                      0.21415804     0.01000000    F
cart. step rms                      0.06718402     0.00666667    F
 
 
--------
Geometry
--------
Formula: C9H8Cl2OSn
Atoms
  Index Symbol   x (angstrom)   y (angstrom)   z (angstrom)
      1      H    -0.61724847     0.08951717    -0.50280750
      2      C    -0.21807796    -1.99586459    -0.39741885
      3      C     0.13917830    -0.68423610    -0.39539345
      4      C     1.50604858    -0.29820889    -0.24861621
      5      O     1.91218204     0.89260019    -0.30984651
      6      H     0.58428724    -2.73065983    -0.27711165
      7      C    -4.17535507    -3.53672897    -0.82028496
      8      C    -3.39149442    -3.89702586     0.27760404
      9      C    -2.09573217    -3.40704725     0.40652270
     10      C    -1.57079896    -2.51600272    -0.54915881
     11      C    -2.37140708    -2.15675232    -1.64881093
     12      C    -3.65854668    -2.67194724    -1.78452663
     13      H    -3.78825291    -4.56773826     1.03819615
     14      H    -1.48994571    -3.69808735     1.26330132
     15      H    -1.97341220    -1.48346317    -2.40554237
     16      H    -4.25864624    -2.39206589    -2.64901048
     17      H    -5.18424424    -3.93236059    -0.92462263
     18      H     2.26014439    -1.09274377    -0.07946528
     19     Sn     1.47052856     2.76712056     1.00968541
     20     Cl     2.69105982     2.96598571     3.22368330
     21     Cl     2.07349493     4.88943329    -0.17639139
 
Total System Charge             0.00000
 
 *** GOStep6 ***

 Energy gradients wrt nuclear displacements
 ==========================================

     Atom      Cartesian (a.u./angstrom)
                 X         Y         Z
 ----------------------------------------
     1 H    -0.002544 -0.002709  0.001071
     2 C    -0.013530 -0.004418 -0.003101
     3 C     0.015913  0.013682  0.008126
     4 C    -0.029523 -0.032950  0.007089
     5 O     0.000576  0.048930  0.012445
     6 H     0.003234  0.000006 -0.006804
     7 C     0.002105  0.000951 -0.000154
     8 C     0.000732  0.001811 -0.002908
     9 C    -0.004394  0.004348  0.001552
    10 C     0.009561  0.003925  0.002673
    11 C     0.000881 -0.006327 -0.001836
    12 C     0.000763 -0.001837  0.002876
    13 H    -0.000380 -0.001311  0.001751
    14 H     0.000960 -0.000386  0.001749
    15 H     0.000683  0.001776 -0.001191
    16 H    -0.000971  0.000967 -0.001732
    17 H    -0.001882 -0.000683 -0.000169
    18 H     0.005480  0.000334 -0.001968
    19 Sn    0.009797 -0.051121 -0.034255
    20 Cl    0.003302  0.004942  0.020822
    21 Cl   -0.000762  0.020067 -0.006038
 ----------------------------------------
 Mulliken charges used for AMS results%charges...
 Rebuilding optimization coordinates

 dE(predicted):    -0.20547E-01, dE(actual):    -0.14106E-01, Trust radius:    1.000000, all in a.u.
 
----------------------------------------------------------------------
Geometry Convergence after Step   6       (Hartree/Angstrom,Angstrom)
----------------------------------------------------------------------
current energy                               -4.44092200 Hartree
energy change                      -0.01410587     0.00021000    F
constrained gradient max            0.05111918     0.00100000    F
constrained gradient rms            0.01286334     0.00066667    F
gradient max                        0.05111918
gradient rms                        0.01286334
cart. step max                      0.21359154     0.01000000    F
cart. step rms                      0.06227073     0.00666667    F
 
 
--------
Geometry
--------
Formula: C9H8Cl2OSn
Atoms
  Index Symbol   x (angstrom)   y (angstrom)   z (angstrom)
      1      H    -0.64514021     0.10737978    -0.57551610
      2      C    -0.24242951    -1.97094797    -0.35417159
      3      C     0.10519123    -0.65895891    -0.39759729
      4      C     1.46863465    -0.25408524    -0.20226886
      5      O     1.87041707     0.92466515    -0.28814705
      6      H     0.55840385    -2.69097365    -0.15949312
      7      C    -4.16590029    -3.57321277    -0.84778081
      8      C    -3.37518345    -3.96304717     0.23567732
      9      C    -2.08927797    -3.45408674     0.38407964
     10      C    -1.58258131    -2.51317029    -0.53390175
     11      C    -2.39011135    -2.12563168    -1.61959601
     12      C    -3.66619429    -2.66060345    -1.77722234
     13      H    -3.75872794    -4.67134438     0.96724583
     14      H    -1.47738654    -3.76786152     1.22752139
     15      H    -2.00449103    -1.41733064    -2.34909634
     16      H    -4.27063140    -2.36045003    -2.63077593
     17      H    -5.16593048    -3.98414255    -0.96892365
     18      H     2.21380193    -1.04045857     0.03068476
     19     Sn     1.32272061     2.84920255     1.05552720
     20     Cl     2.85149175     2.99276762     3.07792223
     21     Cl     2.28708647     4.77601456    -0.22418224
 
Total System Charge             0.00000
 
 *** GOStep7 ***

 Energy gradients wrt nuclear displacements
 ==========================================

     Atom      Cartesian (a.u./angstrom)
                 X         Y         Z
 ----------------------------------------
     1 H    -0.002083 -0.002477  0.000725
     2 C    -0.010455 -0.002447 -0.003871
     3 C     0.009303  0.010431  0.006456
     4 C    -0.016811 -0.018778  0.007475
     5 O    -0.001184  0.023588  0.000358
     6 H     0.003573 -0.000294 -0.006352
     7 C     0.000899  0.000723 -0.000514
     8 C     0.000769  0.001105 -0.001658
     9 C    -0.003979  0.003300  0.002463
    10 C     0.006809  0.003368  0.003015
    11 C     0.001530 -0.004906 -0.002772
    12 C     0.000035 -0.001744  0.001820
    13 H    -0.000002 -0.000692  0.001118
    14 H     0.000410 -0.000148  0.001085
    15 H     0.000438  0.001330 -0.000395
    16 H    -0.000347  0.000768 -0.000975
    17 H    -0.000969 -0.000338 -0.000060
    18 H     0.003802  0.002357  0.000038
    19 Sn   -0.014965 -0.045375 -0.022232
    20 Cl    0.014019  0.007673  0.022688
    21 Cl    0.009207  0.022557 -0.008411
 ----------------------------------------
 Mulliken charges used for AMS results%charges...

 dE(predicted):    -0.19943E-01, dE(actual):    -0.84988E-02, Trust radius:    1.000000, all in a.u.
 
----------------------------------------------------------------------
Geometry Convergence after Step   7       (Hartree/Angstrom,Angstrom)
----------------------------------------------------------------------
current energy                               -4.44942083 Hartree
energy change                      -0.00849883     0.00021000    F
constrained gradient max            0.04536826     0.00100000    F
constrained gradient rms            0.00981268     0.00066667    F
gradient max                        0.04536826
gradient rms                        0.00981268
cart. step max                      0.18737887     0.01000000    F
cart. step rms                      0.08037954     0.00666667    F
 
 
--------
Geometry
--------
Formula: C9H8Cl2OSn
Atoms
  Index Symbol   x (angstrom)   y (angstrom)   z (angstrom)
      1      H    -0.63653424     0.11210860    -0.68268565
      2      C    -0.26386360    -1.94834143    -0.28284267
      3      C     0.09100007    -0.64390254    -0.39867555
      4      C     1.44648856    -0.22423268    -0.13667092
      5      O     1.85996250     0.93586905    -0.26273528
      6      H     0.51696734    -2.64887246     0.02788576
      7      C    -4.15365264    -3.59431348    -0.87923365
      8      C    -3.34342329    -4.05452390     0.16193718
      9      C    -2.06662342    -3.53255363     0.33795794
     10      C    -1.59050201    -2.50716219    -0.50365569
     11      C    -2.41713855    -2.05147874    -1.54858325
     12      C    -3.68272710    -2.59976959    -1.73784537
     13      H    -3.70409244    -4.82829354     0.83544425
     14      H    -1.43823040    -3.90145358     1.14543165
     15      H    -2.05202189    -1.28326311    -2.22496238
     16      H    -4.30056904    -2.24881885    -2.56097177
     17      H    -5.14506375    -4.01625760    -1.02496966
     18      H     2.16709338    -1.00063165     0.18868501
     19     Sn     1.18528948     2.94631814     1.03258721
     20     Cl     2.89857154     3.03522984     2.90621840
     21     Cl     2.47283128     4.59806743    -0.34233025
 
Total System Charge             0.00000
 
 *** GOStep8 ***

 Energy gradients wrt nuclear displacements
 ==========================================

     Atom      Cartesian (a.u./angstrom)
                 X         Y         Z
 ----------------------------------------
     1 H    -0.001879 -0.002261  0.000355
     2 C    -0.004992  0.000806 -0.005033
     3 C     0.001800  0.005991  0.003602
     4 C    -0.004967 -0.000875  0.007286
     5 O    -0.001334 -0.000372 -0.006132
     6 H     0.003988 -0.000727 -0.004445
     7 C    -0.000175  0.000986 -0.001252
     8 C     0.000786  0.000821 -0.000640
     9 C    -0.002666  0.001601  0.002861
    10 C     0.001490  0.001897  0.002795
    11 C     0.002800 -0.002165 -0.002614
    12 C    -0.001388 -0.002512  0.001235
    13 H     0.000337 -0.000076  0.000645
    14 H    -0.000084 -0.000064  0.000489
    15 H     0.000648  0.000974  0.000348
    16 H     0.000282  0.000505 -0.000382
    17 H    -0.000153 -0.000070  0.000011
    18 H     0.002544  0.004174  0.000962
    19 Sn   -0.040130 -0.036811 -0.010579
    20 Cl    0.023537  0.009053  0.019449
    21 Cl    0.019558  0.019126 -0.008961
 ----------------------------------------
 Mulliken charges used for AMS results%charges...

 dE(predicted):    -0.84005E-02, dE(actual):    -0.41035E-02, Trust radius:    1.000000, all in a.u.
 
----------------------------------------------------------------------
Geometry Convergence after Step   8       (Hartree/Angstrom,Angstrom)
----------------------------------------------------------------------
current energy                               -4.45352435 Hartree
energy change                      -0.00410351     0.00021000    F
constrained gradient max            0.04014564     0.00100000    F
constrained gradient rms            0.00915362     0.00066667    F
gradient max                        0.04014564
gradient rms                        0.00915362
cart. step max                      0.21979000     0.01000000    F
cart. step rms                      0.08839670     0.00666667    F
 
 
--------
Geometry
--------
Formula: C9H8Cl2OSn
Atoms
  Index Symbol   x (angstrom)   y (angstrom)   z (angstrom)
      1      H    -0.56625858     0.08900289    -0.80299971
      2      C    -0.27722652    -1.93882672    -0.19488105
      3      C     0.11604400    -0.65761503    -0.40484920
      4      C     1.46851664    -0.23764055    -0.09315920
      5      O     1.91425581     0.89294715    -0.25758844
      6      H     0.45733573    -2.61916970     0.24381517
      7      C    -4.14732374    -3.59061528    -0.90160213
      8      C    -3.30804715    -4.14259651     0.06992591
      9      C    -2.03710547    -3.61678148     0.27457047
     10      C    -1.59659151    -2.49950575    -0.46325054
     11      C    -2.45021493    -1.95701578    -1.44395351
     12      C    -3.71059207    -2.50464131    -1.66345567
     13      H    -3.64103816    -4.99034677     0.66224775
     14      H    -1.38455398    -4.05650925     1.02426118
     15      H    -2.10899289    -1.12428063    -2.05127234
     16      H    -4.34965661    -2.08680456    -2.43643335
     17      H    -5.13302709    -4.01433890    -1.07258833
     18      H     2.14026441    -1.00813608     0.33306540
     19     Sn     1.17669848     3.01746423     0.90206901
     20     Cl     2.74392795     3.07787431     2.88818411
     21     Cl     2.53734742     4.51125983    -0.56212025
 
Total System Charge             0.00000
 
 *** GOStep9 ***

 Energy gradients wrt nuclear displacements
 ==========================================

     Atom      Cartesian (a.u./angstrom)
                 X         Y         Z
 ----------------------------------------
     1 H    -0.001872 -0.001385  0.000343
     2 C     0.002591  0.002780 -0.002073
     3 C    -0.005170  0.000379  0.001807
     4 C     0.010618  0.025400 -0.001241
     5 O    -0.007869 -0.026172 -0.001225
     6 H     0.002906 -0.000541 -0.001389
     7 C    -0.001393  0.001388 -0.001919
     8 C     0.000619  0.000408  0.000991
     9 C     0.000003 -0.000606  0.002321
    10 C    -0.005623 -0.000585 -0.000106
    11 C     0.003720  0.001178 -0.001641
    12 C    -0.003455 -0.002545  0.000423
    13 H     0.000644  0.000759  0.000037
    14 H    -0.000590  0.000027 -0.000472
    15 H     0.001399  0.000096  0.000802
    16 H     0.000968 -0.000075  0.000282
    17 H     0.000933  0.000201  0.000036
    18 H     0.000145  0.006180  0.001113
    19 Sn   -0.034828 -0.028054 -0.007626
    20 Cl    0.019507  0.005576  0.021644
    21 Cl    0.016745  0.015591 -0.012109
 ----------------------------------------
 Mulliken charges used for AMS results%charges...

 dE(predicted):    -0.51990E-02, dE(actual):    -0.38052E-02, Trust radius:    1.000000, all in a.u.
 
----------------------------------------------------------------------
Geometry Convergence after Step   9       (Hartree/Angstrom,Angstrom)
----------------------------------------------------------------------
current energy                               -4.45732958 Hartree
energy change                      -0.00380523     0.00021000    F
constrained gradient max            0.03484928     0.00100000    F
constrained gradient rms            0.00918089     0.00066667    F
gradient max                        0.03484928
gradient rms                        0.00918089
cart. step max                      0.20702135     0.01000000    F
cart. step rms                      0.09604531     0.00666667    F
 
 
--------
Geometry
--------
Formula: C9H8Cl2OSn
Atoms
  Index Symbol   x (angstrom)   y (angstrom)   z (angstrom)
      1      H    -0.46730659     0.07193252    -0.93071667
      2      C    -0.31201949    -1.90660584    -0.11878324
      3      C     0.14119408    -0.65921819    -0.40516861
      4      C     1.47298037    -0.24495001     0.00269057
      5      O     1.97440078     0.85872396    -0.21164160
      6      H     0.36187613    -2.56113110     0.43747687
      7      C    -4.13604129    -3.61868790    -0.93252713
      8      C    -3.25241918    -4.23723270    -0.04518525
      9      C    -2.00315730    -3.67560233     0.19632758
     10      C    -1.61872332    -2.47283843    -0.43072928
     11      C    -2.51600932    -1.87065690    -1.33692172
     12      C    -3.76026340    -2.43979243    -1.58277790
     13      H    -3.53686179    -5.15844870     0.45522640
     14      H    -1.31677366    -4.16247193     0.88385121
     15      H    -2.22520166    -0.96962424    -1.86669385
     16      H    -4.43671782    -1.96852814    -2.29018148
     17      H    -5.11000522    -4.05966942    -1.12531645
     18      H     2.08214150    -1.01310773     0.52128213
     19     Sn     1.20120758     3.10363888     0.75777232
     20     Cl     2.61898777     3.14139891     2.83126014
     21     Cl     2.68247358     4.38659580    -0.75925873
 
Total System Charge             0.00000
 
 *** GOStep10 ***

 Energy gradients wrt nuclear displacements
 ==========================================

     Atom      Cartesian (a.u./angstrom)
                 X         Y         Z
 ----------------------------------------
     1 H    -0.001157 -0.000667 -0.000058
     2 C     0.005665  0.000999 -0.000938
     3 C    -0.007338 -0.003424 -0.002926
     4 C     0.006534  0.019960  0.007643
     5 O    -0.000260 -0.014383 -0.005586
     6 H     0.000872  0.000006 -0.000087
     7 C    -0.001286  0.001355 -0.001335
     8 C     0.000816 -0.000900  0.000653
     9 C     0.001034 -0.000472  0.001445
    10 C    -0.006749 -0.000476  0.000009
    11 C     0.001630  0.002025 -0.000781
    12 C    -0.003117 -0.001479 -0.000037
    13 H     0.000371  0.000855 -0.000274
    14 H    -0.000570  0.000145 -0.000830
    15 H     0.001577 -0.001058  0.000247
    16 H     0.000875 -0.000327  0.000424
    17 H     0.000987  0.000336  0.000287
    18 H     0.000455  0.002429 -0.001134
    19 Sn   -0.028693 -0.018141 -0.005041
    20 Cl    0.014598  0.003072  0.020317
    21 Cl    0.013756  0.010144 -0.011998
 ----------------------------------------
 Mulliken charges used for AMS results%charges...

 dE(predicted):    -0.29671E-02, dE(actual):    -0.26953E-02, Trust radius:    1.000000, all in a.u.
 
----------------------------------------------------------------------
Geometry Convergence after Step  10       (Hartree/Angstrom,Angstrom)
----------------------------------------------------------------------
current energy                               -4.46002486 Hartree
energy change                      -0.00269528     0.00021000    F
constrained gradient max            0.02871222     0.00100000    F
constrained gradient rms            0.00711401     0.00066667    F
gradient max                        0.02871222
gradient rms                        0.00711401
cart. step max                      0.21023343     0.01000000    F
cart. step rms                      0.09265606     0.00666667    F
 
 
--------
Geometry
--------
Formula: C9H8Cl2OSn
Atoms
  Index Symbol   x (angstrom)   y (angstrom)   z (angstrom)
      1      H    -0.36402636     0.06131616    -1.02528082
      2      C    -0.35502457    -1.85574579    -0.04732380
      3      C     0.16696495    -0.65224110    -0.40137564
      4      C     1.48815919    -0.26310476     0.05708792
      5      O     2.04435545     0.81608689    -0.16925365
      6      H     0.26728275    -2.48888285     0.58630377
      7      C    -4.11441781    -3.65635236    -0.96930882
      8      C    -3.18855532    -4.30747088    -0.15318051
      9      C    -1.96571567    -3.70461862     0.12412333
     10      C    -1.64248432    -2.43582902    -0.40048344
     11      C    -2.59093448    -1.79619321    -1.22771466
     12      C    -3.80918097    -2.40087197    -1.50634128
     13      H    -3.41949577    -5.28415987     0.26277054
     14      H    -1.24773255    -4.21354153     0.76191897
     15      H    -2.37404464    -0.82385736    -1.65646042
     16      H    -4.52885393    -1.89393112    -2.14317965
     17      H    -5.07144566    -4.12298969    -1.18670138
     18      H     2.00431872    -1.01568235     0.68987171
     19     Sn     1.24110986     3.15684958     0.58468144
     20     Cl     2.43922649     3.16803277     2.76093621
     21     Cl     2.86425639     4.25691117    -0.89110450
 
Total System Charge             0.00000
 
 *** GOStep11 ***

 Energy gradients wrt nuclear displacements
 ==========================================

     Atom      Cartesian (a.u./angstrom)
                 X         Y         Z
 ----------------------------------------
     1 H     0.000835  0.000483  0.000794
     2 C     0.002112  0.001449  0.003906
     3 C    -0.005088 -0.004250  0.000694
     4 C     0.007192  0.007729 -0.005720
     5 O     0.003918 -0.001338 -0.002926
     6 H    -0.001017  0.000249 -0.000408
     7 C    -0.000397 -0.000286 -0.000371
     8 C    -0.000559 -0.000709  0.001441
     9 C     0.001399 -0.000080 -0.000417
    10 C    -0.001629 -0.001184 -0.002541
    11 C    -0.001351  0.000318 -0.000631
    12 C    -0.000357  0.000779 -0.000661
    13 H    -0.000033  0.000555 -0.000547
    14 H    -0.000483  0.000451 -0.000431
    15 H    -0.000170 -0.001364  0.000233
    16 H     0.000382 -0.000295  0.000570
    17 H     0.000610  0.000228  0.000405
    18 H    -0.003789  0.000939  0.003086
    19 Sn   -0.017866 -0.009434 -0.003399
    20 Cl    0.007656  0.001133  0.015865
    21 Cl    0.008634  0.004628 -0.008942
 ----------------------------------------
 Mulliken charges used for AMS results%charges...

 dE(predicted):    -0.18235E-02, dE(actual):    -0.16030E-02, Trust radius:    1.000000, all in a.u.
 
----------------------------------------------------------------------
Geometry Convergence after Step  11       (Hartree/Angstrom,Angstrom)
----------------------------------------------------------------------
current energy                               -4.46162784 Hartree
energy change                      -0.00160298     0.00021000    F
constrained gradient max            0.01787535     0.00100000    F
constrained gradient rms            0.00435470     0.00066667    F
gradient max                        0.01787535
gradient rms                        0.00435470
cart. step max                      0.21070301     0.01000000    F
cart. step rms                      0.07875253     0.00666667    F
 
 
--------
Geometry
--------
Formula: C9H8Cl2OSn
Atoms
  Index Symbol   x (angstrom)   y (angstrom)   z (angstrom)
      1      H    -0.31573861     0.04204885    -1.04411241
      2      C    -0.38986231    -1.83293229     0.01711356
      3      C     0.16383935    -0.64958318    -0.35685043
      4      C     1.45983409    -0.26089273     0.15893402
      5      O     2.05200230     0.78960653    -0.10079735
      6      H     0.20324953    -2.45251575     0.69071670
      7      C    -4.09245825    -3.68225082    -1.02395302
      8      C    -3.13898975    -4.36310485    -0.26713128
      9      C    -1.94308942    -3.73441028     0.06558779
     10      C    -1.66591617    -2.41704945    -0.35735518
     11      C    -2.64821979    -1.74375678    -1.11616026
     12      C    -3.84210747    -2.37016437    -1.44331578
     13      H    -3.32922564    -5.38057379     0.06400497
     14      H    -1.20256168    -4.26723030     0.65720870
     15      H    -2.48467035    -0.72300174    -1.44575741
     16      H    -4.58832561    -1.83694461    -2.02659116
     17      H    -5.03045463    -4.16659018    -1.28383899
     18      H     1.95939238    -1.01011487     0.81029332
     19     Sn     1.29832721     3.21503673     0.44025284
     20     Cl     2.38144862     3.24861289     2.64548943
     21     Cl     2.99728795     4.13953507    -1.03375278
 
Total System Charge             0.00000
 
 *** GOStep12 ***

 Energy gradients wrt nuclear displacements
 ==========================================

     Atom      Cartesian (a.u./angstrom)
                 X         Y         Z
 ----------------------------------------
     1 H     0.002019  0.000339 -0.000359
     2 C     0.000217  0.000379  0.000570
     3 C     0.000962 -0.002767 -0.002255
     4 C    -0.003362  0.013418  0.005363
     5 O     0.003648 -0.007348 -0.005722
     6 H    -0.001534 -0.000074 -0.000840
     7 C     0.000294 -0.001411  0.000676
     8 C    -0.000604 -0.001042  0.000078
     9 C     0.000046  0.000529 -0.000122
    10 C     0.001775  0.000559  0.000419
    11 C    -0.002262 -0.000752  0.000087
    12 C     0.001724  0.002515 -0.000229
    13 H    -0.000310  0.000185 -0.000340
    14 H    -0.000115  0.000252 -0.000136
    15 H    -0.001439 -0.000860  0.000020
    16 H     0.000095 -0.000285  0.000062
    17 H     0.000089 -0.000021  0.000137
    18 H     0.000430 -0.000798 -0.000682
    19 Sn   -0.006564 -0.003602 -0.000841
    20 Cl    0.002305  0.000161  0.009186
    21 Cl    0.002587  0.000620 -0.005071
 ----------------------------------------
 Mulliken charges used for AMS results%charges...

 dE(predicted):    -0.93699E-03, dE(actual):    -0.80044E-03, Trust radius:    1.000000, all in a.u.
 
----------------------------------------------------------------------
Geometry Convergence after Step  12       (Hartree/Angstrom,Angstrom)
----------------------------------------------------------------------
current energy                               -4.46242828 Hartree
energy change                      -0.00080044     0.00021000    F
constrained gradient max            0.01342767     0.00100000    F
constrained gradient rms            0.00295066     0.00066667    F
gradient max                        0.01342767
gradient rms                        0.00295066
cart. step max                      0.09579460     0.01000000    F
cart. step rms                      0.03370919     0.00666667    F
 
 
--------
Geometry
--------
Formula: C9H8Cl2OSn
Atoms
  Index Symbol   x (angstrom)   y (angstrom)   z (angstrom)
      1      H    -0.33526891     0.03036766    -0.99889102
      2      C    -0.38287240    -1.85064663     0.04722142
      3      C     0.15965213    -0.66094251    -0.32160581
      4      C     1.45822893    -0.27054132     0.17928521
      5      O     2.04527872     0.78656818    -0.07564377
      6      H     0.21544295    -2.46998018     0.71765028
      7      C    -4.08638571    -3.66517025    -1.04262142
      8      C    -3.13260893    -4.37396038    -0.31170791
      9      C    -1.93723024    -3.75888035     0.04700530
     10      C    -1.65951998    -2.42785311    -0.32998523
     11      C    -2.63864894    -1.72721256    -1.06657612
     12      C    -3.83497813    -2.33922473    -1.41391053
     13      H    -3.32402208    -5.40218248    -0.01518113
     14      H    -1.19725164    -4.31363382     0.61954169
     15      H    -2.47086221    -0.69534759    -1.36038860
     16      H    -4.58135759    -1.78370266    -1.97648103
     17      H    -5.02478810    -4.13891472    -1.32116142
     18      H     1.96406675    -1.01179589     0.83531512
     19     Sn     1.27693926     3.22188860     0.34445823
     20     Cl     2.30030108     3.28151371     2.55737120
     21     Cl     3.02964680     4.11337511    -1.06370919
 
Total System Charge             0.00000
 
 *** GOStep13 ***

 Energy gradients wrt nuclear displacements
 ==========================================

     Atom      Cartesian (a.u./angstrom)
                 X         Y         Z
 ----------------------------------------
     1 H     0.000667  0.000609 -0.000531
     2 C    -0.000615  0.000352 -0.002186
     3 C     0.001167 -0.002514 -0.000376
     4 C    -0.006420  0.005801  0.000702
     5 O     0.005257 -0.002029 -0.004426
     6 H    -0.001074  0.000316  0.000617
     7 C     0.000111 -0.000989  0.000727
     8 C     0.000029 -0.000523 -0.001119
     9 C    -0.000685  0.000015 -0.000278
    10 C     0.001989  0.000716  0.002338
    11 C     0.000145 -0.000666  0.000402
    12 C     0.001301  0.001303  0.000331
    13 H    -0.000294 -0.000062  0.000153
    14 H     0.000151 -0.000072  0.000070
    15 H    -0.000600  0.000478 -0.000265
    16 H    -0.000229  0.000011 -0.000074
    17 H    -0.000268 -0.000064 -0.000191
    18 H     0.000526  0.000025  0.001310
    19 Sn   -0.000792 -0.001856  0.000683
    20 Cl    0.000196  0.000032  0.003629
    21 Cl   -0.000563 -0.000883 -0.001515
 ----------------------------------------
 Mulliken charges used for AMS results%charges...

 dE(predicted):    -0.44341E-03, dE(actual):    -0.65330E-03, Trust radius:    1.000000, all in a.u.
 
----------------------------------------------------------------------
Geometry Convergence after Step  13       (Hartree/Angstrom,Angstrom)
----------------------------------------------------------------------
current energy                               -4.46308158 Hartree
energy change                      -0.00065330     0.00021000    F
constrained gradient max            0.00642885     0.00100000    F
constrained gradient rms            0.00171035     0.00066667    F
gradient max                        0.00642885
gradient rms                        0.00171035
cart. step max                      0.15933800     0.01000000    F
cart. step rms                      0.05038043     0.00666667    F
 
 
--------
Geometry
--------
Formula: C9H8Cl2OSn
Atoms
  Index Symbol   x (angstrom)   y (angstrom)   z (angstrom)
      1      H    -0.38391308     0.03486127    -0.88828135
      2      C    -0.36270080    -1.88722491     0.06647039
      3      C     0.14996702    -0.67111540    -0.25735447
      4      C     1.45360883    -0.27792981     0.22067251
      5      O     2.02378322     0.79386348    -0.00776609
      6      H     0.27028311    -2.53667903     0.67552320
      7      C    -4.08961849    -3.63702572    -1.04723020
      8      C    -3.13625144    -4.37779567    -0.34680531
      9      C    -1.92526398    -3.79330448     0.00929986
     10      C    -1.63991677    -2.45376870    -0.32652632
     11      C    -2.61979719    -1.71721981    -1.02556065
     12      C    -3.82721717    -2.30461841    -1.38177195
     13      H    -3.33420219    -5.41359130    -0.08165611
     14      H    -1.18643721    -4.37404322     0.55752592
     15      H    -2.44038651    -0.67705502    -1.28259861
     16      H    -4.57375539    -1.72179514    -1.91631559
     17      H    -5.03746141    -4.09078041    -1.32737593
     18      H     1.99200555    -1.01944934     0.84871690
     19     Sn     1.24928775     3.23237809     0.18730979
     20     Cl     2.14096308     3.34886774     2.42645954
     21     Cl     3.12078483     4.08714987    -1.05275024
 
Total System Charge             0.00000
 
 *** GOStep14 ***

 Energy gradients wrt nuclear displacements
 ==========================================

     Atom      Cartesian (a.u./angstrom)
                 X         Y         Z
 ----------------------------------------
     1 H    -0.001012 -0.000420 -0.001170
     2 C    -0.003802  0.001233  0.002357
     3 C     0.002713 -0.001247 -0.000111
     4 C    -0.008765  0.003498 -0.003601
     5 O     0.003546 -0.003092 -0.000886
     6 H     0.001828 -0.000526 -0.000251
     7 C     0.000117  0.000366 -0.000552
     8 C    -0.000356  0.001751  0.001109
     9 C     0.000130 -0.000639 -0.001436
    10 C     0.001530 -0.000977 -0.000857
    11 C     0.001661  0.000187  0.001198
    12 C    -0.000505 -0.001370 -0.000288
    13 H     0.000365 -0.000484 -0.000032
    14 H     0.000243 -0.000218  0.000581
    15 H     0.000783  0.001447  0.000131
    16 H    -0.000530  0.000326 -0.000025
    17 H    -0.000448  0.000115 -0.000275
    18 H     0.002361  0.002812  0.002429
    19 Sn    0.006697 -0.000473  0.003457
    20 Cl   -0.001554 -0.000090 -0.005573
    21 Cl   -0.005003 -0.002199  0.003796
 ----------------------------------------
 Mulliken charges used for AMS results%charges...

 dE(predicted):    -0.60583E-03, dE(actual):    -0.62043E-03, Trust radius:    1.000000, all in a.u.
 
----------------------------------------------------------------------
Geometry Convergence after Step  14       (Hartree/Angstrom,Angstrom)
----------------------------------------------------------------------
current energy                               -4.46370201 Hartree
energy change                      -0.00062043     0.00021000    F
constrained gradient max            0.00876927     0.00100000    F
constrained gradient rms            0.00231578     0.00066667    F
gradient max                        0.00876927
gradient rms                        0.00231578
cart. step max                      0.08619681     0.01000000    F
cart. step rms                      0.02411266     0.00666667    F
 
 
--------
Geometry
--------
Formula: C9H8Cl2OSn
Atoms
  Index Symbol   x (angstrom)   y (angstrom)   z (angstrom)
      1      H    -0.40337460     0.06469272    -0.83780049
      2      C    -0.34813490    -1.89642614     0.03047518
      3      C     0.15158975    -0.66482259    -0.25445622
      4      C     1.46372578    -0.28303314     0.21114094
      5      O     2.02485695     0.79916494     0.01812212
      6      H     0.28735594    -2.55161235     0.63038395
      7      C    -4.09915324    -3.63527466    -1.02445349
      8      C    -3.14010032    -4.37331525    -0.32906322
      9      C    -1.92585249    -3.78759260     0.01316226
     10      C    -1.63677850    -2.45422034    -0.34327719
     11      C    -2.61870958    -1.72378398    -1.04644724
     12      C    -3.83350035    -2.30925988    -1.38030120
     13      H    -3.34116480    -5.40368656    -0.04621999
     14      H    -1.18249860    -4.36652968     0.55670430
     15      H    -2.43319955    -0.69151513    -1.32747930
     16      H    -4.57937397    -1.73181384    -1.92114845
     17      H    -5.05142401    -4.08868704    -1.28890507
     18      H     2.01762486    -1.04204134     0.80253399
     19     Sn     1.25382642     3.23344619     0.15252233
     20     Cl     2.05476627     3.35135474     2.42209595
     21     Cl     3.18328068     4.09868000    -0.98760385
 
Total System Charge             0.00000
 
 *** GOStep15 ***

 Energy gradients wrt nuclear displacements
 ==========================================

     Atom      Cartesian (a.u./angstrom)
                 X         Y         Z
 ----------------------------------------
     1 H    -0.001331 -0.000422  0.000221
     2 C     0.000090 -0.002300 -0.003034
     3 C     0.002693  0.000089  0.000926
     4 C    -0.006525  0.004560 -0.005318
     5 O     0.001537 -0.004822  0.000545
     6 H     0.000541  0.000907  0.002304
     7 C    -0.000235  0.000951  0.000050
     8 C     0.000908  0.000613 -0.001422
     9 C    -0.000589  0.000339  0.000906
    10 C    -0.000665 -0.000355 -0.000058
    11 C     0.000720  0.000398  0.000373
    12 C    -0.001257 -0.001391  0.000191
    13 H     0.000178 -0.000187  0.000399
    14 H     0.000252 -0.000247  0.000006
    15 H     0.000690  0.000644  0.000308
    16 H    -0.000134  0.000109 -0.000332
    17 H    -0.000196  0.000113 -0.000079
    18 H     0.002337  0.003822  0.002678
    19 Sn    0.007531 -0.001055  0.004164
    20 Cl   -0.001245  0.000043 -0.007084
    21 Cl   -0.005298 -0.001811  0.004255
 ----------------------------------------
 Mulliken charges used for AMS results%charges...

 dE(predicted):    -0.23101E-03, dE(actual):    -0.31602E-03, Trust radius:    1.000000, all in a.u.
 
----------------------------------------------------------------------
Geometry Convergence after Step  15       (Hartree/Angstrom,Angstrom)
----------------------------------------------------------------------
current energy                               -4.46401803 Hartree
energy change                      -0.00031602     0.00021000    F
constrained gradient max            0.00751276     0.00100000    F
constrained gradient rms            0.00240420     0.00066667    F
gradient max                        0.00751276
gradient rms                        0.00240420
cart. step max                      0.16073601     0.01000000    F
cart. step rms                      0.04675189     0.00666667    F
 
 
--------
Geometry
--------
Formula: C9H8Cl2OSn
Atoms
  Index Symbol   x (angstrom)   y (angstrom)   z (angstrom)
      1      H    -0.44317136     0.12844058    -0.72514967
      2      C    -0.34187831    -1.89317481    -0.01191377
      3      C     0.14032649    -0.64084818    -0.22861770
      4      C     1.47403146    -0.28776411     0.20422168
      5      O     2.02690944     0.80664001     0.06911466
      6      H     0.32250583    -2.58316179     0.51135565
      7      C    -4.11086656    -3.64262772    -0.99023848
      8      C    -3.14085172    -4.36944287    -0.29881939
      9      C    -1.92116442    -3.77705420     0.01089042
     10      C    -1.64090431    -2.44636684    -0.36422565
     11      C    -2.62992179    -1.73267972    -1.07501900
     12      C    -3.84911199    -2.32465797    -1.37806444
     13      H    -3.33854152    -5.39354759     0.00687223
     14      H    -1.16773703    -4.34772300     0.54820124
     15      H    -2.44308519    -0.71333617    -1.39554092
     16      H    -4.59918374    -1.75962994    -1.92515327
     17      H    -5.06585406    -4.10192352    -1.23215918
     18      H     2.05325652    -1.08481201     0.71365804
     19     Sn     1.29131765     3.24288091     0.07906290
     20     Cl     1.89403025     3.37525611     2.41064930
     21     Cl     3.33365613     4.08925692    -0.87913935
 
Total System Charge             0.00000
 
 *** GOStep16 ***

 Energy gradients wrt nuclear displacements
 ==========================================

     Atom      Cartesian (a.u./angstrom)
                 X         Y         Z
 ----------------------------------------
     1 H    -0.000225 -0.000881  0.000797
     2 C     0.001703 -0.001637 -0.001756
     3 C     0.001482  0.000040  0.000631
     4 C    -0.002920  0.004872 -0.004468
     5 O    -0.000584 -0.004558  0.001089
     6 H     0.000027  0.000720  0.000995
     7 C    -0.000192  0.000807  0.000165
     8 C     0.000762 -0.000797 -0.001554
     9 C     0.000238  0.000134  0.000482
    10 C    -0.003502  0.001047  0.001346
    11 C    -0.000760  0.000424 -0.001552
    12 C    -0.001125 -0.000531  0.000564
    13 H    -0.000128  0.000339  0.000606
    14 H    -0.000116 -0.000065 -0.000613
    15 H     0.000257 -0.001198 -0.000106
    16 H     0.000429 -0.000024  0.000034
    17 H     0.000453 -0.000071  0.000056
    18 H     0.002022  0.004107  0.002275
    19 Sn    0.006029 -0.002695  0.004266
    20 Cl    0.000034  0.000205 -0.006620
    21 Cl   -0.003884 -0.000238  0.003363
 ----------------------------------------
 Mulliken charges used for AMS results%charges...

 dE(predicted):    -0.39086E-03, dE(actual):    -0.56624E-03, Trust radius:    1.000000, all in a.u.
 
----------------------------------------------------------------------
Geometry Convergence after Step  16       (Hartree/Angstrom,Angstrom)
----------------------------------------------------------------------
current energy                               -4.46458427 Hartree
energy change                      -0.00056624     0.00021000    F
constrained gradient max            0.00664183     0.00100000    F
constrained gradient rms            0.00208808     0.00066667    F
gradient max                        0.00664183
gradient rms                        0.00208808
cart. step max                      0.21720241     0.01000000    F
cart. step rms                      0.04630221     0.00666667    F
 
 
--------
Geometry
--------
Formula: C9H8Cl2OSn
Atoms
  Index Symbol   x (angstrom)   y (angstrom)   z (angstrom)
      1      H    -0.46158294     0.16281876    -0.64769911
      2      C    -0.33236532    -1.89443346    -0.04307147
      3      C     0.13617457    -0.62969227    -0.20849462
      4      C     1.47942288    -0.29204988     0.21273270
      5      O     2.02701012     0.80960238     0.12060466
      6      H     0.34739368    -2.60382955     0.43092649
      7      C    -4.11547371    -3.64220657    -0.96634310
      8      C    -3.13288910    -4.37136747    -0.29570706
      9      C    -1.90755651    -3.77891104    -0.00890788
     10      C    -1.63498737    -2.44589725    -0.38349515
     11      C    -2.63987764    -1.72839715    -1.06759767
     12      C    -3.86211774    -2.32170674    -1.35258064
     13      H    -3.32292159    -5.39833093     0.00435271
     14      H    -1.14398351    -4.35058535     0.51225656
     15      H    -2.46282781    -0.70674234    -1.38511985
     16      H    -4.62265837    -1.75495559    -1.88266981
     17      H    -5.07441396    -4.10133264    -1.19175323
     18      H     2.06998950    -1.11327821     0.66692569
     19     Sn     1.33081587     3.25292388    -0.03313249
     20     Cl     1.67682785     3.41535808     2.35153741
     21     Cl     3.48978286     4.03673743    -0.78277885
 
Total System Charge             0.00000
 
 *** GOStep17 ***

 Energy gradients wrt nuclear displacements
 ==========================================

     Atom      Cartesian (a.u./angstrom)
                 X         Y         Z
 ----------------------------------------
     1 H     0.000611 -0.000633  0.001070
     2 C     0.002292 -0.000799 -0.001867
     3 C    -0.000507 -0.000896  0.000222
     4 C    -0.001129  0.003742 -0.002493
     5 O    -0.000834 -0.002791  0.000945
     6 H    -0.000994  0.000551  0.000483
     7 C    -0.000102  0.000271  0.000141
     8 C     0.000207 -0.001447 -0.000394
     9 C     0.000112  0.000053  0.001219
    10 C    -0.002069  0.000991 -0.000307
    11 C    -0.001826  0.000685 -0.001189
    12 C    -0.000038  0.000324  0.000059
    13 H    -0.000074  0.000390 -0.000069
    14 H    -0.000472  0.000176 -0.000535
    15 H    -0.000365 -0.001686  0.000077
    16 H     0.000755 -0.000110  0.000154
    17 H     0.000609 -0.000084  0.000354
    18 H     0.001469  0.003353  0.001666
    19 Sn    0.003648 -0.002545  0.003764
    20 Cl    0.000957 -0.000282 -0.005321
    21 Cl   -0.002248  0.000735  0.002020
 ----------------------------------------
 Mulliken charges used for AMS results%charges...

 dE(predicted):    -0.49371E-03, dE(actual):    -0.45565E-03, Trust radius:    1.000000, all in a.u.
 Residual max backtransformation error   0.4564E-04
 
----------------------------------------------------------------------
Geometry Convergence after Step  17       (Hartree/Angstrom,Angstrom)
----------------------------------------------------------------------
current energy                               -4.46503992 Hartree
energy change                      -0.00045565     0.00021000    F
constrained gradient max            0.00533755     0.00100000    F
constrained gradient rms            0.00155976     0.00066667    F
gradient max                        0.00533755
gradient rms                        0.00155976
cart. step max                      0.21825034     0.01000000    F
cart. step rms                      0.04595199     0.00666667    F
 
 
--------
Geometry
--------
Formula: C9H8Cl2OSn
Atoms
  Index Symbol   x (angstrom)   y (angstrom)   z (angstrom)
      1      H    -0.47071412     0.17950664    -0.58878708
      2      C    -0.32648156    -1.89624020    -0.04704092
      3      C     0.13407883    -0.62562674    -0.18320627
      4      C     1.48385785    -0.29787498     0.22812121
      5      O     2.02708939     0.80787997     0.15944126
      6      H     0.36521936    -2.61849776     0.38814731
      7      C    -4.11543947    -3.63724606    -0.95566825
      8      C    -3.11997881    -4.37887085    -0.31854592
      9      C    -1.89212556    -3.78879244    -0.03710308
     10      C    -1.63058726    -2.44532717    -0.38168356
     11      C    -2.64775728    -1.71614979    -1.03439461
     12      C    -3.87237690    -2.30666013    -1.31373413
     13      H    -3.30321366    -5.41268685    -0.03875151
     14      H    -1.11836415    -4.36971562     0.45818224
     15      H    -2.48024441    -0.68617138    -1.32989167
     16      H    -4.64318910    -1.73053048    -1.81826971
     17      H    -5.07625072    -4.09428945    -1.17756416
     18      H     2.07948702    -1.13470830     0.64587874
     19     Sn     1.37247672     3.25511673    -0.15276367
     20     Cl     1.45857750     3.47091269     2.25679100
     21     Cl     3.61969809     3.96969627    -0.70917191
 
Total System Charge             0.00000
 
 *** GOStep18 ***

 Energy gradients wrt nuclear displacements
 ==========================================

     Atom      Cartesian (a.u./angstrom)
                 X         Y         Z
 ----------------------------------------
     1 H     0.001092 -0.000194  0.000705
     2 C     0.001929  0.000097 -0.000807
     3 C    -0.002035 -0.001553 -0.000352
     4 C     0.000463  0.002294 -0.000504
     5 O    -0.001133 -0.001100  0.000753
     6 H    -0.001277  0.000154 -0.000410
     7 C    -0.000160 -0.000048  0.000236
     8 C     0.000237 -0.001777 -0.000495
     9 C     0.000207 -0.000215  0.000901
    10 C    -0.001032  0.001382  0.000587
    11 C    -0.001462  0.000177 -0.001657
    12 C     0.000340  0.001003  0.000414
    13 H    -0.000294  0.000566  0.000086
    14 H    -0.000446  0.000220 -0.000569
    15 H    -0.000569 -0.001530 -0.000050
    16 H     0.000714 -0.000155  0.000164
    17 H     0.000588 -0.000139  0.000224
    18 H     0.000693  0.002034  0.000910
    19 Sn    0.001061 -0.001611  0.002379
    20 Cl    0.001165 -0.000869 -0.003062
    21 Cl   -0.000080  0.001263  0.000548
 ----------------------------------------
 Mulliken charges used for AMS results%charges...
 Rebuilding optimization coordinates

 dE(predicted):    -0.50884E-03, dE(actual):    -0.38632E-03, Trust radius:    1.000000, all in a.u.
 
----------------------------------------------------------------------
Geometry Convergence after Step  18       (Hartree/Angstrom,Angstrom)
----------------------------------------------------------------------
current energy                               -4.46542624 Hartree
energy change                      -0.00038632     0.00021000    F
constrained gradient max            0.00307576     0.00100000    F
constrained gradient rms            0.00105570     0.00066667    F
gradient max                        0.00307576
gradient rms                        0.00105570
cart. step max                      0.21553880     0.01000000    F
cart. step rms                      0.04197982     0.00666667    F
 
 
--------
Geometry
--------
Formula: C9H8Cl2OSn
Atoms
  Index Symbol   x (angstrom)   y (angstrom)   z (angstrom)
      1      H    -0.46719827     0.17693475    -0.55513214
      2      C    -0.31308308    -1.90753598    -0.04845916
      3      C     0.14306760    -0.63412756    -0.16938668
      4      C     1.49532333    -0.30945827     0.23644690
      5      O     2.03053528     0.80165811     0.18224399
      6      H     0.38469830    -2.63660476     0.36548585
      7      C    -4.11561763    -3.62227602    -0.94771720
      8      C    -3.11453459    -4.38004613    -0.33891421
      9      C    -1.88060792    -3.80060042    -0.06160888
     10      C    -1.62005091    -2.45035692    -0.37870673
     11      C    -2.64582577    -1.70189182    -0.99482680
     12      C    -3.87429001    -2.28367678    -1.27598101
     13      H    -3.29570871    -5.42090333    -0.08469958
     14      H    -1.10220363    -4.39435721     0.41108135
     15      H    -2.48148464    -0.66344959    -1.26268879
     16      H    -4.65157541    -1.69349349    -1.75403102
     17      H    -5.08059572    -4.07150943    -1.16824881
     18      H     2.09484019    -1.15446373     0.63237033
     19     Sn     1.39735201     3.24473211    -0.25341023
     20     Cl     1.24303870     3.52257407     2.15309709
     21     Cl     3.69768263     3.92257649    -0.63692899
 
Total System Charge             0.00000
 
 *** GOStep19 ***

 Energy gradients wrt nuclear displacements
 ==========================================

     Atom      Cartesian (a.u./angstrom)
                 X         Y         Z
 ----------------------------------------
     1 H     0.000974  0.000232  0.000444
     2 C     0.001540  0.000530 -0.000490
     3 C    -0.002670 -0.001768 -0.000771
     4 C     0.001639  0.000196  0.000742
     5 O    -0.001500  0.001020  0.000463
     6 H    -0.001157 -0.000020 -0.000481
     7 C    -0.000075 -0.000220 -0.000020
     8 C    -0.000157 -0.001077  0.000586
     9 C     0.000078 -0.000292  0.000568
    10 C     0.000318  0.000757 -0.000302
    11 C    -0.001143  0.000217 -0.000193
    12 C     0.000689  0.000728 -0.000288
    13 H    -0.000166  0.000336 -0.000345
    14 H    -0.000346  0.000234 -0.000241
    15 H    -0.000465 -0.000903 -0.000106
    16 H     0.000435 -0.000120  0.000148
    17 H     0.000323 -0.000081  0.000217
    18 H    -0.000094  0.000631  0.000418
    19 Sn   -0.000854 -0.000846  0.000852
    20 Cl    0.000633 -0.001026 -0.000639
    21 Cl    0.001998  0.001471 -0.000561
 ----------------------------------------
 Mulliken charges used for AMS results%charges...

 dE(predicted):    -0.35060E-03, dE(actual):    -0.27069E-03, Trust radius:    1.000000, all in a.u.
 Residual max backtransformation error   0.1307E-04
 
----------------------------------------------------------------------
Geometry Convergence after Step  19       (Hartree/Angstrom,Angstrom)
----------------------------------------------------------------------
current energy                               -4.46569693 Hartree
energy change                      -0.00027069     0.00021000    F
constrained gradient max            0.00267090     0.00100000    F
constrained gradient rms            0.00081180     0.00066667    F
gradient max                        0.00267090
gradient rms                        0.00081180
cart. step max                      0.21193434     0.01000000    F
cart. step rms                      0.04909975     0.00666667    F
 
 
--------
Geometry
--------
Formula: C9H8Cl2OSn
Atoms
  Index Symbol   x (angstrom)   y (angstrom)   z (angstrom)
      1      H    -0.46448936     0.17189443    -0.52124456
      2      C    -0.30451737    -1.91692640    -0.03551746
      3      C     0.14939666    -0.64191289    -0.14663296
      4      C     1.50311737    -0.31849668     0.25378671
      5      O     2.03290667     0.79598134     0.20606591
      6      H     0.39873017    -2.65147650     0.35975659
      7      C    -4.11392817    -3.60914289    -0.94626401
      8      C    -3.10296877    -4.38669282    -0.38009920
      9      C    -1.86693052    -3.81521668    -0.09564839
     10      C    -1.61309313    -2.45386864    -0.36607539
     11      C    -2.64851303    -1.68510314    -0.93953985
     12      C    -3.88025785    -2.25804560    -1.22510929
     13      H    -3.27854545    -5.43706213    -0.16317123
     14      H    -1.08135981    -4.42423691     0.34523420
     15      H    -2.49104918    -0.63532467    -1.16575042
     16      H    -4.66629462    -1.65173348    -1.66784795
     17      H    -5.08113691    -4.05176208    -1.17118209
     18      H     2.10510791    -1.16732861     0.63840854
     19     Sn     1.43857056     3.22942140    -0.37267465
     20     Cl     1.03110436     3.58361508     1.99823989
     21     Cl     3.77791222     3.86714196    -0.55474911
 
Total System Charge             0.00000
 
 *** GOStep20 ***

 Energy gradients wrt nuclear displacements
 ==========================================

     Atom      Cartesian (a.u./angstrom)
                 X         Y         Z
 ----------------------------------------
     1 H     0.000770  0.000415  0.000043
     2 C     0.000568  0.000658  0.000330
     3 C    -0.002505 -0.001690 -0.000793
     4 C     0.002040 -0.001376  0.001047
     5 O    -0.001708  0.002366  0.000827
     6 H    -0.000680 -0.000199 -0.000756
     7 C    -0.000074 -0.000222  0.000016
     8 C     0.000000 -0.000580  0.000416
     9 C    -0.000152 -0.000199  0.000414
    10 C     0.001026  0.000426 -0.000123
    11 C    -0.000332 -0.000222 -0.000262
    12 C     0.000526  0.000668 -0.000045
    13 H    -0.000165  0.000196 -0.000266
    14 H    -0.000125  0.000137 -0.000092
    15 H    -0.000322 -0.000244 -0.000064
    16 H     0.000144 -0.000083  0.000035
    17 H     0.000090 -0.000046  0.000069
    18 H    -0.000530 -0.000282  0.000066
    19 Sn   -0.002007  0.000237 -0.000650
    20 Cl    0.000066 -0.001198  0.000744
    21 Cl    0.003373  0.001238 -0.000956
 ----------------------------------------
 Mulliken charges used for AMS results%charges...

 dE(predicted):    -0.13040E-03, dE(actual):    -0.16893E-03, Trust radius:    1.000000, all in a.u.
 Residual max backtransformation error   0.1502E-04
 
----------------------------------------------------------------------
Geometry Convergence after Step  20       (Hartree/Angstrom,Angstrom)
----------------------------------------------------------------------
current energy                               -4.46586585 Hartree
energy change                      -0.00016893     0.00021000    T
constrained gradient max            0.00336353     0.00100000    F
constrained gradient rms            0.00091619     0.00066667    F
gradient max                        0.00336353
gradient rms                        0.00091619
cart. step max                      0.21365614     0.01000000    F
cart. step rms                      0.05714396     0.00666667    F
 
 
--------
Geometry
--------
Formula: C9H8Cl2OSn
Atoms
  Index Symbol   x (angstrom)   y (angstrom)   z (angstrom)
      1      H    -0.45397446     0.15920102    -0.49150429
      2      C    -0.29682430    -1.92887651    -0.00789384
      3      C     0.16038918    -0.65462529    -0.11726195
      4      C     1.51452446    -0.33233709     0.27808698
      5      O     2.04261530     0.78306844     0.22345970
      6      H     0.40756865    -2.66766813     0.37852103
      7      C    -4.11028197    -3.59231269    -0.95403899
      8      C    -3.08923725    -4.39270098    -0.44020333
      9      C    -1.85265656    -3.83101878    -0.13911119
     10      C    -1.60781899    -2.45682955    -0.34237200
     11      C    -2.65337819    -1.66423730    -0.86264587
     12      C    -3.88659493    -2.22704418    -1.16277196
     13      H    -3.25752068    -5.45381375    -0.27471766
     14      H    -1.05959351    -4.45825119     0.26166643
     15      H    -2.50369269    -0.60232124    -1.03210347
     16      H    -4.68180456    -1.60191408    -1.56134462
     17      H    -5.07839618    -4.02708990    -1.19085092
     18      H     2.11600594    -1.18007515     0.66683152
     19     Sn     1.48370399     3.19637521    -0.50234233
     20     Cl     0.81744822     3.65636820     1.79342649
     21     Cl     3.83328029     3.81982703    -0.47284445
 
Total System Charge             0.00000
 
 *** GOStep21 ***

 Energy gradients wrt nuclear displacements
 ==========================================

     Atom      Cartesian (a.u./angstrom)
                 X         Y         Z
 ----------------------------------------
     1 H     0.000279  0.000364 -0.000256
     2 C    -0.000490  0.000297  0.000652
     3 C    -0.000975 -0.000842 -0.000436
     4 C     0.001747 -0.002786  0.000548
     5 O    -0.002034  0.003005  0.000947
     6 H     0.000051 -0.000220 -0.000638
     7 C     0.000057 -0.000208 -0.000136
     8 C     0.000099  0.000170  0.000208
     9 C    -0.000186 -0.000038 -0.000338
    10 C     0.000913  0.000079  0.000605
    11 C     0.000260 -0.000493 -0.000114
    12 C     0.000228  0.000333  0.000111
    13 H    -0.000121 -0.000026 -0.000015
    14 H     0.000127 -0.000022  0.000056
    15 H    -0.000024  0.000314 -0.000166
    16 H    -0.000184  0.000008 -0.000023
    17 H    -0.000149  0.000009 -0.000076
    18 H    -0.000651 -0.000789  0.000120
    19 Sn   -0.002074  0.001079 -0.001408
    20 Cl   -0.000571 -0.000961  0.001348
    21 Cl    0.003699  0.000726 -0.000987
 ----------------------------------------
 Mulliken charges used for AMS results%charges...

 dE(predicted):    -0.14595E-03, dE(actual):    -0.15380E-03, Trust radius:    1.000000, all in a.u.
 
----------------------------------------------------------------------
Geometry Convergence after Step  21       (Hartree/Angstrom,Angstrom)
----------------------------------------------------------------------
current energy                               -4.46601965 Hartree
energy change                      -0.00015380     0.00021000    T
constrained gradient max            0.00369141     0.00100000    F
constrained gradient rms            0.00095526     0.00066667    F
gradient max                        0.00369141
gradient rms                        0.00095526
cart. step max                      0.20405716     0.01000000    F
cart. step rms                      0.05033197     0.00666667    F
 
 
--------
Geometry
--------
Formula: C9H8Cl2OSn
Atoms
  Index Symbol   x (angstrom)   y (angstrom)   z (angstrom)
      1      H    -0.44188296     0.14740738    -0.47071286
      2      C    -0.28767544    -1.94039456     0.00774212
      3      C     0.17315027    -0.66691571    -0.09853564
      4      C     1.52717803    -0.34622652     0.29450810
      5      O     2.05502986     0.76945498     0.23608479
      6      H     0.41616681    -2.68299443     0.38868027
      7      C    -4.10978399    -3.57543262    -0.95340986
      8      C    -3.08026410    -4.39325897    -0.48606375
      9      C    -1.84158495    -3.84111625    -0.17605697
     10      C    -1.60169563    -2.45981464    -0.32887742
     11      C    -2.65576937    -1.64907369    -0.80189685
     12      C    -3.89216264    -2.20210295    -1.10794581
     13      H    -3.24353731    -5.46091205    -0.36180422
     14      H    -1.04254018    -4.48207982     0.18998479
     15      H    -2.51168115    -0.57976315    -0.92404651
     16      H    -4.69473891    -1.56284922    -1.46778864
     17      H    -5.07997827    -4.00261773    -1.19578816
     18      H     2.12834038    -1.19234377     0.68760660
     19     Sn     1.53200068     3.16019857    -0.60707237
     20     Cl     0.63190539     3.70688534     1.58936932
     21     Cl     3.86328525     3.79767389    -0.36399163
 
Total System Charge             0.00000
 
 *** GOStep22 ***

 Energy gradients wrt nuclear displacements
 ==========================================

     Atom      Cartesian (a.u./angstrom)
                 X         Y         Z
 ----------------------------------------
     1 H    -0.000166  0.000178 -0.000292
     2 C    -0.001106 -0.000011  0.000607
     3 C     0.000514 -0.000094 -0.000123
     4 C     0.001130 -0.003753 -0.000132
     5 O    -0.002078  0.003161  0.001171
     6 H     0.000516 -0.000142 -0.000298
     7 C     0.000071 -0.000084  0.000061
     8 C     0.000116  0.000589 -0.000065
     9 C    -0.000286  0.000178 -0.000301
    10 C     0.000715 -0.000309  0.000299
    11 C     0.000629 -0.000527 -0.000198
    12 C    -0.000009  0.000023  0.000146
    13 H    -0.000001 -0.000195  0.000033
    14 H     0.000248 -0.000126  0.000129
[...]
    13     H      -0.417762   0.030891  -0.034503
    14     H      -0.357314  -0.320944  -0.026638
    15     H      -0.452913   0.021796  -0.036933
    16     H      -0.360429  -0.341911  -0.026512
    17     H      -0.091600  -0.100407  -0.006569
    18     H      -0.011408   0.009808  -0.001198
    19    Sn       0.000048  -0.000055   0.000005
    20    Cl      -0.000092  -0.000034  -0.000069
    21    Cl      -0.000106  -0.000036   0.000053
 
 Mode:    52      Frequency (cm-1):     1572.1085     Intensity (km/mol):       11.0918
 Index  Atom      ---- Displacements (x/y/z) ----
     1     H      -0.166973  -0.077725  -0.012138
     2     C      -0.074620  -0.050437  -0.005344
     3     C       0.066284   0.074082   0.004301
     4     C       0.004577   0.021410  -0.000015
     5     O      -0.015218  -0.027135  -0.000823
     6     H      -0.009389  -0.007061  -0.000527
     7     C      -0.103649   0.337221  -0.011481
     8     C       0.093697  -0.174320   0.009207
     9     C       0.057066   0.187181   0.002948
    10     C       0.103637  -0.214821   0.010526
    11     C      -0.154377   0.124711  -0.013709
    12     C       0.011759  -0.202474   0.002749
    13     H      -0.169551  -0.135149  -0.012704
    14     H      -0.260152  -0.154112  -0.020068
    15     H       0.360788   0.021110   0.028983
    16     H       0.223481  -0.001128   0.018356
    17     H       0.155700  -0.504854   0.017252
    18     H       0.054234   0.057704   0.003703
    19    Sn      -0.000014   0.000116  -0.000002
    20    Cl       0.000037  -0.000042   0.000045
    21    Cl       0.000049  -0.000045  -0.000039
 
 Mode:    53      Frequency (cm-1):     1595.5723     Intensity (km/mol):      477.4810
 Index  Atom      ---- Displacements (x/y/z) ----
     1     H       0.243479   0.122843   0.018126
     2     C       0.075728   0.081109   0.005098
     3     C      -0.077743  -0.092718  -0.004954
     4     C       0.111630   0.151831   0.006889
     5     O      -0.050126  -0.080640  -0.002877
     6     H      -0.162030  -0.114500  -0.012649
     7     C       0.111345   0.050809   0.008615
     8     C      -0.233462  -0.022354  -0.018971
     9     C       0.211515   0.143900   0.016184
    10     C      -0.155047  -0.087195  -0.011891
    11     C       0.250095   0.033265   0.020136
    12     C      -0.217990  -0.142820  -0.016578
    13     H       0.248280  -0.138057   0.021584
    14     H      -0.172666  -0.280987  -0.011792
    15     H      -0.332149   0.165876  -0.028238
    16     H       0.163812   0.285321   0.010993
    17     H       0.130943   0.030148   0.010419
    18     H      -0.224567  -0.089710  -0.017527
    19    Sn       0.000313  -0.000672   0.000040
    20    Cl      -0.000558  -0.000009  -0.000602
    21    Cl      -0.000669   0.000002   0.000488
 
 Mode:    54      Frequency (cm-1):     1615.2676     Intensity (km/mol):       17.6544
 Index  Atom      ---- Displacements (x/y/z) ----
     1     H      -0.369884  -0.059612  -0.029515
     2     C      -0.265207  -0.344342  -0.016813
     3     C       0.189995   0.275512   0.011395
     4     C       0.115385   0.177412   0.006740
     5     O      -0.095509  -0.149063  -0.005563
     6     H       0.548027   0.304592   0.042187
     7     C       0.050617  -0.047699   0.004552
     8     C      -0.100878   0.029708  -0.008506
     9     C       0.053144  -0.027625   0.004619
    10     C       0.040497   0.142006   0.001785
    11     C       0.066450  -0.038958   0.005857
    12     C      -0.047927   0.007189  -0.003958
    13     H       0.134135  -0.022764   0.011193
    14     H       0.033607  -0.054775   0.003160
    15     H      -0.020503  -0.026201  -0.001969
    16     H      -0.022258   0.038376  -0.002204
    17     H       0.019383   0.069192   0.000826
    18     H      -0.020701   0.071706  -0.002834
    19    Sn       0.000190   0.000052   0.000016
    20    Cl      -0.000328  -0.000328  -0.000188
    21    Cl      -0.000365  -0.000342   0.000130
 
 Mode:    55      Frequency (cm-1):     1621.9514     Intensity (km/mol):      963.1514
 Index  Atom      ---- Displacements (x/y/z) ----
     1     H       0.371140   0.204643   0.027984
     2     C       0.036848   0.084131   0.001741
     3     C      -0.142560  -0.147370  -0.009555
     4     C       0.294703   0.382173   0.018449
     5     O      -0.137943  -0.222503  -0.007905
     6     H      -0.178277  -0.095869  -0.013574
     7     C      -0.059969  -0.008531  -0.004808
     8     C       0.137871   0.004513   0.011260
     9     C      -0.126301  -0.078065  -0.009691
    10     C       0.101788   0.006733   0.008365
    11     C      -0.146445   0.007072  -0.012102
    12     C       0.109530   0.060492   0.008431
    13     H      -0.127619   0.067170  -0.011100
    14     H       0.098326   0.165031   0.006750
    15     H       0.150535  -0.055333   0.012975
    16     H      -0.048578  -0.115781  -0.003044
    17     H      -0.062115  -0.023877  -0.004835
    18     H      -0.448667  -0.163261  -0.035122
    19    Sn       0.000673  -0.001237   0.000082
    20    Cl      -0.001211  -0.000139  -0.001226
    21    Cl      -0.001442  -0.000122   0.000987
 
 Mode:    56      Frequency (cm-1):     2911.4320     Intensity (km/mol):       78.4274
 Index  Atom      ---- Displacements (x/y/z) ----
     1     H      -0.008511   0.011525  -0.000916
     2     C       0.001279  -0.001305   0.000131
     3     C       0.003195   0.000863   0.000256
     4     C      -0.049952   0.066857  -0.005351
     5     O       0.001659   0.002178   0.000104
     6     H      -0.016954   0.010783  -0.001588
     7     C      -0.000024   0.000025  -0.000002
     8     C      -0.000011  -0.000056   0.000000
     9     C       0.000006   0.000041  -0.000000
    10     C      -0.000156  -0.000570  -0.000004
    11     C       0.000108   0.000041   0.000009
    12     C      -0.000021  -0.000086  -0.000002
    13     H      -0.000006   0.000507  -0.000001
    14     H      -0.001008   0.000837  -0.000077
    15     H       0.000270   0.000341   0.000016
    16     H       0.000249  -0.000086   0.000010
    17     H      -0.000159  -0.000080  -0.000020
    18     H       0.542539  -0.833330   0.059854
    19    Sn       0.000011  -0.000077   0.000003
    20    Cl      -0.000016   0.000006  -0.000039
    21    Cl      -0.000023   0.000009   0.000035
 
 Mode:    57      Frequency (cm-1):     3089.0390     Intensity (km/mol):        9.1449
 Index  Atom      ---- Displacements (x/y/z) ----
     1     H       0.023600  -0.032598   0.002538
     2     C       0.052458  -0.066226   0.005511
     3     C      -0.000123   0.005218  -0.000098
     4     C       0.001773  -0.000497   0.000159
     5     O      -0.000390  -0.000265  -0.000028
     6     H      -0.628689   0.765615  -0.065630
     7     C       0.000108   0.000150   0.000008
     8     C       0.000122  -0.000704   0.000016
     9     C      -0.004698   0.004082  -0.000429
    10     C      -0.001238  -0.001724  -0.000082
    11     C      -0.000565  -0.000653  -0.000039
    12     C      -0.000120  -0.000062  -0.000009
    13     H       0.002881   0.012084   0.000133
    14     H       0.052142  -0.044740   0.004751
    15     H       0.002098   0.011080   0.000081
    16     H       0.001811  -0.001083   0.000158
    17     H      -0.002188  -0.000369  -0.000171
    18     H      -0.013802   0.013452  -0.001388
    19    Sn       0.000004   0.000004   0.000000
    20    Cl      -0.000004  -0.000005   0.000003
    21    Cl      -0.000004  -0.000005  -0.000003
 
 Mode:    58      Frequency (cm-1):     3128.2374     Intensity (km/mol):        1.8068
 Index  Atom      ---- Displacements (x/y/z) ----
     1     H       0.000078   0.000814  -0.000009
     2     C       0.003065  -0.003406   0.000315
     3     C      -0.000090   0.000005  -0.000008
     4     C       0.000122  -0.000085   0.000012
     5     O      -0.000028  -0.000011  -0.000002
     6     H      -0.036703   0.041272  -0.003784
     7     C      -0.034423  -0.010884  -0.002720
     8     C       0.009040   0.044017   0.000330
     9     C       0.040791  -0.039376   0.003741
    10     C       0.001265   0.001168   0.000092
    11     C       0.000349   0.006241  -0.000021
    12     C       0.015961  -0.014128   0.001426
    13     H      -0.115469  -0.526342  -0.004573
    14     H      -0.485548   0.452758  -0.044337
    15     H      -0.014378  -0.074073  -0.000591
    16     H      -0.186787   0.172885  -0.016744
    17     H       0.410659   0.127688   0.032461
    18     H      -0.000954   0.001097  -0.000104
    19    Sn       0.000001  -0.000001   0.000000
    20    Cl      -0.000002   0.000000  -0.000001
    21    Cl      -0.000002   0.000000   0.000001
 
 Mode:    59      Frequency (cm-1):     3136.2914     Intensity (km/mol):        1.5349
 Index  Atom      ---- Displacements (x/y/z) ----
     1     H      -0.012295   0.017744  -0.001332
     2     C      -0.002041   0.002409  -0.000212
     3     C       0.001316  -0.001697   0.000139
     4     C      -0.000303  -0.000006  -0.000025
     5     O       0.000074   0.000082   0.000005
     6     H       0.024614  -0.026875   0.002526
     7     C      -0.047682  -0.014019  -0.003776
     8     C       0.002654  -0.000269   0.000221
     9     C      -0.037557   0.035173  -0.003434
    10     C      -0.000776  -0.001287  -0.000051
    11     C       0.001945   0.011693   0.000065
    12     C       0.033517  -0.029437   0.002993
    13     H      -0.003111  -0.001798  -0.000233
    14     H       0.433357  -0.403463   0.039572
    15     H      -0.030530  -0.144596  -0.001345
    16     H      -0.386339   0.356504  -0.034629
    17     H       0.554838   0.171950   0.043855
    18     H       0.000860  -0.000941   0.000097
    19    Sn       0.000001  -0.000003   0.000000
    20    Cl      -0.000001   0.000000  -0.000001
    21    Cl      -0.000001   0.000001   0.000001
 
 Mode:    60      Frequency (cm-1):     3146.3702     Intensity (km/mol):       11.2170
 Index  Atom      ---- Displacements (x/y/z) ----
     1     H       0.018061  -0.027313   0.001980
     2     C      -0.001404   0.001230  -0.000139
     3     C      -0.001461   0.002460  -0.000163
     4     C      -0.000067   0.000138  -0.000008
     5     O       0.000021   0.000015   0.000001
     6     H       0.015277  -0.016872   0.001571
     7     C      -0.023730  -0.010675  -0.001846
     8     C       0.012259   0.045664   0.000583
     9     C      -0.023482   0.020420  -0.002132
    10     C      -0.000884  -0.001260  -0.000060
    11     C      -0.002432  -0.022134  -0.000022
    12     C      -0.040788   0.039177  -0.003673
    13     H      -0.119033  -0.526381  -0.004851
    14     H       0.254073  -0.234906   0.023184
    15     H       0.052570   0.262611   0.002211
    16     H       0.473547  -0.440412   0.042477
    17     H       0.280602   0.090965   0.022150
    18     H       0.000802  -0.001152   0.000086
    19    Sn      -0.000000  -0.000001   0.000000
    20    Cl      -0.000000   0.000001  -0.000001
    21    Cl      -0.000000   0.000001   0.000001
 
 Mode:    61      Frequency (cm-1):     3155.0967     Intensity (km/mol):       14.5767
 Index  Atom      ---- Displacements (x/y/z) ----
     1     H       0.027806  -0.041114   0.003028
     2     C       0.000353  -0.000720   0.000041
     3     C      -0.002598   0.003712  -0.000280
     4     C       0.000280   0.000122   0.000022
     5     O      -0.000074  -0.000094  -0.000005
     6     H      -0.004412   0.004381  -0.000444
     7     C      -0.051983  -0.014728  -0.004120
     8     C      -0.011410  -0.056229  -0.000417
     9     C       0.019377  -0.014744   0.001740
    10     C      -0.000119   0.001364  -0.000023
    11     C      -0.003825  -0.022927  -0.000129
    12     C      -0.016857   0.019242  -0.001545
    13     H       0.136097   0.621190   0.005372
    14     H      -0.194986   0.177413  -0.017768
    15     H       0.055320   0.268721   0.002381
    16     H       0.205167  -0.194547   0.018439
    17     H       0.571482   0.176106   0.045186
    18     H      -0.000077  -0.000026  -0.000012
    19    Sn       0.000000   0.000003  -0.000000
    20    Cl      -0.000001  -0.000001  -0.000000
    21    Cl      -0.000001  -0.000001   0.000000
 
 Mode:    62      Frequency (cm-1):     3166.2184     Intensity (km/mol):        2.4874
 Index  Atom      ---- Displacements (x/y/z) ----
     1     H      -0.119170   0.177478  -0.012986
     2     C       0.001499   0.000273   0.000123
     3     C       0.010169  -0.016037   0.001122
     4     C      -0.000221  -0.000374  -0.000013
     5     O       0.000006  -0.000022   0.000001
     6     H      -0.013063   0.014553  -0.001353
     7     C      -0.012251  -0.005226  -0.000954
     8     C      -0.001000  -0.007354  -0.000014
     9     C       0.001297  -0.001719   0.000123
    10     C       0.002273  -0.001476   0.000201
    11     C       0.017037   0.075544   0.000788
    12     C      -0.027361   0.022705  -0.002434
    13     H       0.016574   0.078129   0.000635
    14     H      -0.014183   0.013777  -0.001301
    15     H      -0.181711  -0.859419  -0.007991
    16     H       0.282264  -0.259620   0.025287
    17     H       0.133064   0.043250   0.010507
    18     H      -0.002054   0.002698  -0.000221
    19    Sn      -0.000002   0.000005  -0.000000
    20    Cl       0.000003  -0.000013   0.000011
    21    Cl       0.000006  -0.000013  -0.000010
 
 Mode:    63      Frequency (cm-1):     3185.7410     Intensity (km/mol):        1.8406
 Index  Atom      ---- Displacements (x/y/z) ----
     1     H       0.543158  -0.801132   0.058986
     2     C      -0.003538  -0.001373  -0.000273
     3     C      -0.045852   0.070855  -0.005046
     4     C       0.001596   0.001665   0.000108
     5     O      -0.000264  -0.000254  -0.000018
     6     H       0.022734  -0.033539   0.002508
     7     C      -0.000370  -0.000338  -0.000027
     8     C      -0.000018  -0.000200   0.000001
     9     C      -0.000386   0.000351  -0.000035
    10     C       0.000188   0.000016   0.000012
    11     C       0.004116   0.018504   0.000190
    12     C      -0.003011   0.001947  -0.000263
    13     H       0.000590   0.002353   0.000026
    14     H       0.005656  -0.005072   0.000514
    15     H      -0.046196  -0.216153  -0.002024
    16     H       0.026782  -0.024302   0.002397
    17     H       0.003448   0.001319   0.000271
    18     H       0.010484  -0.011631   0.001087
    19    Sn       0.000006  -0.000010  -0.000000
    20    Cl       0.000000   0.000065  -0.000035
    21    Cl      -0.000009   0.000070   0.000036

PES point character: Geometry corresponds to a local minimum on the PES.




 ============================
 Statistical Thermal Analysis  ***  ideal gas assumed  ***
 ============================
  
 Pressure:                  1.000000 atm.
 Temperature:             298.150000 K



 Moments of Inertia [amu*bohr^2] and principal axis
 ==================================================

        2095.6704      11548.0674      11915.4423
 ------------------------------------------------
          -0.6009          0.7960          0.0729
          -0.7985         -0.6019         -0.0101
          -0.0358          0.0643         -0.9973


 The rotational contribution to the molecular entropy includes
 a term, dependent on the symmetry number sigma. The results 
 reported below were computed using sigma = 1, determined from
 the point group symmetry of the input geometry (NOSYM). 
 If this is not the correct symmetry, try symmetrizing the molecule before
 running the calculation (note: linear molecules should be aligned along one
 of the Cartesian axes).
 Contributions from frequencies below 20 1/cm are not included in vibrational sums.
 Their contributions, if any, are reported separately.


     Temp                                                        Transl      Rotat     Vibrat     Total
     ----                                                        ------      -----     ------     -----

     298.15   Entropy (cal/mol-K):                               43.203     34.022     50.210    127.434
              Nuclear Internal Energy (kcal/mol):                 0.889      0.889     96.942     98.720
              Constant Volume Heat Capacity (cal/mol-K):          2.981      2.981     41.716     47.678
          (c) Constant Volume Heat Capacity (cal/mol-K):          2.981      2.981     37.339     43.301

 Contributions from frequencies below 20 1/cm
 Frequency (1/cm):                                    8.168
 Entropy (cal/mol-K):                                 8.413
 Nuclear Internal Energy (kcal/mol):                  0.593
 Constant Volume Heat Capacity (cal/mol-K):           1.987

       Summary of energy terms
                                                   hartree              eV         kcal/mol           kJ/mol
                                      --------------------     -----------       ----------      -----------
      Energy from Engine:               -4.471379115576355       -121.6724         -2805.83        -11739.60
      Nuclear Internal Energy:           0.157320051131175          4.2809            98.72           413.04
  (c) Nuclear Internal Energy:           0.155092196253392          4.2203            97.32           407.19
      Internal Energy U:                -4.314059064445180       -117.3915         -2707.11        -11326.56
      pV/n = RT:                         0.000944186013486          0.0257             0.59             2.48
      Enthalpy H:                       -4.313114878431694       -117.3658         -2706.52        -11324.08
      -T*S:                             -0.060548044190653         -1.6476           -37.99          -158.97
  (c) -T*S:                             -0.060062494608935         -1.6344           -37.69          -157.69
      Gibbs free energy:                -4.373662922622347       -119.0134         -2744.52        -11483.05
 
 
 
  (c) The properties marked with this symbol have been corrected using 'low vibrational frequency free rotor
      interpolation corrections'. For those terms all positive frequencies are used (also ones below 20 1/cm),
      but the contribution to the partition function of small vibrational frequencies is modified as described
      in the following paper:
      S. Grimme, 'Supramolecular Binding Thermodynamics by Dispersion-Corrected Density Functional Theory'
      (Chem. Eur. J. 2012, 18, 9955-9964)
      Configuration: Dampener Frequency          :   100.000 1/cm
                     Dampener Alpha              :     4.000
                     Averaging Moment of Inertia : 1.000E-44 kg m2

--------------
Atomic charges
--------------
  Index   Atom    Charge
      1      H   -0.1365
      2      C    0.3049
      3      C    0.1841
      4      C    0.6821
      5      O   -0.5695
      6      H   -0.2257
      7      C    0.2633
      8      C    0.2429
      9      C    0.3082
     10      C   -0.0134
     11      C    0.3122
     12      C    0.2445
     13      H   -0.2416
     14      H   -0.2528
     15      H   -0.2530
     16      H   -0.2355
     17      H   -0.2357
     18      H   -0.2605
     19     Sn    0.7320
     20     Cl   -0.4243
     21     Cl   -0.4259


Dipole moment vector    (Debye):    -0.89313413   -6.50978151    0.08013932
              magnitude (Debye):     6.57125302


Final PES point is a local minimum. Geometry optimization successful!


AMS application finished. Exiting.
NORMAL TERMINATION
     Total cpu time:   53435.28
  Total system time:     214.90
 Total elapsed time:  107651.57
 WARNING: total elapsed time is much higher than the (CPU+system) time. 
 Make sure the machine is not oversubscribed and has enough memory, SCM_TMPDIR p
 oints to a fast file system, and the network is fast enough.
