
 *******************************************************************************
 *                                                                             *
 *  --------------------------------                                           *
 *   Amsterdam Modeling Suite (AMS)              2021.102                      *
 *  --------------------------------                                           *
 *                                               r95042 2021-06-07             *
 *                                                                             *
 *                                                                             *
 *                              =================                              *
 *                              |               |                              *
 *                              |     A M S     |                              *
 *                              |               |                              *
 *                              =================                              *
 *                                                                             *
 *                                                                             *
 *   Online information and documentation:  https://www.scm.com/support/       *
 *   E-mail:  support@scm.com   info@scm.com                                   *
 *                                                                             *
 *   Scientific publications using AMS results must be properly referenced     *
 *   See the User Manuals (or the web site) for recommended citations          *
 *   The terms and conditions of the End User License Agreement apply to       *
 *   the use of AMS, https://www.scm.com/license-terms/                        *
 *                                                                             *
 **********************  x86_64_linux_intel / intelmpi  ************************
 
 Licensed to: VU/FEW (+ SARA) / ALGEMEEN / Amsterdam / THE NETHERLANDS
 SCM User ID: u7668
  
 AMS 2021.102  RunTime: Jan28-2022 08:03:37  ShM Nodes: 1  Procs: 4

 AMS jobname: 30.achiral_catalyst.H_Ph_AlF3.P1
 AMS jobid  : 637741320

 Start   directory: /scistor/tc/yhk800/MasterProject/calculations/achiral_catalyst_H_Ph_AlF3/30.achiral_catalyst.H_Ph_AlF3.P1/
 Results directory: /scistor/tc/yhk800/MasterProject/calculations/achiral_catalyst_H_Ph_AlF3/30.achiral_catalyst.H_Ph_AlF3.P1/
 Scratch directory: /scratch/5299/amstmp_30.achiral_catalyst.H_Ph_AlF3.P1_kid3.637741320/




                      ************************************************************************
                      *  ADF 2021.102  RunTime: Jan28-2022 08:03:38  ShM Nodes: 1  Procs: 4  *
                      ************************************************************************
  
       ***************************
       *  GEOMETRY OPTIMIZATION  *
       ***************************

Optimization Method                    Quasi Newton
Optimization Coordinates               Delocalized Coordinates
Optimize lattice                       F
 
 ------------------------------------------------------
 Convergence criteria (Hartree,Angstrom)
 ------------------------------------------------------
 Maximum gradient               0.001000000000
 Maximum rms gradient           0.000666666667
 Maximum step allowed           0.010000000000
 Maximum rms step allowed       0.006666666667
 Maximum energy change allowe   0.000260000000
 Maximum stress energy allowe   0.000500000000
 
Initial model Hessian                  Automatic Hessian
 
------------------------------------
Quasi-Newton Optimizer Parameters
------------------------------------
Hessian Update Method                  BFGS
Maximum number of steps                  250
First GDIIS cycle                          0
Maximum GDIIS vectors                      0
Trust radius (bohr)                        0.200000
Trust radius varies                        T
Constraints converged at all steps         T
Use projector                              T
 
 Rigid motions settings for: old optimizer
 Atomic rotations (x,y,z):     T T T
 Atomic translations (x,y,z):  T T T
 Tolerance:                   1.000000000000000E-006
 
--------
Geometry
--------
Formula: C10H11AlF3O
Atoms
  Index Symbol   x (angstrom)   y (angstrom)   z (angstrom)
      1      H     0.30883566    -1.71322737     0.34845077
      2      C    -0.85933175     0.07325638     0.95361639
      3      C     0.30566658    -0.62207952     0.35697327
      4      C     1.44363467     0.02246096    -0.23005168
      5      O     2.41991567    -0.55928782    -0.73004528
      6      H    -0.69195270     1.15283717     0.94428296
      7      H    -2.09949902     0.10683830     2.73788510
      8      H    -0.38777363    -0.20492454     3.06899219
      9      C    -1.20706757    -0.41125312     2.37345100
     10      H    -1.40849480    -1.48746718     2.39475159
     11      C    -4.29292549    -0.66839322    -1.59666079
     12      C    -3.82114632     0.63831354    -1.41996901
     13      C    -2.71340734     0.87758301    -0.59720381
     14      C    -2.07744753    -0.18985427     0.04886961
     15      C    -2.54922669    -1.49656102    -0.12782217
     16      C    -3.65696567    -1.73583049    -0.95058737
     17      H    -4.30779978     1.45514508    -1.91436167
     18      H    -2.35238932     1.87750995    -0.46199454
     19      H    -2.06257324    -2.31339256     0.36657049
     20      H    -4.01798370    -2.73575744    -1.08579664
     21      H    -5.14059697    -0.85148861    -2.22626272
     22      H     2.13175883    -0.63340533    -0.72119785
     23     Al     1.54062743     0.82456511    -0.28082009
     24      F     1.82756558     0.50093109     1.27778181
     25      F     0.22432544     0.22256801    -1.00280412
     26      F     2.56999127     1.75019623    -1.11743797
 
Total System Charge             0.00000
 
 
----------------
ADF Engine Input
----------------
 
 NumericalQuality VeryGood
 SCF
 Converge 1.0e-6
 Iterations 99
 End
 SYMMETRY NOSYM
 SpinPolarization 1.0
 Unrestricted Yes
 XC
 GGA OLYP
 End
 basis
 core None
 type TZ2P
 End
 

 Title: *** (NO TITLE) ***

 Using automatic Hessian for delocalized coordinates.
 *** GOStep1 ***

 Energy gradients wrt nuclear displacements
 ==========================================

     Atom      Cartesian (a.u./angstrom)
                 X         Y         Z
 ----------------------------------------
     1 H    -0.000338  0.001383 -0.004359
     2 C     0.053312  0.031184 -0.023622
     3 C     0.002339  0.217244 -0.144060
     4 C     0.833268  7.678827 -0.752225
     5 O   -29.331875 -7.689721  0.553201
     6 H    -0.002570 -0.010656 -0.008496
     7 H     0.000722  0.001038  0.000453
     8 H    -0.000853  0.000756 -0.000611
     9 C    -0.012591 -0.009111 -0.011142
    10 H    -0.001619 -0.003915  0.000954
    11 C    -0.018855 -0.002227 -0.013728
    12 C    -0.014323  0.018924 -0.014863
    13 C     0.021766  0.031102  0.008493
    14 C    -0.003269 -0.014488 -0.005436
    15 C     0.021934 -0.017605  0.016955
    16 C    -0.010718 -0.027505 -0.003084
    17 H     0.009600 -0.016123  0.009571
    18 H    -0.006429 -0.019687 -0.002099
    19 H    -0.005207  0.015862 -0.007240
    20 H     0.006947  0.019545  0.002468
    21 H     0.016396  0.003550  0.011940
    22 H    28.901340  8.195556 -0.306840
    23 Al   -0.906021 -7.774345  0.519750
    24 F    -0.183526 -0.227923 -0.407312
    25 F     0.630425 -0.347802  0.579340
    26 F     0.000146 -0.053861  0.001993
 ----------------------------------------
 Mulliken charges used for AMS results%charges...
 
----------------------------------------------------------------------
Geometry Convergence after Step   1       (Hartree/Angstrom,Angstrom)
----------------------------------------------------------------------
current energy                                1.35111179 Hartree
energy change                       1.35111179     0.00026000    F
constrained gradient max           29.33185973     0.00100000    F
constrained gradient rms            4.99395790     0.00066667    F
gradient max                       29.33185973
gradient rms                        4.99395790
cart. step max                      0.03646774     0.01000000    F
cart. step rms                      0.00553795     0.00666667    T
 
 
--------
Geometry
--------
Formula: C10H11AlF3O
Atoms
  Index Symbol   x (angstrom)   y (angstrom)   z (angstrom)
      1      H     0.30844682    -1.71403962     0.34828835
      2      C    -0.85983624     0.07283277     0.95338610
      3      C     0.30540247    -0.62288455     0.35687709
      4      C     1.44324224     0.01820987    -0.22963880
      5      O     2.45638341    -0.55219408    -0.73119011
      6      H    -0.69232686     1.15245087     0.94389688
      7      H    -2.09985207     0.10676452     2.73777390
      8      H    -0.38812360    -0.20512305     3.06878000
      9      C    -1.20750007    -0.41145579     2.37332963
     10      H    -1.40902203    -1.48762652     2.39477130
     11      C    -4.29396022    -0.66826604    -1.59657178
     12      C    -3.82183968     0.63828886    -1.42000222
     13      C    -2.71399227     0.87732953    -0.59738905
     14      C    -2.07815086    -0.19015076     0.04873986
     15      C    -2.55035126    -1.49674041    -0.12787520
     16      C    -3.65820553    -1.73576345    -0.95050256
     17      H    -4.30838652     1.45530165    -1.91444536
     18      H    -2.35271637     1.87729894    -0.46229755
     19      H    -2.06386869    -2.31378657     0.36653754
     20      H    -4.01952149    -2.73571510    -1.08561955
     21      H    -5.14182783    -0.85121317    -2.22614051
     22      H     2.10341807    -0.64214556    -0.71882353
     23     Al     1.54319187     0.82973709    -0.28116763
     24      F     1.83101023     0.50270801     1.27863461
     25      F     0.22186720     0.22037094    -1.00195976
     26      F     2.57225891     1.75509394    -1.11878220
 
Total System Charge             0.00000
 
 *** GOStep2 ***

 Energy gradients wrt nuclear displacements
 ==========================================

     Atom      Cartesian (a.u./angstrom)
                 X         Y         Z
 ----------------------------------------
     1 H     0.001881  0.002394 -0.005489
     2 C     0.053532  0.030212 -0.024327
     3 C    -0.000188  0.220621 -0.140413
     4 C     0.851331  7.331988 -0.733146
     5 O   -16.859397 -4.350267  0.313638
     6 H    -0.002391 -0.010636 -0.008533
     7 H     0.000561  0.001051  0.000488
     8 H    -0.000907  0.000785 -0.000676
     9 C    -0.012809 -0.008870 -0.011049
    10 H    -0.001755 -0.003853  0.000941
    11 C    -0.018846 -0.002112 -0.013631
    12 C    -0.014377  0.018776 -0.014823
    13 C     0.021593  0.030905  0.008392
    14 C    -0.003370 -0.014462 -0.005416
    15 C     0.021544 -0.017494  0.016671
    16 C    -0.010662 -0.027373 -0.002990
    17 H     0.009423 -0.016004  0.009469
    18 H    -0.006517 -0.019561 -0.002025
    19 H    -0.005255  0.015737 -0.007189
    20 H     0.006779  0.019405  0.002434
    21 H     0.016168  0.003529  0.011850
    22 H    16.409248  4.867410 -0.070135
    23 Al   -0.890629 -7.444923  0.511390
    24 F    -0.182235 -0.221438 -0.395001
    25 F     0.616101 -0.346997  0.557520
    26 F     0.001178 -0.058824  0.002050
 ----------------------------------------
 Mulliken charges used for AMS results%charges...

 dE(predicted):    -0.20797E+01, dE(actual):    -0.16150E+01, Trust radius:    0.400000, all in a.u.
 
----------------------------------------------------------------------
Geometry Convergence after Step   2       (Hartree/Angstrom,Angstrom)
----------------------------------------------------------------------
current energy                               -0.26392171 Hartree
energy change                      -1.61503350     0.00026000    F
constrained gradient max           16.85939153     0.00100000    F
constrained gradient rms            3.01461684     0.00066667    F
gradient max                       16.85939153
gradient rms                        3.01461684
cart. step max                      0.06698690     0.01000000    F
cart. step rms                      0.01158057     0.00666667    F
 
 
--------
Geometry
--------
Formula: C10H11AlF3O
Atoms
  Index Symbol   x (angstrom)   y (angstrom)   z (angstrom)
      1      H     0.30805407    -1.71752902     0.34826328
      2      C    -0.86134341     0.07131851     0.95230361
      3      C     0.30558309    -0.62626648     0.35650244
      4      C     1.44210216    -0.00608807    -0.22677858
      5      O     2.52337030    -0.55156178    -0.73359007
      6      H    -0.69350993     1.15124347     0.94196673
      7      H    -2.10032274     0.10676099     2.73749713
      8      H    -0.38842323    -0.20515450     3.06777230
      9      C    -1.20825810    -0.41183579     2.37291305
     10      H    -1.40987744    -1.48783126     2.39517531
     11      C    -4.29784684    -0.66789023    -1.59627300
     12      C    -3.82432247     0.63796455    -1.42028434
     13      C    -2.71609958     0.87610500    -0.59838642
     14      C    -2.08058978    -0.19135649     0.04812105
     15      C    -2.55467281    -1.49744064    -0.12816759
     16      C    -3.66294362    -1.73546895    -0.95016601
     17      H    -4.31051527     1.45587759    -1.91508977
     18      H    -2.35374177     1.87650583    -0.46390409
     19      H    -2.06890410    -2.31558550     0.36640696
     20      H    -4.02554231    -2.73575235    -1.08484082
     21      H    -5.14669562    -0.85032042    -2.22581942
     22      H     2.06062529    -0.66689056    -0.71211830
     23     Al     1.55506942     0.86050782    -0.28322181
     24      F     1.84143364     0.50802987     1.28636509
     25      F     0.21170352     0.21346080    -1.00247133
     26      F     2.58140713     1.78847993    -1.12356593
 
Total System Charge             0.00000
 
 *** GOStep3 ***

 Energy gradients wrt nuclear displacements
 ==========================================

     Atom      Cartesian (a.u./angstrom)
                 X         Y         Z
 ----------------------------------------
     1 H     0.006368  0.006282 -0.008744
     2 C     0.056203  0.028535 -0.026536
     3 C    -0.006431  0.222691 -0.133278
     4 C     0.819840  5.818081 -0.658837
     5 O    -7.163516 -1.787572  0.140555
     6 H    -0.003905 -0.009015 -0.007524
     7 H     0.000285  0.001015  0.000693
     8 H    -0.000855  0.000657 -0.000689
     9 C    -0.012888 -0.007644 -0.010304
    10 H    -0.001568 -0.003525  0.000535
    11 C    -0.017979 -0.002352 -0.012956
    12 C    -0.013776  0.018535 -0.014066
    13 C     0.020440  0.029058  0.007671
    14 C    -0.002727 -0.012379 -0.006657
    15 C     0.020926 -0.017144  0.016476
    16 C    -0.010400 -0.025938 -0.002956
    17 H     0.008948 -0.015306  0.008925
    18 H    -0.006325 -0.018547 -0.001808
    19 H    -0.004887  0.015118 -0.006888
    20 H     0.006424  0.018545  0.002342
    21 H     0.015418  0.003372  0.011308
    22 H     6.719459  2.280513  0.094599
    23 Al   -0.765836 -5.968954  0.450029
    24 F    -0.181201 -0.191762 -0.358454
    25 F     0.524997 -0.324611  0.507550
    26 F    -0.007013 -0.057653  0.009012
 ----------------------------------------
 Mulliken charges used for AMS results%charges...

 dE(predicted):    -0.18228E+01, dE(actual):    -0.16915E+01, Trust radius:    0.800000, all in a.u.
 
----------------------------------------------------------------------
Geometry Convergence after Step   3       (Hartree/Angstrom,Angstrom)
----------------------------------------------------------------------
current energy                               -1.95538120 Hartree
energy change                      -1.69145949     0.00026000    F
constrained gradient max            7.16350913     0.00100000    F
constrained gradient rms            1.50718335     0.00066667    F
gradient max                        7.16350913
gradient rms                        1.50718335
cart. step max                      0.11947223     0.01000000    F
cart. step rms                      0.02538661     0.00666667    F
 
 
--------
Geometry
--------
Formula: C10H11AlF3O
Atoms
  Index Symbol   x (angstrom)   y (angstrom)   z (angstrom)
      1      H     0.31213395    -1.72867041     0.35433839
      2      C    -0.86520048     0.06669365     0.94723066
      3      C     0.31237606    -0.63601149     0.35611214
      4      C     1.44203211    -0.08709564    -0.21327368
      5      O     2.58055338    -0.59457440    -0.72598360
      6      H    -0.69801937     1.14803145     0.93360209
      7      H    -2.09990214     0.10457909     2.73562478
      8      H    -0.38660333    -0.20364059     3.06286780
      9      C    -1.20785485    -0.41335608     2.37036044
     10      H    -1.40740723    -1.48910486     2.39572954
     11      C    -4.31255689    -0.66669468    -1.59476169
     12      C    -3.83420001     0.63629877    -1.41999888
     13      C    -2.72422845     0.87085882    -0.60141051
     14      C    -2.08846927    -0.19628945     0.04545530
     15      C    -2.56966466    -1.50038909    -0.13079510
     16      C    -3.67978898    -1.73453576    -0.94983229
     17      H    -4.31988386     1.45818159    -1.91520276
     18      H    -2.35832083     1.87338076    -0.46877232
     19      H    -2.08617273    -2.32347743     0.36333077
     20      H    -4.04685776    -2.73652145    -1.08340593
     21      H    -5.16573939    -0.84710613    -2.22400904
     22      H     2.05725225    -0.72584028    -0.69473093
     23     Al     1.59667337     0.96739658    -0.29239480
     24      F     1.86493717     0.52782747     1.31659805
     25      F     0.19360378     0.20138973    -1.01832200
     26      F     2.61704779     1.90795216    -1.13974697
 
Total System Charge             0.00000
 
 *** GOStep4 ***

 Energy gradients wrt nuclear displacements
 ==========================================

     Atom      Cartesian (a.u./angstrom)
                 X         Y         Z
 ----------------------------------------
     1 H     0.018370  0.023078 -0.026535
     2 C     0.059927  0.027906 -0.017220
     3 C    -0.027285  0.228799 -0.119642
     4 C     0.759702  3.826624 -0.584382
     5 O    -4.456224 -1.131506  0.231938
     6 H    -0.003919 -0.004993 -0.008851
     7 H     0.000007  0.000521  0.001295
     8 H    -0.000865  0.000980 -0.000309
     9 C    -0.014140 -0.009149 -0.010010
    10 H    -0.001509 -0.003532  0.000813
    11 C    -0.013874 -0.004356 -0.009729
    12 C    -0.009604  0.015874 -0.010120
    13 C     0.015236  0.024409  0.006502
    14 C    -0.002307 -0.008280 -0.011061
    15 C     0.019380 -0.014468  0.015629
    16 C    -0.010453 -0.019898 -0.004747
    17 H     0.007223 -0.012259  0.006937
    18 H    -0.004486 -0.015059 -0.001517
    19 H    -0.003820  0.012118 -0.004753
    20 H     0.005100  0.014806  0.001717
    21 H     0.012254  0.002535  0.009076
    22 H     4.183231  1.644765  0.029119
    23 Al   -0.680019 -4.270795  0.233860
    24 F    -0.155030 -0.125828 -0.259097
    25 F     0.322879 -0.139625  0.503073
    26 F    -0.019773 -0.062666  0.028014
 ----------------------------------------
 Mulliken charges used for AMS results%charges...

 dE(predicted):    -0.12702E+01, dE(actual):    -0.14060E+01, Trust radius:    1.000000, all in a.u.
 
----------------------------------------------------------------------
Geometry Convergence after Step   4       (Hartree/Angstrom,Angstrom)
----------------------------------------------------------------------
current energy                               -3.36138567 Hartree
energy change                      -1.40600447     0.00026000    F
constrained gradient max            4.45622105     0.00100000    F
constrained gradient rms            0.98893568     0.00066667    F
gradient max                        4.45622105
gradient rms                        0.98893568
cart. step max                      0.14513757     0.01000000    F
cart. step rms                      0.03778461     0.00666667    F
 
 
--------
Geometry
--------
Formula: C10H11AlF3O
Atoms
  Index Symbol   x (angstrom)   y (angstrom)   z (angstrom)
      1      H     0.31276585    -1.74532224     0.37072452
      2      C    -0.87844658     0.06236446     0.94018750
      3      C     0.32423865    -0.64151588     0.35866510
      4      C     1.44371980    -0.15526362    -0.18666193
      5      O     2.66570848    -0.65914275    -0.71562737
      6      H    -0.71843473     1.14564007     0.92567377
      7      H    -2.10618130     0.09310894     2.73180862
      8      H    -0.38898880    -0.20098833     3.05443602
      9      C    -1.21121632    -0.41817701     2.36515563
     10      H    -1.40114692    -1.49440657     2.39188647
     11      C    -4.34228045    -0.66733467    -1.59143103
     12      C    -3.86153598     0.63162528    -1.41447386
     13      C    -2.74843020     0.86146995    -0.60078580
     14      C    -2.10711596    -0.20484740     0.04266248
     15      C    -2.59507645    -1.50667192    -0.13886769
     16      C    -3.70735941    -1.73590623    -0.95238876
     17      H    -4.34993879     1.45947373    -1.90637666
     18      H    -2.38165903     1.86820648    -0.46768998
     19      H    -2.11178822    -2.33743353     0.35019393
     20      H    -4.07719328    -2.74125549    -1.08742536
     21      H    -5.20184474    -0.84551423    -2.21978447
     22      H     2.03381822    -0.81197606    -0.66304642
     23     Al     1.68899043     1.11253415    -0.30685971
     24      F     1.91630909     0.57532931     1.36533108
     25      F     0.19678114     0.18342581    -1.06161277
     26      F     2.73204509     2.05186011    -1.17508382
 
Total System Charge             0.00000
 
 *** GOStep5 ***

 Energy gradients wrt nuclear displacements
 ==========================================

     Atom      Cartesian (a.u./angstrom)
                 X         Y         Z
 ----------------------------------------
     1 H     0.022853  0.003872 -0.019461
     2 C     0.039083  0.028630 -0.011226
     3 C     0.060684  0.259285 -0.152513
     4 C     0.369890  1.235366 -0.367163
     5 O    -1.979074 -0.470968  0.138755
     6 H    -0.002885 -0.003441 -0.008577
     7 H     0.000427  0.000630  0.000563
     8 H    -0.000376  0.000972  0.000192
     9 C    -0.014043 -0.011031 -0.009411
    10 H    -0.000990 -0.001807  0.000879
    11 C    -0.008184 -0.001825 -0.005629
    12 C    -0.006397  0.008800 -0.007159
    13 C     0.010375  0.018218  0.003209
    14 C    -0.005489 -0.008425 -0.006337
    15 C     0.012006 -0.012178  0.009391
    16 C    -0.006449 -0.012656 -0.003245
    17 H     0.004519 -0.008117  0.004342
    18 H    -0.002988 -0.010127 -0.000738
    19 H    -0.002535  0.008709 -0.002777
    20 H     0.003125  0.009639  0.001012
    21 H     0.007838  0.001710  0.005896
    22 H     1.755218  0.928251  0.094726
    23 Al   -0.392449 -1.677945  0.090165
    24 F    -0.102776 -0.126972 -0.163113
    25 F     0.230786 -0.123190  0.404542
    26 F     0.007830 -0.035401  0.003679
 ----------------------------------------
 Mulliken charges used for AMS results%charges...

 dE(predicted):    -0.11212E+01, dE(actual):    -0.10684E+01, Trust radius:    1.000000, all in a.u.
 
----------------------------------------------------------------------
Geometry Convergence after Step   5       (Hartree/Angstrom,Angstrom)
----------------------------------------------------------------------
current energy                               -4.42974361 Hartree
energy change                      -1.06835794     0.00026000    F
constrained gradient max            1.97907134     0.00100000    F
constrained gradient rms            0.41248705     0.00066667    F
gradient max                        1.97907134
gradient rms                        0.41248705
cart. step max                      0.20431983     0.01000000    F
cart. step rms                      0.05730240     0.00666667    F
 
 
--------
Geometry
--------
Formula: C10H11AlF3O
Atoms
  Index Symbol   x (angstrom)   y (angstrom)   z (angstrom)
      1      H     0.30024095    -1.76697214     0.42369384
      2      C    -0.91285900     0.03730770     0.91936546
      3      C     0.32901885    -0.66175090     0.37028743
      4      C     1.48583055    -0.16846873    -0.14650594
      5      O     2.87002830    -0.69069470    -0.67036985
      6      H    -0.76420918     1.12416714     0.90728218
      7      H    -2.10471477     0.06539804     2.73617491
      8      H    -0.37547827    -0.19723058     3.02597519
      9      C    -1.20828132    -0.43312717     2.35600081
     10      H    -1.37829386    -1.51118506     2.39362248
     11      C    -4.41370169    -0.66113337    -1.58523624
     12      C    -3.92242944     0.63003303    -1.39965718
     13      C    -2.79929632     0.84252698    -0.59857227
     14      C    -2.14953386    -0.22631054     0.03079743
     15      C    -2.65459912    -1.52018077    -0.16134125
     16      C    -3.77554370    -1.73512357    -0.96261204
     17      H    -4.41266519     1.47209116    -1.87868186
     18      H    -2.42681673     1.85343797    -0.46206979
     19      H    -2.17415663    -2.36786857     0.31321384
     20      H    -4.15279650    -2.74356696    -1.10173837
     21      H    -5.28610005    -0.83002154    -2.20848108
     22      H     2.13350615    -0.92638146    -0.61200149
     23     Al     1.81318604     1.20648986    -0.33531562
     24      F     1.98215994     0.76925988     1.43102856
     25      F     0.23578848     0.17951318    -1.18407201
     26      F     2.88745597     2.13907346    -1.19217764
 
Total System Charge             0.00000
 
 *** GOStep6 ***

 Energy gradients wrt nuclear displacements
 ==========================================

     Atom      Cartesian (a.u./angstrom)
                 X         Y         Z
 ----------------------------------------
     1 H     0.015583 -0.005216 -0.011148
     2 C     0.017021  0.013189  0.001558
     3 C     0.032009  0.195044 -0.103581
     4 C     0.245774  0.605000 -0.229442
     5 O    -0.709746 -0.245165  0.020437
     6 H    -0.004463  0.001615 -0.006386
     7 H     0.000401  0.000233  0.001066
     8 H    -0.000093  0.000374  0.000830
     9 C    -0.011561 -0.008126 -0.007320
    10 H     0.000245  0.000327  0.000017
    11 C    -0.001545  0.000182 -0.001088
    12 C    -0.001343  0.001397 -0.002460
    13 C     0.001945  0.004463 -0.000267
    14 C    -0.008479 -0.001414 -0.002345
    15 C     0.002571 -0.005207  0.002265
    16 C    -0.001171 -0.002276 -0.000990
    17 H     0.000727 -0.002277  0.000691
    18 H    -0.000734 -0.002733  0.000148
    19 H    -0.000511  0.003451 -0.000375
    20 H     0.000495  0.002599  0.000076
    21 H     0.001831  0.000538  0.001505
    22 H     0.614491  0.540495  0.092143
    23 Al   -0.286562 -0.878327  0.055601
    24 F    -0.053526 -0.110277 -0.069039
    25 F     0.125391 -0.084519  0.260597
    26 F     0.021248 -0.023373 -0.002494
 ----------------------------------------
 Mulliken charges used for AMS results%charges...
 Rebuilding optimization coordinates

 dE(predicted):    -0.36140E+00, dE(actual):    -0.46012E+00, Trust radius:    1.000000, all in a.u.
 
----------------------------------------------------------------------
Geometry Convergence after Step   6       (Hartree/Angstrom,Angstrom)
----------------------------------------------------------------------
current energy                               -4.88986514 Hartree
energy change                      -0.46012152     0.00026000    F
constrained gradient max            0.87829366     0.00100000    F
constrained gradient rms            0.18745869     0.00066667    F
gradient max                        0.87829366
gradient rms                        0.18745869
cart. step max                      0.21123944     0.01000000    F
cart. step rms                      0.04230291     0.00666667    F
 
 
--------
Geometry
--------
Formula: C10H11AlF3O
Atoms
  Index Symbol   x (angstrom)   y (angstrom)   z (angstrom)
      1      H     0.25946987    -1.79364887     0.45775276
      2      C    -0.93709037     0.01139917     0.91402285
      3      C     0.30789846    -0.69372195     0.38097328
      4      C     1.46405226    -0.19177475    -0.11393273
      5      O     2.94646653    -0.72130413    -0.62610716
      6      H    -0.77927799     1.09597600     0.90614302
      7      H    -2.08288011     0.05209186     2.75704649
      8      H    -0.34475028    -0.20370203     3.00682059
      9      C    -1.19405868    -0.44826885     2.36201989
     10      H    -1.36108604    -1.52646262     2.41373909
     11      C    -4.43921654    -0.65522864    -1.58787075
     12      C    -3.93704240     0.63056611    -1.39431949
     13      C    -2.81025335     0.82837203    -0.59646529
     14      C    -2.16702825    -0.24726870     0.02578214
     15      C    -2.68306955    -1.53504878    -0.17490040
     16      C    -3.80667922    -1.73722000    -0.97396641
     17      H    -4.42109330     1.48317464    -1.86629349
     18      H    -2.43021891     1.83880984    -0.45538824
     19      H    -2.21014532    -2.39481012     0.29215484
     20      H    -4.19059567    -2.74516160    -1.11793591
     21      H    -5.31604818    -0.81425941    -2.21158647
     22      H     2.14474663    -1.06453243    -0.59045363
     23     Al     1.89007288     1.28720067    -0.35782642
     24      F     2.01939467     0.98049931     1.44834925
     25      F     0.22975010     0.21899687    -1.29272716
     26      F     2.97442237     2.22460870    -1.19642122
 
Total System Charge             0.00000
 
 *** GOStep7 ***

 Energy gradients wrt nuclear displacements
 ==========================================

     Atom      Cartesian (a.u./angstrom)
                 X         Y         Z
 ----------------------------------------
     1 H     0.010424 -0.003665 -0.007075
     2 C     0.004754  0.003964  0.002047
     3 C     0.025552  0.159849 -0.074920
     4 C     0.123247  0.227634 -0.106340
     5 O    -0.215166 -0.127559 -0.024921
     6 H    -0.004392  0.002898 -0.004035
     7 H     0.000481 -0.000039  0.000501
     8 H     0.000039 -0.000277  0.000811
     9 C    -0.006365 -0.004764 -0.005058
    10 H     0.000704  0.000573 -0.000373
    11 C     0.000627  0.000451  0.000475
    12 C     0.000843 -0.000690 -0.000461
    13 C     0.000501 -0.001597 -0.000751
    14 C    -0.006781  0.001543 -0.002533
    15 C    -0.000677 -0.000905 -0.000699
    16 C     0.001107  0.000970  0.000229
    17 H    -0.000413  0.000345 -0.000470
    18 H     0.000179  0.000967  0.000507
    19 H     0.000382  0.000293  0.000541
    20 H    -0.000397 -0.000482 -0.000162
    21 H    -0.000534  0.000001 -0.000201
    22 H     0.203184  0.319909  0.080935
    23 Al   -0.186326 -0.404029 -0.006337
    24 F    -0.030953 -0.096903 -0.017953
    25 F     0.056959 -0.063293  0.166914
    26 F     0.023020 -0.015193 -0.000671
 ----------------------------------------
 Mulliken charges used for AMS results%charges...

 dE(predicted):    -0.19734E+00, dE(actual):    -0.22703E+00, Trust radius:    1.000000, all in a.u.
 
----------------------------------------------------------------------
Geometry Convergence after Step   7       (Hartree/Angstrom,Angstrom)
----------------------------------------------------------------------
current energy                               -5.11689761 Hartree
energy change                      -0.22703248     0.00026000    F
constrained gradient max            0.40401174     0.00100000    F
constrained gradient rms            0.08536904     0.00066667    F
gradient max                        0.40401174
gradient rms                        0.08536904
cart. step max                      0.21174079     0.01000000    F
cart. step rms                      0.04380376     0.00666667    F
 
 
--------
Geometry
--------
Formula: C10H11AlF3O
Atoms
  Index Symbol   x (angstrom)   y (angstrom)   z (angstrom)
      1      H     0.23661850    -1.81969588     0.43822292
      2      C    -0.94453435    -0.01247928     0.87957153
      3      C     0.29933078    -0.72253681     0.35567821
      4      C     1.45169349    -0.20056163    -0.07674520
      5      O     2.98818311    -0.75544586    -0.50075950
      6      H    -0.76679257     1.06787128     0.87853259
      7      H    -2.04871659     0.05293022     2.74529275
      8      H    -0.30599587    -0.20934889     2.95946856
      9      C    -1.17110127    -0.45741827     2.33800072
     10      H    -1.34438240    -1.53401383     2.40612378
     11      C    -4.48696990    -0.65284513    -1.56480032
     12      C    -3.97599335     0.62960355    -1.37166577
     13      C    -2.82821058     0.81664130    -0.60216500
     14      C    -2.17600758    -0.26548176    -0.00102927
     15      C    -2.70153487    -1.54945153    -0.20044593
     16      C    -3.84365870    -1.74179179    -0.97505085
     17      H    -4.46714067     1.48891800    -1.82502416
     18      H    -2.44080195     1.82518485    -0.46362336
     19      H    -2.22366676    -2.41651125     0.24977633
     20      H    -4.23330694    -2.74826174    -1.11830635
     21      H    -5.37824561    -0.80418436    -2.17069055
     22      H     2.15850553    -1.15637075    -0.52258602
     23     Al     1.96192181     1.32201823    -0.35060829
     24      F     2.00266580     1.19224011     1.44324616
     25      F     0.29247751     0.27241151    -1.38771987
     26      F     3.07140303     2.25786205    -1.15408365
 
Total System Charge             0.00000
 
 *** GOStep8 ***

 Energy gradients wrt nuclear displacements
 ==========================================

     Atom      Cartesian (a.u./angstrom)
                 X         Y         Z
 ----------------------------------------
     1 H     0.006549 -0.002093 -0.005429
     2 C    -0.001571 -0.001686  0.002942
     3 C     0.043194  0.146605 -0.067384
     4 C     0.057113  0.106778 -0.050713
     5 O    -0.058985 -0.074577 -0.032847
     6 H    -0.002181  0.002812 -0.000981
     7 H     0.000392 -0.000343  0.000310
     8 H     0.000146 -0.000625  0.000705
     9 C    -0.002662 -0.001474 -0.003896
    10 H     0.000739  0.000631 -0.000573
    11 C     0.001164  0.000462  0.000668
    12 C     0.000706 -0.000941  0.000885
    13 C    -0.000235 -0.003566 -0.000898
    14 C    -0.005136  0.001946 -0.003832
    15 C    -0.001612  0.000847 -0.001130
    16 C     0.001324  0.001761  0.000797
    17 H    -0.000654  0.001030 -0.000699
    18 H     0.000373  0.001893  0.000371
    19 H     0.000572 -0.000627  0.000531
    20 H    -0.000580 -0.001261 -0.000203
    21 H    -0.000987 -0.000157 -0.000788
    22 H     0.076110  0.223228  0.071715
    23 Al   -0.137988 -0.247772 -0.033036
    24 F    -0.021842 -0.086990 -0.000963
    25 F     0.024723 -0.055687  0.119910
    26 F     0.021328 -0.010190  0.004540
 ----------------------------------------
 Mulliken charges used for AMS results%charges...

 dE(predicted):    -0.72822E-01, dE(actual):    -0.86684E-01, Trust radius:    1.000000, all in a.u.
 
----------------------------------------------------------------------
Geometry Convergence after Step   8       (Hartree/Angstrom,Angstrom)
----------------------------------------------------------------------
current energy                               -5.20358177 Hartree
energy change                      -0.08668415     0.00026000    F
constrained gradient max            0.24776824     0.00100000    F
constrained gradient rms            0.05364571     0.00066667    F
gradient max                        0.24776824
gradient rms                        0.05364571
cart. step max                      0.21253868     0.01000000    F
cart. step rms                      0.03646593     0.00666667    F
 
 
--------
Geometry
--------
Formula: C10H11AlF3O
Atoms
  Index Symbol   x (angstrom)   y (angstrom)   z (angstrom)
      1      H     0.20296025    -1.84714759     0.44087241
      2      C    -0.95338383    -0.03535896     0.88619803
      3      C     0.27921335    -0.75229214     0.35759537
      4      C     1.42060012    -0.20507203    -0.06161138
      5      O     2.96309194    -0.79436132    -0.46489636
      6      H    -0.76040905     1.04023132     0.89190782
      7      H    -2.04798639     0.04292904     2.75586343
      8      H    -0.30604439    -0.23382526     2.96201597
      9      C    -1.17683862    -0.47846406     2.34794886
     10      H    -1.36157278    -1.55334474     2.42278422
     11      C    -4.48488581    -0.65209138    -1.56702793
     12      C    -3.96797259     0.62754969    -1.36886458
     13      C    -2.82263961     0.80784543    -0.59413236
     14      C    -2.17866176    -0.28021984     0.00593306
     15      C    -2.70880741    -1.56145812    -0.19920929
     16      C    -3.84910847    -1.74628651    -0.97876686
     17      H    -4.45270201     1.49055231    -1.82135516
     18      H    -2.42974841     1.81313040    -0.45234215
     19      H    -2.23728587    -2.43303142     0.24924203
     20      H    -4.24243795    -2.75035337    -1.12641529
     21      H    -5.37476539    -0.79720590    -2.17605958
     22      H     2.10794891    -1.26684758    -0.52301056
     23     Al     2.01530600     1.37080698    -0.35565128
     24      F     2.06131166     1.40477879     1.38594942
     25      F     0.30696836     0.36200344    -1.45506105
     26      F     3.12358938     2.30681517    -1.15329733
 
Total System Charge             0.00000
 
 *** GOStep9 ***

 Energy gradients wrt nuclear displacements
 ==========================================

     Atom      Cartesian (a.u./angstrom)
                 X         Y         Z
 ----------------------------------------
     1 H     0.000695 -0.001740 -0.007100
     2 C    -0.003022 -0.002215  0.003292
     3 C     0.039847  0.124565 -0.055018
     4 C     0.006446  0.030267 -0.011190
     5 O     0.068780 -0.021873 -0.026638
     6 H    -0.001246  0.001109  0.000326
     7 H    -0.000027 -0.000464  0.000299
     8 H    -0.000117 -0.000451 -0.000313
     9 C    -0.001956 -0.000469 -0.002080
    10 H     0.000187 -0.000043 -0.000210
    11 C     0.000810  0.000392  0.000557
    12 C     0.000497 -0.000828  0.000296
    13 C     0.000676 -0.002207  0.000138
    14 C    -0.000729  0.001161 -0.001834
    15 C    -0.000998  0.001125 -0.000436
    16 C     0.000970  0.001136  0.000539
    17 H    -0.000332  0.000851 -0.000459
    18 H     0.000182  0.001564  0.000274
    19 H     0.000540 -0.000816  0.000317
    20 H    -0.000352 -0.001003 -0.000133
    21 H    -0.000787 -0.000143 -0.000563
    22 H    -0.023098  0.128545  0.054538
    23 Al   -0.086691 -0.128090 -0.042008
    24 F    -0.014979 -0.072556  0.000812
    25 F    -0.002707 -0.051841  0.075344
    26 F     0.017411 -0.005975  0.011251
 ----------------------------------------
 Mulliken charges used for AMS results%charges...

 dE(predicted):    -0.83940E-01, dE(actual):    -0.70217E-01, Trust radius:    1.000000, all in a.u.
 
----------------------------------------------------------------------
Geometry Convergence after Step   9       (Hartree/Angstrom,Angstrom)
----------------------------------------------------------------------
current energy                               -5.27379902 Hartree
energy change                      -0.07021726     0.00026000    F
constrained gradient max            0.12854126     0.00100000    F
constrained gradient rms            0.03345361     0.00066667    F
gradient max                        0.12854126
gradient rms                        0.03345361
cart. step max                      0.21289917     0.01000000    F
cart. step rms                      0.04057712     0.00666667    F
 
 
--------
Geometry
--------
Formula: C10H11AlF3O
Atoms
  Index Symbol   x (angstrom)   y (angstrom)   z (angstrom)
      1      H     0.18440358    -1.87495399     0.44592618
      2      C    -0.95932829    -0.05990425     0.88677072
      3      C     0.26704001    -0.78222310     0.36367413
      4      C     1.39822298    -0.20349284    -0.04200955
      5      O     2.90667522    -0.83961116    -0.42216186
      6      H    -0.75273346     1.01153755     0.89796049
      7      H    -2.04699853     0.03167395     2.75783611
      8      H    -0.30688382    -0.25865599     2.96254641
      9      C    -1.18106692    -0.50017483     2.35188178
     10      H    -1.37531549    -1.57316234     2.43260616
     11      C    -4.49188198    -0.65603156    -1.56655537
     12      C    -3.96866727     0.62108517    -1.36762279
     13      C    -2.82181879     0.79595910    -0.59394769
     14      C    -2.18275854    -0.29573365     0.00674375
     15      C    -2.72016466    -1.57431674    -0.19904609
     16      C    -3.86170408    -1.75350698    -0.97884711
     17      H    -4.44907556     1.48620401    -1.81942740
     18      H    -2.42307866     1.79790654    -0.45282533
     19      H    -2.25502009    -2.44865655     0.24984654
     20      H    -4.25994853    -2.75506264    -1.12623900
     21      H    -5.38212564    -0.79636171    -2.17532999
     22      H     2.03197057    -1.38303992    -0.53302733
     23     Al     2.08096013     1.42900788    -0.34165295
     24      F     2.14705069     1.61767795     1.32055468
     25      F     0.35603512     0.48666695    -1.50980093
     26      F     3.19195163     2.35645150    -1.13924412
 
Total System Charge             0.00000
 
 *** GOStep10 ***

 Energy gradients wrt nuclear displacements
 ==========================================

     Atom      Cartesian (a.u./angstrom)
                 X         Y         Z
 ----------------------------------------
     1 H    -0.005184 -0.001084 -0.009116
     2 C    -0.003297 -0.000731  0.003566
     3 C     0.033964  0.095503 -0.041425
     4 C    -0.035249 -0.008353  0.006275
     5 O     0.156585  0.021547 -0.015063
     6 H    -0.000236 -0.000597  0.001711
     7 H    -0.000126 -0.000231 -0.000262
     8 H    -0.000123 -0.000238 -0.000442
     9 C    -0.000136 -0.000981 -0.000856
    10 H    -0.000103 -0.000273  0.000023
    11 C     0.000410  0.000287  0.000174
    12 C    -0.000188 -0.000346  0.000170
    13 C     0.000505 -0.000531 -0.000215
    14 C     0.002948  0.000771 -0.000386
    15 C    -0.000559  0.000702  0.000082
    16 C     0.000257  0.000396  0.000303
    17 H    -0.000054  0.000339 -0.000181
    18 H    -0.000185  0.000561  0.000194
    19 H     0.000242 -0.000432 -0.000034
    20 H    -0.000121 -0.000364 -0.000033
    21 H    -0.000277 -0.000081 -0.000268
    22 H    -0.091181  0.052099  0.037826
    23 Al   -0.037617 -0.048283 -0.014458
    24 F    -0.008883 -0.057528 -0.025617
    25 F    -0.023837 -0.050312  0.039704
    26 F     0.012443 -0.001842  0.018328
 ----------------------------------------
 Mulliken charges used for AMS results%charges...

 dE(predicted):    -0.56833E-01, dE(actual):    -0.50212E-01, Trust radius:    1.000000, all in a.u.
 
----------------------------------------------------------------------
Geometry Convergence after Step  10       (Hartree/Angstrom,Angstrom)
----------------------------------------------------------------------
current energy                               -5.32401104 Hartree
energy change                      -0.05021202     0.00026000    F
constrained gradient max            0.15658066     0.00100000    F
constrained gradient rms            0.02871937     0.00066667    F
gradient max                        0.15658066
gradient rms                        0.02871937
cart. step max                      0.21157927     0.01000000    F
cart. step rms                      0.05197081     0.00666667    F
 
 
--------
Geometry
--------
Formula: C10H11AlF3O
Atoms
  Index Symbol   x (angstrom)   y (angstrom)   z (angstrom)
      1      H     0.17537707    -1.90182737     0.44514915
      2      C    -0.96341131    -0.08591767     0.89082198
      3      C     0.25817887    -0.81061941     0.37172041
      4      C     1.37494676    -0.19334729    -0.02121744
      5      O     2.77675761    -0.90441290    -0.39492256
      6      H    -0.74602258     0.98275051     0.90289053
      7      H    -2.05141936     0.02577740     2.76167944
      8      H    -0.31421466    -0.27699599     2.97082375
      9      C    -1.18956803    -0.51687305     2.36064975
     10      H    -1.39241264    -1.58756983     2.44957385
     11      C    -4.49333528    -0.67126433    -1.56930026
     12      C    -3.96487226     0.60431691    -1.37245973
     13      C    -2.82067382     0.77741445    -0.59475283
     14      C    -2.18810202    -0.31519335     0.01205977
     15      C    -2.73058831    -1.59235170    -0.19240743
     16      C    -3.86998250    -1.76958030    -0.97644544
     17      H    -4.43946060     1.46952093    -1.82915425
     18      H    -2.41517732     1.77637696    -0.45838946
     19      H    -2.27200199    -2.46737043     0.26111061
     20      H    -4.27142031    -2.76955968    -1.12235644
     21      H    -5.38156926    -0.80936097    -2.18075574
     22      H     1.88062209    -1.50513465    -0.59294122
     23     Al     2.16693979     1.50204067    -0.31037268
     24      F     2.27555136     1.82124990     1.27022979
     25      F     0.43859884     0.69824622    -1.53926801
     26      F     3.28299948     2.39896729    -1.13335608
 
Total System Charge             0.00000
 
 *** GOStep11 ***

 Energy gradients wrt nuclear displacements
 ==========================================

     Atom      Cartesian (a.u./angstrom)
                 X         Y         Z
 ----------------------------------------
     1 H    -0.010708  0.000612 -0.008856
     2 C    -0.001188  0.002131  0.001396
     3 C     0.039246  0.054928 -0.029648
     4 C    -0.084194 -0.023937  0.009668
     5 O     0.217100  0.055228  0.004906
     6 H     0.000601 -0.001244  0.002995
     7 H    -0.000220  0.000216 -0.000558
     8 H    -0.000095  0.000043 -0.000250
     9 C     0.001231 -0.002059  0.000260
    10 H    -0.000203 -0.000083  0.000080
    11 C    -0.000092 -0.000013 -0.000030
    12 C    -0.000141  0.000190 -0.000069
    13 C    -0.000216  0.000649 -0.000183
    14 C     0.004135  0.000777  0.000673
    15 C    -0.000179  0.000160  0.000566
    16 C    -0.000218 -0.000203 -0.000072
    17 H     0.000186 -0.000126  0.000062
    18 H    -0.000329 -0.000265  0.000090
    19 H    -0.000049 -0.000004 -0.000380
    20 H     0.000131  0.000200  0.000024
    21 H     0.000156 -0.000017  0.000050
    22 H    -0.141606 -0.006229  0.017927
    23 Al    0.014782  0.009549  0.041833
    24 F    -0.005407 -0.047523 -0.070792
    25 F    -0.040036 -0.046004  0.007619
    26 F     0.007314  0.003026  0.022689
 ----------------------------------------
 Mulliken charges used for AMS results%charges...
 Rebuilding optimization coordinates

 dE(predicted):    -0.35556E-01, dE(actual):    -0.38615E-01, Trust radius:    1.000000, all in a.u.
 
----------------------------------------------------------------------
Geometry Convergence after Step  11       (Hartree/Angstrom,Angstrom)
----------------------------------------------------------------------
current energy                               -5.36262574 Hartree
energy change                      -0.03861470     0.00026000    F
constrained gradient max            0.21709583     0.00100000    F
constrained gradient rms            0.03540289     0.00066667    F
gradient max                        0.21709583
gradient rms                        0.03540289
cart. step max                      0.21707239     0.01000000    F
cart. step rms                      0.04700630     0.00666667    F
 
 
--------
Geometry
--------
Formula: C10H11AlF3O
Atoms
  Index Symbol   x (angstrom)   y (angstrom)   z (angstrom)
      1      H     0.16612003    -1.91094145     0.41886450
      2      C    -0.96781555    -0.09616592     0.88724176
      3      C     0.25149088    -0.81973730     0.36730804
      4      C     1.37245011    -0.18216635    -0.01180949
      5      O     2.64668212    -0.95907041    -0.41278384
      6      H    -0.74782749     0.97193935     0.89004666
      7      H    -2.05624453     0.03940386     2.75897658
      8      H    -0.31979003    -0.26438324     2.97091405
      9      C    -1.19576700    -0.50966224     2.36343272
     10      H    -1.40036432    -1.57885946     2.46545653
     11      C    -4.49948685    -0.70055354    -1.56763689
     12      C    -3.96883398     0.57626615    -1.38405688
     13      C    -2.82472422     0.75625218    -0.60784110
     14      C    -2.19543141    -0.33043159     0.01299058
     15      C    -2.73960321    -1.60910839    -0.17901381
     16      C    -3.87867941    -1.79332790    -0.96228094
     17      H    -4.44138703     1.43694947    -1.85096687
     18      H    -2.41473647     1.75479523    -0.48528659
     19      H    -2.28489264    -2.47956210     0.28690382
     20      H    -4.28190669    -2.79400020    -1.09703314
     21      H    -5.38737314    -0.84355810    -2.17821889
     22      H     1.73221032    -1.55717635    -0.70843274
     23     Al     2.25548265     1.54863758    -0.25671799
     24      F     2.40141508     1.89412287     1.31028106
     25      F     0.52698137     0.91531861    -1.51565386
     26      F     3.37777103     2.41430158    -1.10607380
 
Total System Charge             0.00000
 
 *** GOStep12 ***

 Energy gradients wrt nuclear displacements
 ==========================================

     Atom      Cartesian (a.u./angstrom)
                 X         Y         Z
 ----------------------------------------
     1 H    -0.013689  0.001987 -0.006147
     2 C    -0.001195  0.003261 -0.002142
     3 C     0.044172  0.019782 -0.021671
     4 C    -0.103197 -0.015287  0.003272
     5 O     0.233507  0.063328  0.027065
     6 H     0.001069 -0.001244  0.003471
     7 H    -0.000223  0.000420 -0.000530
     8 H    -0.000052  0.000142 -0.000012
     9 C     0.001630 -0.002133  0.000829
    10 H    -0.000208  0.000114  0.000022
    11 C    -0.000195 -0.000216 -0.000199
    12 C    -0.000159  0.000397  0.000030
    13 C    -0.000630  0.000546 -0.000051
    14 C     0.003122  0.001377  0.001599
    15 C     0.000396  0.000136  0.000415
    16 C    -0.000455 -0.000290 -0.000300
    17 H     0.000223 -0.000300  0.000132
    18 H    -0.000329 -0.000539  0.000035
    19 H    -0.000245  0.000145 -0.000363
    20 H     0.000194  0.000380  0.000063
    21 H     0.000304  0.000015  0.000165
    22 H    -0.162125 -0.024457  0.000523
    23 Al    0.046197  0.024934  0.054978
    24 F    -0.005000 -0.038510 -0.071662
    25 F    -0.047894 -0.039658 -0.010202
    26 F     0.004784  0.005671  0.020680
 ----------------------------------------
 Mulliken charges used for AMS results%charges...

 dE(predicted):    -0.28211E-01, dE(actual):    -0.23540E-01, Trust radius:    1.000000, all in a.u.
 
----------------------------------------------------------------------
Geometry Convergence after Step  12       (Hartree/Angstrom,Angstrom)
----------------------------------------------------------------------
current energy                               -5.38616586 Hartree
energy change                      -0.02354012     0.00026000    F
constrained gradient max            0.23350040     0.00100000    F
constrained gradient rms            0.03873291     0.00066667    F
gradient max                        0.23350040
gradient rms                        0.03873291
cart. step max                      0.21429915     0.01000000    F
cart. step rms                      0.04852926     0.00666667    F
 
 
--------
Geometry
--------
Formula: C10H11AlF3O
Atoms
  Index Symbol   x (angstrom)   y (angstrom)   z (angstrom)
      1      H     0.15319724    -1.91387158     0.38226150
      2      C    -0.97418659    -0.10152296     0.88437982
      3      C     0.24114462    -0.82252043     0.35776573
      4      C     1.37555871    -0.17424815    -0.00794989
      5      O     2.51294122    -0.99945564    -0.45043123
      6      H    -0.75469998     0.96665055     0.87538431
      7      H    -2.06334690     0.05486955     2.75708226
      8      H    -0.32659688    -0.24516945     2.97072536
      9      C    -1.20286915    -0.49783034     2.36645670
     10      H    -1.40615363    -1.56602640     2.48143583
     11      C    -4.50598630    -0.73446877    -1.56485842
     12      C    -3.97140224     0.54364847    -1.40162173
     13      C    -2.82780722     0.73339561    -0.62692989
     14      C    -2.20374190    -0.34467993     0.01400303
     15      C    -2.75062637    -1.62519126    -0.15933111
     16      C    -3.88923832    -1.81914010    -0.94114922
     17      H    -4.44068938     1.39773174    -1.88354520
     18      H    -2.41250278     1.73158803    -0.52282805
     19      H    -2.29998550    -2.48901106     0.32263562
     20      H    -4.29503222    -2.82068741    -1.06028200
     21      H    -5.39330116    -0.88462382    -2.17442444
     22      H     1.58648571    -1.57051008    -0.84586102
     23     Al     2.34536613     1.58235749    -0.19704502
     24      F     2.53474811     1.92687350     1.37230666
     25      F     0.62692596     1.12961776    -1.46474445
     26      F     3.46753842     2.42150702    -1.07482570
 
Total System Charge             0.00000
 
 *** GOStep13 ***

 Energy gradients wrt nuclear displacements
 ==========================================

     Atom      Cartesian (a.u./angstrom)
                 X         Y         Z
 ----------------------------------------
     1 H    -0.015343  0.002762 -0.002318
     2 C    -0.001694  0.003833 -0.005775
     3 C     0.049633 -0.012095 -0.018438
     4 C    -0.102491 -0.004633 -0.007290
     5 O     0.223304  0.065546  0.055585
     6 H     0.001282 -0.001225  0.003539
     7 H    -0.000217  0.000495 -0.000432
     8 H    -0.000029  0.000179  0.000172
     9 C     0.001679 -0.001923  0.001297
    10 H    -0.000247  0.000217 -0.000019
    11 C    -0.000315 -0.000358 -0.000220
    12 C    -0.000099  0.000463 -0.000015
    13 C    -0.000963  0.000325  0.000355
    14 C     0.002112  0.002019  0.002147
    15 C     0.000862  0.000265  0.000293
    16 C    -0.000664 -0.000314 -0.000481
    17 H     0.000216 -0.000390  0.000163
    18 H    -0.000348 -0.000734 -0.000019
    19 H    -0.000341  0.000189 -0.000361
    20 H     0.000245  0.000461  0.000033
    21 H     0.000383  0.000037  0.000216
    22 H    -0.171582 -0.028579 -0.018236
    23 Al    0.070111  0.027538  0.056041
    24 F    -0.004463 -0.029311 -0.060747
    25 F    -0.053123 -0.032138 -0.022982
    26 F     0.002091  0.007370  0.017493
 ----------------------------------------
 Mulliken charges used for AMS results%charges...

 dE(predicted):    -0.15401E-01, dE(actual):    -0.18624E-01, Trust radius:    1.000000, all in a.u.
 
----------------------------------------------------------------------
Geometry Convergence after Step  13       (Hartree/Angstrom,Angstrom)
----------------------------------------------------------------------
current energy                               -5.40478965 Hartree
energy change                      -0.01862379     0.00026000    F
constrained gradient max            0.22329603     0.00100000    F
constrained gradient rms            0.03919744     0.00066667    F
gradient max                        0.22329603
gradient rms                        0.03919744
cart. step max                      0.22190804     0.01000000    F
cart. step rms                      0.05397663     0.00666667    F
 
 
--------
Geometry
--------
Formula: C10H11AlF3O
Atoms
  Index Symbol   x (angstrom)   y (angstrom)   z (angstrom)
      1      H     0.13552273    -1.90867104     0.33326169
      2      C    -0.98495431    -0.10117245     0.88942672
      3      C     0.22090197    -0.81661924     0.34191562
      4      C     1.38997333    -0.17729758    -0.01785058
      5      O     2.37216309    -1.02706122    -0.52287740
      6      H    -0.77041808     0.96805116     0.86351297
      7      H    -2.07517676     0.07226342     2.76377070
      8      H    -0.33669010    -0.21794366     2.97654635
      9      C    -1.21313831    -0.48034614     2.37663568
     10      H    -1.41094375    -1.54828687     2.50442576
     11      C    -4.50786409    -0.77387529    -1.56360683
     12      C    -3.96638666     0.50484925    -1.42853390
     13      C    -2.82599533     0.70715371    -0.65213291
     14      C    -2.21361844    -0.35908926     0.01946820
     15      C    -2.76552657    -1.64115530    -0.12781950
     16      C    -3.90106080    -1.84727842    -0.91088182
     17      H    -4.42799471     1.34959108    -1.93385639
     18      H    -2.40336283     1.70444770    -0.57121843
     19      H    -2.32201759    -2.49540542     0.37746059
     20      H    -4.31206581    -2.84908041    -1.00865387
     21      H    -5.39259837    -0.93332984    -2.17461964
     22      H     1.44849019    -1.53655218    -1.02631814
     23     Al     2.42985195     1.60144944    -0.13376496
     24      F     2.66173463     1.91668822     1.46424538
     25      F     0.75413186     1.35152580    -1.38084394
     26      F     3.54278238     2.41642691    -1.04908188
 
Total System Charge             0.00000
 
 *** GOStep14 ***

 Energy gradients wrt nuclear displacements
 ==========================================

     Atom      Cartesian (a.u./angstrom)
                 X         Y         Z
 ----------------------------------------
     1 H    -0.014337  0.001803  0.001648
     2 C    -0.003461  0.003182 -0.006677
     3 C     0.042565 -0.039093 -0.017601
     4 C    -0.065251 -0.001725 -0.031545
     5 O     0.182493  0.071700  0.096582
     6 H     0.001313 -0.001168  0.002668
     7 H    -0.000179  0.000299 -0.000006
     8 H    -0.000022  0.000132  0.000263
     9 C     0.000656 -0.000947  0.001921
    10 H    -0.000337  0.000160  0.000003
    11 C    -0.000367 -0.000397 -0.000217
    12 C    -0.000044  0.000403  0.000033
    13 C    -0.000935  0.000281  0.000953
    14 C     0.001372  0.001852  0.002093
    15 C     0.001001  0.000284  0.000009
    16 C    -0.000694 -0.000410 -0.000433
    17 H     0.000189 -0.000343  0.000153
    18 H    -0.000283 -0.000704 -0.000055
    19 H    -0.000308  0.000069 -0.000351
    20 H     0.000235  0.000379 -0.000007
    21 H     0.000361  0.000045  0.000184
    22 H    -0.170498 -0.020707 -0.037704
    23 Al    0.085810  0.018695  0.038288
    24 F    -0.001481 -0.018046 -0.028099
    25 F    -0.055925 -0.024254 -0.033267
    26 F    -0.001873  0.008509  0.011164
 ----------------------------------------
 Mulliken charges used for AMS results%charges...

 dE(predicted):    -0.27486E-01, dE(actual):    -0.19511E-01, Trust radius:    1.000000, all in a.u.
 Residual max backtransformation error   0.9078E-04
 
----------------------------------------------------------------------
Geometry Convergence after Step  14       (Hartree/Angstrom,Angstrom)
----------------------------------------------------------------------
current energy                               -5.42430106 Hartree
energy change                      -0.01951141     0.00026000    F
constrained gradient max            0.18248635     0.00100000    F
constrained gradient rms            0.03637881     0.00066667    F
gradient max                        0.18248635
gradient rms                        0.03637881
cart. step max                      0.22290114     0.01000000    F
cart. step rms                      0.06119557     0.00666667    F
 
 
--------
Geometry
--------
Formula: C10H11AlF3O
Atoms
  Index Symbol   x (angstrom)   y (angstrom)   z (angstrom)
      1      H     0.11583685    -1.89667279     0.26477298
      2      C    -0.99880632    -0.09905137     0.89982756
      3      C     0.19055807    -0.80455838     0.31721191
      4      C     1.40502011    -0.19585637    -0.04197291
      5      O     2.23876012    -1.03503557    -0.63197973
      6      H    -0.79328983     0.97208969     0.85427748
      7      H    -2.08018721     0.08353680     2.78049448
      8      H    -0.33726542    -0.18936272     2.98147009
      9      C    -1.21632908    -0.46426670     2.39114523
     10      H    -1.40234513    -1.53302979     2.53066513
     11      C    -4.50725570    -0.81545214    -1.56428851
     12      C    -3.94712316     0.45930746    -1.47376961
     13      C    -2.81285630     0.67505493    -0.69173822
     14      C    -2.22704900    -0.37376387     0.02983965
     15      C    -2.79455809    -1.65345721    -0.07637077
     16      C    -3.92460122    -1.87228950    -0.86349984
     17      H    -4.38998049     1.29033191    -2.01739099
     18      H    -2.37372029     1.66769722    -0.64578041
     19      H    -2.36896601    -2.49312226     0.46747345
     20      H    -4.35070313    -2.87066781    -0.92707471
     21      H    -5.38781438    -0.98505367    -2.17877022
     22      H     1.33891355    -1.44729085    -1.24048754
     23     Al     2.49048329     1.60715877    -0.06256683
     24      F     2.76341097     1.87114229     1.57148473
     25      F     0.90871962     1.57442694    -1.24888589
     26      F     3.58688779     2.40746733    -1.01547702
 
Total System Charge             0.00000
 
 *** GOStep15 ***

 Energy gradients wrt nuclear displacements
 ==========================================

     Atom      Cartesian (a.u./angstrom)
                 X         Y         Z
 ----------------------------------------
     1 H    -0.009382 -0.000256  0.003445
     2 C    -0.004286  0.000738 -0.003981
     3 C     0.025296 -0.050828 -0.018381
     4 C    -0.003331 -0.020632 -0.073051
     5 O     0.118462  0.087324  0.152362
     6 H     0.001245 -0.001029  0.000780
     7 H    -0.000053 -0.000017  0.000417
     8 H     0.000056  0.000062  0.000310
     9 C    -0.000665  0.000441  0.002286
    10 H    -0.000421 -0.000046 -0.000032
    11 C    -0.000391 -0.000358 -0.000142
    12 C     0.000056  0.000281  0.000035
    13 C    -0.000625  0.000510  0.001390
    14 C     0.000671  0.001184  0.001409
    15 C     0.001148 -0.000016 -0.000723
    16 C    -0.000526 -0.000479 -0.000191
    17 H     0.000115 -0.000217  0.000142
    18 H     0.000015 -0.000594 -0.000206
    19 H    -0.000268 -0.000082 -0.000164
    20 H     0.000176  0.000229 -0.000000
    21 H     0.000283  0.000042  0.000105
    22 H    -0.159789 -0.005572 -0.054732
    23 Al    0.089292  0.005143  0.020320
    24 F     0.003082 -0.009094  0.003922
    25 F    -0.050620 -0.016130 -0.039034
    26 F    -0.009539  0.009397  0.003713
 ----------------------------------------
 Mulliken charges used for AMS results%charges...

 dE(predicted):    -0.21735E-01, dE(actual):    -0.18660E-01, Trust radius:    1.000000, all in a.u.
 
----------------------------------------------------------------------
Geometry Convergence after Step  15       (Hartree/Angstrom,Angstrom)
----------------------------------------------------------------------
current energy                               -5.44296064 Hartree
energy change                      -0.01865959     0.00026000    F
constrained gradient max            0.15979836     0.00100000    F
constrained gradient rms            0.03507863     0.00066667    F
gradient max                        0.15979836
gradient rms                        0.03507863
cart. step max                      0.21941432     0.01000000    F
cart. step rms                      0.06508134     0.00666667    F
 
 
--------
Geometry
--------
Formula: C10H11AlF3O
Atoms
  Index Symbol   x (angstrom)   y (angstrom)   z (angstrom)
      1      H     0.09655714    -1.87449783     0.17830876
      2      C    -1.01132219    -0.08932834     0.90037630
      3      C     0.15854209    -0.78469919     0.28042554
      4      C     1.42186511    -0.22831949    -0.07768763
      5      O     2.15655138    -1.02781899    -0.76949361
      6      H    -0.81871480     0.98447966     0.83576676
      7      H    -2.07268676     0.09464359     2.79168368
      8      H    -0.32315800    -0.15303910     2.96986755
      9      C    -1.20685809    -0.44389986     2.39462044
     10      H    -1.37437327    -1.51428012     2.54513866
     11      C    -4.51570637    -0.85846652    -1.55831472
     12      C    -3.93068110     0.40787184    -1.52680134
     13      C    -2.79992107     0.64037799    -0.74403521
     14      C    -2.24354055    -0.38303682     0.03586035
     15      C    -2.83537204    -1.65535597    -0.01174737
     16      C    -3.96176668    -1.89045065    -0.79883181
     17      H    -4.35239251     1.21923166    -2.11537148
     18      H    -2.34295825     1.62646927    -0.73998028
     19      H    -2.42992217    -2.47395172     0.57772571
     20      H    -4.40847192    -2.88184966    -0.81661056
     21      H    -5.39457480    -1.04102557    -2.17176227
     22      H     1.30316496    -1.30919406    -1.45990186
     23     Al     2.51675291     1.59307988     0.01749860
     24      F     2.80607931     1.77996788     1.69721841
     25      F     1.07609079     1.75731772    -1.07390308
     26      F     3.61255648     2.38505675    -0.95144007
 
Total System Charge             0.00000
 
 *** GOStep16 ***

 Energy gradients wrt nuclear displacements
 ==========================================

     Atom      Cartesian (a.u./angstrom)
                 X         Y         Z
 ----------------------------------------
     1 H    -0.001109 -0.001535  0.001701
     2 C    -0.003678 -0.002870  0.001216
     3 C    -0.009711 -0.043974 -0.011451
     4 C     0.049897 -0.035089 -0.110982
     5 O     0.076225  0.085103  0.191476
     6 H     0.000995 -0.000583 -0.001214
     7 H     0.000138 -0.000313  0.000708
     8 H     0.000128 -0.000029  0.000245
     9 C    -0.001993  0.001736  0.001604
    10 H    -0.000453 -0.000316 -0.000117
    11 C    -0.000272 -0.000177 -0.000141
    12 C     0.000077  0.000106  0.000045
    13 C    -0.000414  0.000826  0.001109
    14 C     0.000147  0.000247 -0.000118
    15 C     0.000570 -0.000377 -0.000772
    16 C    -0.000151 -0.000491  0.000108
    17 H     0.000019 -0.000068  0.000081
    18 H     0.000047 -0.000414 -0.000157
    19 H    -0.000061 -0.000202  0.000088
    20 H     0.000104  0.000022 -0.000031
    21 H     0.000114  0.000029  0.000040
    22 H    -0.141647  0.011625 -0.064136
    23 Al    0.060583 -0.007936 -0.011760
    24 F     0.007870 -0.004165  0.033195
    25 F    -0.016779 -0.011745 -0.026954
    26 F    -0.020645  0.010591 -0.003783
 ----------------------------------------
 Mulliken charges used for AMS results%charges...

 dE(predicted):    -0.19573E-01, dE(actual):    -0.18007E-01, Trust radius:    1.000000, all in a.u.
 
----------------------------------------------------------------------
Geometry Convergence after Step  16       (Hartree/Angstrom,Angstrom)
----------------------------------------------------------------------
current energy                               -5.46096780 Hartree
energy change                      -0.01800716     0.00026000    F
constrained gradient max            0.19146706     0.00100000    F
constrained gradient rms            0.03563053     0.00066667    F
gradient max                        0.19146706
gradient rms                        0.03563053
cart. step max                      0.21045562     0.01000000    F
cart. step rms                      0.07358714     0.00666667    F
 
 
--------
Geometry
--------
Formula: C10H11AlF3O
Atoms
  Index Symbol   x (angstrom)   y (angstrom)   z (angstrom)
      1      H     0.08787788    -1.84084485     0.07759244
      2      C    -1.01734918    -0.07209117     0.88689082
      3      C     0.13233452    -0.75546825     0.22959650
      4      C     1.42854079    -0.26649084    -0.12544113
      5      O     2.13467818    -1.00851112    -0.93447883
      6      H    -0.84478351     1.00569942     0.80704184
      7      H    -2.03804561     0.09877617     2.79754312
      8      H    -0.27877323    -0.10694576     2.93335764
      9      C    -1.16970850    -0.42162807     2.38296714
     10      H    -1.30546239    -1.49481458     2.54360273
     11      C    -4.53348389    -0.89669334    -1.54230520
     12      C    -3.91237515     0.35162615    -1.58757294
     13      C    -2.78134726     0.60137903    -0.80995805
     14      C    -2.26051794    -0.38626926     0.03806748
     15      C    -2.88622214    -1.64252810     0.06485773
     16      C    -4.01408884    -1.89390356    -0.71435946
     17      H    -4.30750373     1.13572485    -2.22949901
     18      H    -2.29919053     1.57496139    -0.86029511
     19      H    -2.50446531    -2.43276523     0.70631226
     20      H    -4.49028371    -2.87100844    -0.67270784
     21      H    -5.41419655    -1.09290729    -2.14922967
     22      H     1.36413015    -1.11826508    -1.66921160
     23     Al     2.47438564     1.56440181     0.10413416
     24      F     2.73283361     1.64691686     1.83485118
     25      F     1.19655430     1.88421083    -0.86344746
     26      F     3.63220200     2.31672078    -0.83969928
 
Total System Charge             0.00000
 
 *** GOStep17 ***

 Energy gradients wrt nuclear displacements
 ==========================================

     Atom      Cartesian (a.u./angstrom)
                 X         Y         Z
 ----------------------------------------
     1 H     0.009831 -0.001004 -0.003114
     2 C    -0.001476 -0.006925  0.005746
     3 C    -0.053637 -0.021148  0.006375
     4 C     0.063560 -0.011610 -0.099809
     5 O     0.068884  0.032918  0.155562
     6 H     0.000404  0.000739 -0.002767
     7 H     0.000376 -0.000406  0.000549
     8 H     0.000205 -0.000136  0.000179
     9 C    -0.002265  0.002495 -0.000073
    10 H    -0.000284 -0.000358 -0.000253
    11 C    -0.000129  0.000358 -0.000002
    12 C    -0.000124 -0.000368 -0.000179
    13 C    -0.000045  0.000295  0.000818
    14 C    -0.001499 -0.000443 -0.001364
    15 C    -0.000073 -0.000693 -0.001179
    16 C     0.000505 -0.000180  0.000461
    17 H    -0.000116  0.000107 -0.000096
    18 H     0.000327  0.000197 -0.000172
    19 H     0.000255 -0.000182  0.000334
    20 H    -0.000093 -0.000210  0.000006
    21 H    -0.000106 -0.000006 -0.000112
    22 H    -0.106399  0.029830 -0.052295
    23 Al   -0.046887  0.001551 -0.089860
    24 F     0.010591 -0.004786  0.055586
    25 F     0.085579 -0.033604  0.036360
    26 F    -0.027385  0.013570 -0.010699
 ----------------------------------------
 Mulliken charges used for AMS results%charges...
 Rebuilding optimization coordinates

 dE(predicted):    -0.15477E-01, dE(actual):    -0.14316E-01, Trust radius:    1.000000, all in a.u.
 
----------------------------------------------------------------------
Geometry Convergence after Step  17       (Hartree/Angstrom,Angstrom)
----------------------------------------------------------------------
current energy                               -5.47528399 Hartree
energy change                      -0.01431619     0.00026000    F
constrained gradient max            0.15555800     0.00100000    F
constrained gradient rms            0.03340088     0.00066667    F
gradient max                        0.15555800
gradient rms                        0.03340088
cart. step max                      0.15322978     0.01000000    F
cart. step rms                      0.03726478     0.00666667    F
 
 
--------
Geometry
--------
Formula: C10H11AlF3O
Atoms
  Index Symbol   x (angstrom)   y (angstrom)   z (angstrom)
      1      H     0.10339274    -1.82958735     0.05747342
      2      C    -1.00655222    -0.06263271     0.87021881
      3      C     0.14266729    -0.74355129     0.20857761
      4      C     1.42337438    -0.26230319    -0.14326108
      5      O     2.21165088    -1.00496040    -0.96117181
      6      H    -0.84210956     1.01684720     0.79626017
      7      H    -2.00371566     0.08555828     2.79174456
      8      H    -0.24033852    -0.09946765     2.90451373
      9      C    -1.13428534    -0.42268336     2.36450566
     10      H    -1.25425622    -1.49802987     2.52160565
     11      C    -4.54268227    -0.89153035    -1.52812788
     12      C    -3.90832772     0.34877624    -1.59790490
     13      C    -2.77178762     0.59924111    -0.82879929
     14      C    -2.25804262    -0.37874819     0.03442862
     15      C    -2.89962276    -1.62555562     0.08908889
     16      C    -4.03267017    -1.87820169    -0.68210527
     17      H    -4.29709215     1.12579655    -2.25236068
     18      H    -2.28174304     1.56814095    -0.89577250
     19      H    -2.52431696    -2.40816298     0.74337270
     20      H    -4.52037008    -2.84863665    -0.62024813
     21      H    -5.42795743    -1.08908664    -2.12811942
     22      H     1.48420216    -1.07027320    -1.68528528
     23     Al     2.39533896     1.55423111     0.12144347
     24      F     2.57960383     1.59250729     1.85898586
     25      F     1.08319923     1.85449207    -0.87876641
     26      F     3.64818048     2.24710271    -0.75168703
 
Total System Charge             0.00000
 
 *** GOStep18 ***

 Energy gradients wrt nuclear displacements
 ==========================================

     Atom      Cartesian (a.u./angstrom)
                 X         Y         Z
 ----------------------------------------
     1 H     0.011696 -0.000341 -0.005541
     2 C    -0.000885 -0.007335  0.005930
     3 C    -0.059220 -0.006587  0.014601
     4 C     0.029842  0.020251 -0.058117
     5 O     0.088393 -0.008273  0.080245
     6 H    -0.000006  0.001650 -0.001997
     7 H     0.000397 -0.000212  0.000197
     8 H     0.000270 -0.000134  0.000138
     9 C    -0.001541  0.002081 -0.001064
    10 H    -0.000117 -0.000199 -0.000365
    11 C     0.000310  0.000541 -0.000131
    12 C    -0.000313 -0.000409 -0.000129
    13 C     0.000008 -0.000765  0.000666
    14 C    -0.001719 -0.000546 -0.001511
    15 C    -0.000663 -0.000203 -0.000624
    16 C     0.000790  0.000199  0.000547
    17 H    -0.000145  0.000173 -0.000208
    18 H     0.000139  0.000771  0.000038
    19 H     0.000366 -0.000156  0.000301
    20 H    -0.000128 -0.000300 -0.000022
    21 H    -0.000228  0.000004 -0.000115
    22 H    -0.080201  0.034306 -0.023066
    23 Al   -0.028283 -0.005324 -0.066194
    24 F     0.008575 -0.010459  0.052407
    25 F     0.041933 -0.031699  0.015262
    26 F    -0.009267  0.012967 -0.011247
 ----------------------------------------
 Mulliken charges used for AMS results%charges...

 dE(predicted):    -0.92070E-02, dE(actual):    -0.12782E-01, Trust radius:    1.000000, all in a.u.
 
----------------------------------------------------------------------
Geometry Convergence after Step  18       (Hartree/Angstrom,Angstrom)
----------------------------------------------------------------------
current energy                               -5.48806604 Hartree
energy change                      -0.01278204     0.00026000    F
constrained gradient max            0.08839217     0.00100000    F
constrained gradient rms            0.02339809     0.00066667    F
gradient max                        0.08839217
gradient rms                        0.02339809
cart. step max                      0.07110286     0.01000000    F
cart. step rms                      0.02569378     0.00666667    F
 
 
--------
Geometry
--------
Formula: C10H11AlF3O
Atoms
  Index Symbol   x (angstrom)   y (angstrom)   z (angstrom)
      1      H     0.10940809    -1.82554058     0.03387935
      2      C    -1.00070530    -0.06639470     0.86085114
      3      C     0.14479583    -0.74003562     0.18906953
      4      C     1.39881377    -0.25815321    -0.15305822
      5      O     2.17604010    -0.99756301    -0.97653502
      6      H    -0.84185444     1.01378353     0.79398536
      7      H    -1.98247275     0.05879225     2.79089593
      8      H    -0.21598697    -0.10572740     2.88689772
      9      C    -1.11075770    -0.43720998     2.35373800
     10      H    -1.21580978    -1.51449621     2.50727765
     11      C    -4.54838098    -0.89390120    -1.52099331
     12      C    -3.89423609     0.33434619    -1.61812098
     13      C    -2.75405887     0.58386118    -0.85428167
     14      C    -2.25629877    -0.38246602     0.03139093
     15      C    -2.91589450    -1.61840258     0.11126067
     16      C    -4.05334804    -1.86984027    -0.65411214
     17      H    -4.27040098     1.10262041    -2.28991330
     18      H    -2.24768332     1.54226770    -0.94381595
     19      H    -2.55342630    -2.39201180     0.78291678
     20      H    -4.55666463    -2.83054331    -0.57051628
     21      H    -5.43650723    -1.09087485    -2.11686826
     22      H     1.49616087    -1.02243882    -1.72193146
     23     Al     2.36441039     1.56914270     0.14759751
     24      F     2.53067861     1.63017067     1.86067749
     25      F     1.07835282     1.91389743    -0.82708241
     26      F     3.68156577     2.17599984    -0.69459959
 
Total System Charge             0.00000
 
 *** GOStep19 ***

 Energy gradients wrt nuclear displacements
 ==========================================

     Atom      Cartesian (a.u./angstrom)
                 X         Y         Z
 ----------------------------------------
     1 H     0.012808 -0.000426 -0.005197
     2 C     0.001792 -0.005532  0.004018
     3 C    -0.032010 -0.002417  0.002892
     4 C     0.014563  0.017582 -0.048319
     5 O     0.053629 -0.013325  0.071491
     6 H    -0.000202  0.001185 -0.001657
     7 H     0.000249 -0.000021 -0.000225
     8 H     0.000154 -0.000199  0.000046
     9 C    -0.000214  0.001244 -0.000927
    10 H    -0.000088 -0.000041 -0.000246
    11 C     0.000213  0.000446  0.000022
    12 C    -0.000373 -0.000339  0.000020
    13 C     0.000109 -0.000485  0.000771
    14 C    -0.001673 -0.000361 -0.001852
    15 C    -0.000170 -0.000411 -0.000778
    16 C     0.000544  0.000199  0.000414
    17 H    -0.000074  0.000117 -0.000138
    18 H     0.000242  0.000388 -0.000214
    19 H     0.000268 -0.000070  0.000266
    20 H    -0.000163 -0.000168  0.000053
    21 H    -0.000113 -0.000067 -0.000151
    22 H    -0.060514  0.036053 -0.011631
    23 Al   -0.048470  0.000661 -0.064200
    24 F     0.008822 -0.008309  0.036001
    25 F     0.056843 -0.037932  0.027681
    26 F    -0.006172  0.012225 -0.008139
 ----------------------------------------
 Mulliken charges used for AMS results%charges...

 dE(predicted):    -0.40040E-02, dE(actual):    -0.65451E-02, Trust radius:    1.000000, all in a.u.
 
----------------------------------------------------------------------
Geometry Convergence after Step  19       (Hartree/Angstrom,Angstrom)
----------------------------------------------------------------------
current energy                               -5.49461110 Hartree
energy change                      -0.00654507     0.00026000    F
constrained gradient max            0.07149290     0.00100000    F
constrained gradient rms            0.01994167     0.00066667    F
gradient max                        0.07149290
gradient rms                        0.01994167
cart. step max                      0.20892330     0.01000000    F
cart. step rms                      0.06953444     0.00666667    F
 
 
--------
Geometry
--------
Formula: C10H11AlF3O
Atoms
  Index Symbol   x (angstrom)   y (angstrom)   z (angstrom)
      1      H     0.11437891    -1.82611224    -0.00996747
      2      C    -0.97860487    -0.07740727     0.83741359
      3      C     0.15763217    -0.74072705     0.13891451
      4      C     1.35781604    -0.24625329    -0.20454738
      5      O     2.15981433    -0.96590283    -1.03478648
[...]
                                    1.69%     1 P:x            -5.135  0.67    21 C
                                    1.64%     1 P:x            -5.135  0.67    18 C
                                   -1.56%     1 P:z            -5.135  0.67    17 C
                                    1.39%     2 P:y             4.559  0.00    20 C
                                   -1.32%     2 P:x             4.559  0.00    18 C
                                    1.26%     1 P:z            -5.135  0.67    16 C
                                    1.23%     2 P:z             4.559  0.00    13 C
                                   -1.19%     2 P:x            11.793  0.00    25 F
                                    1.12%     1 P:z            -5.135  0.67    19 C
       2.948  0.00    80 A         28.76%     1 P:z            -5.135  0.67    15 C
                                   11.77%     2 P:z             4.559  0.00    15 C
                                  -10.72%     2 P:z             4.559  0.00    12 C
                                    8.71%     1 P:y            -5.135  0.67    12 C
                                   -8.46%     3 S              10.456  0.00    12 C
                                    8.40%     1 S              -6.484  1.00     7 H
                                    7.12%     2 S             -13.802  2.00    12 C
                                    5.95%     1 P:y            -5.135  0.67    15 C
                                    5.62%     1 S              -6.484  1.00     5 H
                                    4.82%     1 S              -6.484  1.00     4 H
                                   -4.80%     2 P:y             4.559  0.00    12 C
                                    4.17%     2 S             -13.802  2.00    13 C
                                    4.03%     2 P:z            -2.560  0.33    23 Al
                                    3.20%     3 S               0.309  0.00    25 F
                                    2.58%     2 P:y             4.559  0.00    20 C
                                    2.43%     1 P:z            -5.135  0.67    12 C
                                    2.33%     1 S              -6.484  1.00     2 H
                                   -2.33%     2 S               2.096  0.00     5 H
                                    2.13%     2 P:x             4.559  0.00    15 C
                                   -2.06%     2 S               2.096  0.00     2 H
                                    1.98%     2 S               2.096  0.00     6 H
                                    1.92%     2 P:z             4.559  0.00    13 C
                                    1.85%     3 P:y             0.764  0.00    23 Al
                                    1.75%     2 P:x             4.559  0.00    13 C
                                    1.68%     2 P:z             4.559  0.00    17 C
                                    1.65%     2 P:z             4.559  0.00    21 C
                                    1.61%     2 P:x             4.559  0.00    16 C
                                    1.59%     2 P:y             4.559  0.00    15 C
                                    1.54%     1 P:x            -5.135  0.67    14 C
                                   -1.46%     2 P:z             4.559  0.00    16 C
                                    1.34%     1 P:z            11.162  0.00     3 H
                                    1.33%     3 P:x             0.764  0.00    23 Al
                                    1.33%     1 P:y            -5.135  0.67    18 C
                                    1.29%     1 S              -6.484  1.00     1 H
                                   -1.28%     2 P:z             4.559  0.00    19 C
                                    1.23%     1 P:y            -5.135  0.67    20 C
                                    1.20%     2 P:z             4.559  0.00    20 C
                                    1.08%     2 P:y             4.559  0.00    16 C
                                   -1.05%     3 P:z             0.764  0.00    23 Al
                                    1.00%     1 P:y            -5.135  0.67    19 C

 Energy gradients wrt nuclear displacements
 ==========================================

     Atom      Cartesian (a.u./angstrom)
                 X         Y         Z
 ----------------------------------------
     1 H     0.000109 -0.000000  0.000034
     2 C     0.000004 -0.000036  0.000506
     3 C     0.000042  0.000263 -0.000299
     4 C     0.000330 -0.000797 -0.000580
     5 O    -0.000136  0.000791 -0.000384
     6 H     0.000085 -0.000033 -0.000056
     7 H    -0.000015 -0.000113  0.000022
     8 H    -0.000018  0.000002  0.000050
     9 C    -0.000053  0.000237 -0.000421
    10 H     0.000068 -0.000066  0.000023
    11 C     0.000053  0.000069 -0.000077
    12 C    -0.000083 -0.000087  0.000017
    13 C    -0.000022  0.000002  0.000021
    14 C    -0.000115  0.000166 -0.000145
    15 C    -0.000142 -0.000140 -0.000069
    16 C     0.000106 -0.000041  0.000083
    17 H     0.000009  0.000008  0.000001
    18 H     0.000025 -0.000024  0.000033
    19 H     0.000083  0.000014  0.000023
    20 H    -0.000020 -0.000007 -0.000035
    21 H    -0.000007 -0.000043  0.000019
    22 H    -0.000340 -0.000228  0.000539
    23 Al    0.000209  0.000564 -0.000331
    24 F    -0.000224  0.000376  0.000532
    25 F    -0.000189 -0.000691  0.000436
    26 F     0.000242 -0.000186  0.000058
 ----------------------------------------



 =======================================================================
 Electrostatic potential at the Nuclei due to electrons and other nuclei
 =======================================================================
  
         Atom                  Potential
         ----                  ---------
     1)   H                   1.04775121
     2)   C                  14.73498079
     3)   C                  14.72031818
     4)   C                  14.70092004
     5)   O                  22.29376016
     6)   H                   1.09163742
     7)   H                   1.09806493
     8)   H                   1.10103498
     9)   C                  14.77151784
    10)   H                   1.09701320
    11)   C                  14.76060595
    12)   C                  14.76615995
    13)   C                  14.76616295
    14)   C                  14.73940021
    15)   C                  14.75968086
    16)   C                  14.76132897
    17)   H                   1.08900660
    18)   H                   1.09256879
    19)   H                   1.07917723
    20)   H                   1.08315794
    21)   H                   1.08400405
    22)   H                   0.92693430
    23)   Al                 44.73388986
    24)   F                  26.73979806
    25)   F                  26.73652683
    26)   F                  26.74491375

=============================================================
=== CALCULATE ANALYTICAL SECOND DERIVATIVES OF THE ENERGY ===
=============================================================


-----------------------------------------------
*** RESTART ***
*** CHECKING FOR HESSIAN ON RESTART FILE ***
@@@ WARNING: Cannot find section: Hessian                                                                                                                                                         
*** NO HESSIAN EXISTS ON RESTART FILE ***
*** HESSIAN FROM RESTART FILE IS NOT COMPLETE ***
*** FURTHER CALCULATIONS WILL BE DONE         ***
-----------------------------------------------
                  ------------------------------------------------
                  
                  This Analytical Second Derivatives Progam    
                            was written for ADF by             
                  
                                Stephen K. Wolff               
                  
                         Scientific Computing & Modelling      
                  
                                Vrije University
                              Theoretical Chemistry
                                De Boelelaan 1083
                                1081 HV Amsterdam
                                 The Netherlands
                  
                  ------------------------------------------------
                  
                                    References:                
                                    ===========                
                  
                   Attila Berces, Ross M. Dickson, Liangyou Fan
                   Heiko Jacobsen, David Swerhone, Tom Ziegler,
                   Computer Physics Communications 100 (1997) 247.
                  
                   Heiko Jacobsen, Attila Berces
                   David Swerhone, Tom Ziegler,
                   Computer Physics Communications 100 (1997) 263.
                  
                   Stephen K. Wolff
                   Int. J. Quantum Chem. 104 (2005) 645.
                  
                  ------------------------------------------------
                  
              <><><><><><><><><><><><><><><><><><><><><><><><><>
 
                 SECOND DERIVATIVES INFORMATION:
                 -------------------------------
 
                 === PRINT
 
                   EIGS,  lprint_eigbas =  F
                   U1,    lprint_u1     =  F
                   PARTS, lprint_parts  =  F
 
                 === DEBUG
 
                   ALL        =  F
                   B1         =  F
                   DENSITIES  =  F
                   FIT        =  F
                   HESSIAN    =  F
                   NUMBERS    =  F
                   SYMMETRY   =  F
                   U1         =  F
 
                 === CPKS
 
                   MAX_CPKS_ITERATIONS    =    20
                   U1_ACCURACY PARAMETER  =     5.00
                   U1 ACCURACY            =     0.0000100
 

                 Estimated peak private memory usage    169 MB per process
                                 shared memory usage   3690 MB per node

              <><><><><><><><><><><><><><><><><><><><><><><><><>

######## LOOPING OVER NUCLEI ########

==========================
###### NUCLEUS:     1  H  
==========================

====================  solving CPKS equations  ====================

NUCLEUS  COORD.    ITERATION   ACCURACY
-------  ------    ---------   --------
    1       1          1       0.37653394D-01
    1       1          2       0.37126229D-02
    1       1          3       0.30922750D-02
    1       1          4       0.17145895D-02
    1       1          5       0.11566126D-02
    1       1          6       0.20847782D-03
    1       1          7       0.55733659D-04
    1       1          8       0.38619334D-04
    1       1          9       0.11362324D-04
    1       1         10       0.33328878D-05
*** CPKS converged.
----------------------------------------------
    1       2          1       0.51318467D-01
    1       2          2       0.66063084D-02
    1       2          3       0.26021923D-02
    1       2          4       0.38374033D-03
    1       2          5       0.34673994D-03
    1       2          6       0.22932679D-03
    1       2          7       0.11311772D-03
    1       2          8       0.62016039D-04
    1       2          9       0.22733599D-04
    1       2         10       0.67348154D-05
*** CPKS converged.
----------------------------------------------
    1       3          1       0.92651350D-02
    1       3          2       0.29390754D-02
    1       3          3       0.32478599D-02
    1       3          4       0.21688001D-02
    1       3          5       0.68146844D-03
    1       3          6       0.16739250D-03
    1       3          7       0.74039017D-04
    1       3          8       0.63167724D-04
    1       3          9       0.20357161D-04
    1       3         10       0.49372683D-05
*** CPKS converged.
----------------------------------------------

====================  end of solving CPKS equations  ====================

==========================
###### NUCLEUS:     6  H  
==========================

====================  solving CPKS equations  ====================

NUCLEUS  COORD.    ITERATION   ACCURACY
-------  ------    ---------   --------
    6       1          1       0.31600562D-01
    6       1          2       0.17076966D-02
    6       1          3       0.48750221D-03
    6       1          4       0.19873052D-03
    6       1          5       0.70957094D-04
    6       1          6       0.57022035D-04
    6       1          7       0.24619065D-04
    6       1          8       0.10651849D-04
    6       1          9       0.37233592D-05
*** CPKS converged.
----------------------------------------------
    6       2          1       0.72504487D-02
    6       2          2       0.29413239D-02
    6       2          3       0.12447389D-02
    6       2          4       0.64241016D-03
    6       2          5       0.13604785D-03
    6       2          6       0.79744396D-04
    6       2          7       0.18918572D-04
    6       2          8       0.14391019D-04
    6       2          9       0.10972148D-04
    6       2         10       0.24605983D-05
*** CPKS converged.
----------------------------------------------
    6       3          1       0.59081193D-02
    6       3          2       0.19516059D-02
    6       3          3       0.47514198D-03
    6       3          4       0.24552241D-03
    6       3          5       0.61748596D-04
    6       3          6       0.28609987D-04
    6       3          7       0.12152210D-04
    6       3          8       0.82458708D-05
*** CPKS converged.
----------------------------------------------

====================  end of solving CPKS equations  ====================

==========================
###### NUCLEUS:     7  H  
==========================

====================  solving CPKS equations  ====================

NUCLEUS  COORD.    ITERATION   ACCURACY
-------  ------    ---------   --------
    7       1          1       0.14110481D-01
    7       1          2       0.72301170D-02
    7       1          3       0.59598618D-03
    7       1          4       0.28194980D-03
    7       1          5       0.12622747D-03
    7       1          6       0.34390154D-04
    7       1          7       0.23108274D-04
    7       1          8       0.10229383D-04
    7       1          9       0.12924487D-04
    7       1         10       0.29557592D-05
*** CPKS converged.
----------------------------------------------
    7       2          1       0.78737211D-02
    7       2          2       0.13279609D-02
    7       2          3       0.10540643D-02
    7       2          4       0.23401863D-03
    7       2          5       0.61737788D-04
    7       2          6       0.30733082D-04
    7       2          7       0.18268585D-04
    7       2          8       0.15316845D-04
    7       2          9       0.52795943D-05
*** CPKS converged.
----------------------------------------------
    7       3          1       0.16459259D-01
    7       3          2       0.62446712D-02
    7       3          3       0.68142241D-03
    7       3          4       0.49983286D-03
    7       3          5       0.21858166D-03
    7       3          6       0.92920824D-04
    7       3          7       0.67069041D-04
    7       3          8       0.22183941D-04
    7       3          9       0.13533769D-04
    7       3         10       0.58501976D-05
*** CPKS converged.
----------------------------------------------

====================  end of solving CPKS equations  ====================

==========================
###### NUCLEUS:     8  H  
==========================

====================  solving CPKS equations  ====================

NUCLEUS  COORD.    ITERATION   ACCURACY
-------  ------    ---------   --------
    8       1          1       0.22193718D-01
    8       1          2       0.51240325D-02
    8       1          3       0.78605726D-03
    8       1          4       0.31709488D-03
    8       1          5       0.10687884D-03
    8       1          6       0.40648314D-04
    8       1          7       0.88885729D-05
*** CPKS converged.
----------------------------------------------
    8       2          1       0.36693867D-02
    8       2          2       0.20852042D-02
    8       2          3       0.28261300D-03
    8       2          4       0.42582916D-03
    8       2          5       0.51300214D-04
    8       2          6       0.24264542D-04
    8       2          7       0.10632625D-04
    8       2          8       0.67026465D-05
*** CPKS converged.
----------------------------------------------
    8       3          1       0.78639745D-02
    8       3          2       0.20980070D-02
    8       3          3       0.19155462D-02
    8       3          4       0.19626870D-03
    8       3          5       0.29234877D-03
    8       3          6       0.64625518D-04
    8       3          7       0.45561283D-04
    8       3          8       0.13455282D-04
    8       3          9       0.10336166D-04
    8       3         10       0.26573943D-05
*** CPKS converged.
----------------------------------------------

====================  end of solving CPKS equations  ====================

==========================
###### NUCLEUS:    10  H  
==========================

====================  solving CPKS equations  ====================

NUCLEUS  COORD.    ITERATION   ACCURACY
-------  ------    ---------   --------
   10       1          1       0.18783992D-01
   10       1          2       0.11815040D-02
   10       1          3       0.64003908D-03
   10       1          4       0.20253658D-03
   10       1          5       0.12515934D-03
   10       1          6       0.63926053D-04
   10       1          7       0.32815492D-04
   10       1          8       0.15953644D-04
   10       1          9       0.61451656D-05
*** CPKS converged.
----------------------------------------------
   10       2          1       0.70245482D-02
   10       2          2       0.36910959D-02
   10       2          3       0.12389426D-02
   10       2          4       0.33303145D-03
   10       2          5       0.21136013D-03
   10       2          6       0.39958906D-04
   10       2          7       0.14212157D-04
   10       2          8       0.59536000D-05
*** CPKS converged.
----------------------------------------------
   10       3          1       0.89253512D-02
   10       3          2       0.26453687D-02
   10       3          3       0.54396344D-03
   10       3          4       0.30932565D-03
   10       3          5       0.85764367D-04
   10       3          6       0.38773878D-04
   10       3          7       0.15671289D-04
   10       3          8       0.10471556D-04
   10       3          9       0.73030590D-05
*** CPKS converged.
----------------------------------------------

====================  end of solving CPKS equations  ====================

==========================
###### NUCLEUS:    17  H  
==========================
 
 ============
 Timer stack:
 ------------
  1643353416.91  AMS
  1643609671.13  ADFEngine%Solve
  1643611383.40  ENHESS
  1643645353.06  nuc
  1643645353.06  w_pgrad1_1nuc
 ============

Process received SIGTERM
 WARNING: Nr of shared arrays in use at the end:           29
 Names of the Shared Arrays that have not been deleted
 projCoeff
 projCoeff
 projCoeff
 projCoeff
 projCoeff
 activefrag%initialMOs%A%_A%eigbas
 activefrag%initialMOs%A%_B%eigbas
 activefrag%initialMOs%A%_A%eigbas
 activefrag%initialMOs%A%_B%eigbas
 grid%coords
 grid%w
 grid%distance2atoms
 grid%neighbors
 projCoeff
 fullGrid
 EIG%eigbas
 NewMMGridFunction%data4
 NewMMGridFunction%data4
 NewMMGridFunction%data4
 NewMMGridFunction%data4
 NewMMGridFunction%data4
 NewMMGridFunction%data4
 NewMMGridFunction%data4
 NewMMGridFunction%data4
 NewMMGridFunction%data4
 NewMMGridFunction%data4
 NewMMGridFunction%data4
 NewMMGridFunction%data4
 NewMMGridFunction%data4
