

 Parallel Execution: Process Information
 ==============================================================================
 Rank   Node Name                              NodeID   MyNodeRank  NodeMaster
    0   node120                                   0          0          0
    1   node120                                   0          1         -1
    2   node120                                   0          2         -1
    3   node120                                   0          3         -1
 ==============================================================================


May use up to 122928MB of RAM as shared memory on node 0

 *******************************************************************************
 *                                                                             *
 *  --------------------------------                                           *
 *   Amsterdam Modeling Suite (AMS)              2021.102                      *
 *  --------------------------------                                           *
 *                                               r95042 2021-06-07             *
 *                                                                             *
 *                                                                             *
 *                              =================                              *
 *                              |               |                              *
 *                              |     A M S     |                              *
 *                              |               |                              *
 *                              =================                              *
 *                                                                             *
 *                                                                             *
 *   Online information and documentation:  https://www.scm.com/support/       *
 *   E-mail:  support@scm.com   info@scm.com                                   *
 *                                                                             *
 *   Scientific publications using AMS results must be properly referenced     *
 *   See the User Manuals (or the web site) for recommended citations          *
 *   The terms and conditions of the End User License Agreement apply to       *
 *   the use of AMS, https://www.scm.com/license-terms/                        *
 *                                                                             *
 **********************  x86_64_linux_intel / intelmpi  ************************
 
 Licensed to: VU/FEW (+ SARA) / ALGEMEEN / Amsterdam / THE NETHERLANDS
 SCM User ID: u7668
  
 AMS 2021.102  RunTime: Jan27-2022 12:32:34  ShM Nodes: 1  Procs: 4

 AMS jobname: 28.achiral_catalyst.H_Ph_AlF3.Rsub_cat_complex
 AMS jobid  : 1419431414

 Start   directory: /scistor/tc/yhk800/MasterProject/calculations/achiral_catalyst_H_Ph_AlF3/28.achiral_catalyst.H_Ph_AlF3.Rsub_cat_complex/
 Results directory: /scistor/tc/yhk800/MasterProject/calculations/achiral_catalyst_H_Ph_AlF3/28.achiral_catalyst.H_Ph_AlF3.Rsub_cat_complex/
 Scratch directory: /scratch/5299/amstmp_28.achiral_catalyst.H_Ph_AlF3.Rsub_cat_complex_kid0.1419431414/


 Communication costs MPI_COMM_WORLD:      0.870 usec per message,   0.0034 usec per 8-byte item
 Communication costs for intra-node:      0.776 usec per message,   0.0039 usec per 8-byte item

 RNG seed: -2024350044 1527193478 -1073085426 -575331355 -923923474 605573010 -1133251803 1857887102



                      ************************************************************************
                      *  ADF 2021.102  RunTime: Jan27-2022 12:32:35  ShM Nodes: 1  Procs: 4  *
                      ************************************************************************
  
       ***************************
       *  GEOMETRY OPTIMIZATION  *
       ***************************

Optimization Method                    Quasi Newton
Optimization Coordinates               Delocalized Coordinates
Optimize lattice                       F
 
 ------------------------------------------------------
 Convergence criteria (Hartree,Angstrom)
 ------------------------------------------------------
 Maximum gradient               0.001000000000
 Maximum rms gradient           0.000666666667
 Maximum step allowed           0.010000000000
 Maximum rms step allowed       0.006666666667
 Maximum energy change allowe   0.000220000000
 Maximum stress energy allowe   0.000500000000
 
Initial model Hessian                  Automatic Hessian
 
------------------------------------
Quasi-Newton Optimizer Parameters
------------------------------------
Hessian Update Method                  BFGS
Maximum number of steps                  250
First GDIIS cycle                          0
Maximum GDIIS vectors                      0
Trust radius (bohr)                        0.200000
Trust radius varies                        T
Constraints converged at all steps         T
Use projector                              T
 
 Rigid motions settings for: old optimizer
 Atomic rotations (x,y,z):     T T T
 Atomic translations (x,y,z):  T T T
 Tolerance:                   1.000000000000000E-006
 
--------
Geometry
--------
Formula: C9H8AlF3O
Atoms
  Index Symbol   x (angstrom)   y (angstrom)   z (angstrom)
      1      H    -0.62056146    -0.03764738    -0.08023722
      2      C    -0.09659473    -2.02948020    -0.54883449
      3      C     0.18266548    -0.75219647    -0.26512258
      4      C     1.55928918    -0.22013974    -0.18291419
      5      O     1.86635738     0.93365884     0.07180470
      6      H     0.69695300    -2.74612423    -0.73626627
      7      C    -4.19306316    -3.45045331    -0.75693434
      8      C    -3.40647232    -3.74315213     0.36417241
      9      C    -2.08487807    -3.28472070     0.43130916
     10      C    -1.54987465    -2.53359044    -0.62266085
     11      C    -2.33646548    -2.24089162    -1.74376760
     12      C    -3.65805974    -2.69932305    -1.81090435
     13      H    -3.81587125    -4.31793708     1.17069844
     14      H    -1.48295774    -3.50870166     1.28921002
     15      H    -1.92706657    -1.66610667    -2.55029363
     16      H    -4.25998008    -2.47534209    -2.66880521
     17      H    -5.20438242    -3.80125730    -0.80830917
     18      H     2.32514145    -0.94333367    -0.37095895
     19     Al     1.85103070     2.46611042     0.80757453
     20      F     1.06246720     1.84844950     2.07760404
     21      F     1.02232412     3.06059473    -0.44787207
     22      F     3.46830079     2.48928704     0.79299163
 
Total System Charge             0.00000
 
 
----------------
ADF Engine Input
----------------
 
 NumericalQuality VeryGood
 SCF
 Converge 1.0e-6
 Iterations 99
 End
 SYMMETRY NOSYM
 XC
 GGA OLYP
 End
 basis
 core None
 type TZ2P
 End
 

 Title: *** (NO TITLE) ***

 Using automatic Hessian for delocalized coordinates.
 *** GOStep1 ***

 Energy gradients wrt nuclear displacements
 ==========================================

     Atom      Cartesian (a.u./angstrom)
                 X         Y         Z
 ----------------------------------------
     1 H    -0.002654  0.001867 -0.000307
     2 C     0.057223  0.021768  0.003209
     3 C    -0.017962 -0.047016 -0.007866
     4 C     0.059179  0.015387  0.005154
     5 O    -0.000012  0.157724  0.068282
     6 H    -0.005726  0.006220 -0.001595
     7 C    -0.025316 -0.009002 -0.000586
     8 C    -0.011006 -0.016867  0.023054
     9 C     0.016554  0.002812  0.017828
    10 C    -0.048569 -0.011789 -0.000493
    11 C     0.014980  0.010951 -0.014745
    12 C    -0.015769  0.007764 -0.025240
    13 H     0.006849  0.010177 -0.015943
    14 H    -0.010685  0.004267 -0.016229
    15 H    -0.007266 -0.010343  0.014760
    16 H     0.010386 -0.004777  0.016508
    17 H     0.019061  0.006696  0.000982
    18 H    -0.038048  0.025653  0.009121
    19 Al   -0.004153 -0.033258 -0.007380
    20 F     0.040457 -0.011071 -0.088383
    21 F     0.042747 -0.076913  0.043872
    22 F    -0.080270 -0.050250 -0.024004
 ----------------------------------------
 Mulliken charges used for AMS results%charges...
 
----------------------------------------------------------------------
Geometry Convergence after Step   1       (Hartree/Angstrom,Angstrom)
----------------------------------------------------------------------
current energy                               -4.84673084 Hartree
energy change                      -4.84673084     0.00022000    F
constrained gradient max            0.15774157     0.00100000    F
constrained gradient rms            0.03484774     0.00066667    F
gradient max                        0.15774157
gradient rms                        0.03484774
cart. step max                      0.14258433     0.01000000    F
cart. step rms                      0.03618685     0.00666667    F
 
 
--------
Geometry
--------
Formula: C9H8AlF3O
Atoms
  Index Symbol   x (angstrom)   y (angstrom)   z (angstrom)
      1      H    -0.61612174    -0.04389611    -0.09097385
      2      C    -0.11809213    -2.04983615    -0.55723255
      3      C     0.17482515    -0.77058707    -0.27687145
      4      C     1.55591997    -0.26910903    -0.20358504
      5      O     1.87975074     0.88457614     0.04712375
      6      H     0.67274714    -2.77256469    -0.74429828
      7      C    -4.20119336    -3.46358984    -0.75859141
      8      C    -3.41406429    -3.75542647     0.36007627
      9      C    -2.09388803    -3.29918802     0.42599053
     10      C    -1.55975501    -2.54886771    -0.62863866
     11      C    -2.34786546    -2.25685309    -1.74842943
     12      C    -3.66780570    -2.71465283    -1.81224489
     13      H    -3.82430473    -4.33184556     1.17159842
     14      H    -1.48895610    -3.52443619     1.28758306
     15      H    -1.93815993    -1.68028444    -2.55990659
     16      H    -4.27329555    -2.48972920    -2.67358542
     17      H    -5.21752100    -3.81543966    -0.80849095
     18      H     2.32026458    -1.00997711    -0.39419168
     19     Al     1.88876704     2.46084913     0.79415656
     20      F     1.08782864     1.98779780     2.14146681
     21      F     1.06167236     3.20317906    -0.40786710
     22      F     3.51754904     2.60758385     0.84839591
 
Total System Charge             0.00000
 
 *** GOStep2 ***

 Energy gradients wrt nuclear displacements
 ==========================================

     Atom      Cartesian (a.u./angstrom)
                 X         Y         Z
 ----------------------------------------
     1 H    -0.001834  0.001513 -0.000443
     2 C     0.047757  0.016997  0.002270
     3 C    -0.018369 -0.037508 -0.004867
     4 C     0.049797  0.020448  0.005170
     5 O    -0.003836  0.093937  0.039831
     6 H    -0.004829  0.004128 -0.002415
     7 C    -0.016474 -0.005879 -0.000219
     8 C    -0.007311 -0.011486  0.015436
     9 C     0.011023  0.004313  0.011749
    10 C    -0.041915 -0.010790 -0.000492
    11 C     0.011233  0.006118 -0.009367
    12 C    -0.010526  0.005569 -0.016930
    13 H     0.004378  0.006561 -0.010913
    14 H    -0.007066  0.002808 -0.010914
    15 H    -0.004826 -0.006913  0.009888
    16 H     0.006715 -0.003336  0.011157
    17 H     0.012684  0.004449  0.000624
    18 H    -0.026266  0.015021  0.005903
    19 Al   -0.002940 -0.024026 -0.003913
    20 F     0.023735 -0.007359 -0.051766
    21 F     0.024238 -0.045513  0.024472
    22 F    -0.045369 -0.029051 -0.014261
 ----------------------------------------
 Mulliken charges used for AMS results%charges...

 dE(predicted):    -0.32086E-01, dE(actual):    -0.30211E-01, Trust radius:    0.400000, all in a.u.
 
----------------------------------------------------------------------
Geometry Convergence after Step   2       (Hartree/Angstrom,Angstrom)
----------------------------------------------------------------------
current energy                               -4.87694224 Hartree
energy change                      -0.03021141     0.00022000    F
constrained gradient max            0.09394979     0.00100000    F
constrained gradient rms            0.02249817     0.00066667    F
gradient max                        0.09394979
gradient rms                        0.02249817
cart. step max                      0.21075963     0.01000000    F
cart. step rms                      0.06241371     0.00666667    F
 
 
--------
Geometry
--------
Formula: C9H8AlF3O
Atoms
  Index Symbol   x (angstrom)   y (angstrom)   z (angstrom)
      1      H    -0.60915721    -0.00716723    -0.11261890
      2      C    -0.16012948    -2.05158513    -0.52246327
      3      C     0.15613997    -0.76472145    -0.27285912
      4      C     1.54425130    -0.34083686    -0.19263875
      5      O     1.90598376     0.81674101     0.02551073
      6      H     0.63364783    -2.78577064    -0.66854757
      7      C    -4.20024643    -3.49108160    -0.76982661
      8      C    -3.39982051    -3.83568475     0.32090065
      9      C    -2.08323802    -3.38067667     0.39717292
     10      C    -1.57081711    -2.55250179    -0.60989454
     11      C    -2.37510564    -2.20530367    -1.70289090
     12      C    -3.68476619    -2.68106786    -1.78251392
     13      H    -3.79961531    -4.45875049     1.11304239
     14      H    -1.46534408    -3.65074746     1.24603375
     15      H    -1.98016628    -1.57074353    -2.48778338
     16      H    -4.30378078    -2.41117886    -2.63075546
     17      H    -5.22131097    -3.85101257    -0.82915700
     18      H     2.30448844    -1.11700483    -0.35110570
     19     Al     1.92733675     2.47765932     0.72563402
     20      F     1.00959917     2.19855742     2.08405644
     21      F     1.21225537     3.31953390    -0.51606560
     22      F     3.55809704     2.69104651     0.94825382
 
Total System Charge             0.00000
 
 *** GOStep3 ***

 Energy gradients wrt nuclear displacements
 ==========================================

     Atom      Cartesian (a.u./angstrom)
                 X         Y         Z
 ----------------------------------------
     1 H    -0.000999  0.000982  0.000040
     2 C     0.028477  0.010185  0.000574
     3 C    -0.013341 -0.014503  0.000065
     4 C     0.027135  0.006132  0.004897
     5 O    -0.009182  0.050711  0.016791
     6 H    -0.002713  0.001015 -0.004588
     7 C    -0.003714 -0.001635  0.000220
     8 C    -0.002719 -0.002888  0.003333
     9 C     0.004675  0.004330  0.003112
    10 C    -0.027065 -0.006870  0.001086
    11 C     0.006952 -0.000753 -0.002886
    12 C    -0.002660  0.001081 -0.004284
    13 H     0.000917  0.002070 -0.002921
    14 H    -0.002061  0.001127 -0.002684
    15 H    -0.001395 -0.001892  0.002318
    16 H     0.001569 -0.000890  0.003252
    17 H     0.003313  0.001257  0.000209
    18 H    -0.008535  0.002566  0.001211
    19 Al   -0.000698 -0.020265 -0.004131
    20 F     0.009948 -0.004398 -0.018167
    21 F     0.007245 -0.016365  0.008993
    22 F    -0.015150 -0.010997 -0.006439
 ----------------------------------------
 Mulliken charges used for AMS results%charges...

 dE(predicted):    -0.16251E-01, dE(actual):    -0.17640E-01, Trust radius:    0.400000, all in a.u.
 
----------------------------------------------------------------------
Geometry Convergence after Step   3       (Hartree/Angstrom,Angstrom)
----------------------------------------------------------------------
current energy                               -4.89458274 Hartree
energy change                      -0.01764050     0.00022000    F
constrained gradient max            0.05070693     0.00100000    F
constrained gradient rms            0.01090112     0.00066667    F
gradient max                        0.05070693
gradient rms                        0.01090112
cart. step max                      0.21134526     0.01000000    F
cart. step rms                      0.08863375     0.00666667    F
 
 
--------
Geometry
--------
Formula: C9H8AlF3O
Atoms
  Index Symbol   x (angstrom)   y (angstrom)   z (angstrom)
      1      H    -0.59381658     0.03342580    -0.16949684
      2      C    -0.19731677    -2.05231151    -0.45303928
      3      C     0.14727252    -0.75664282    -0.26330928
      4      C     1.53701821    -0.39302766    -0.16791113
      5      O     1.94534732     0.76091507     0.00957822
      6      H     0.59810441    -2.79842718    -0.53022044
      7      C    -4.19958200    -3.51831715    -0.78733291
      8      C    -3.37701720    -3.95338455     0.25257385
      9      C    -2.06947827    -3.48447887     0.35747776
     10      C    -1.58082747    -2.55118238    -0.56990081
     11      C    -2.41306673    -2.11160735    -1.61048248
     12      C    -3.71349697    -2.60234600    -1.71942164
     13      H    -3.75264818    -4.66408358     0.98601027
     14      H    -1.43190437    -3.83315795     1.16716915
     15      H    -2.03968657    -1.39533084    -2.33854509
     16      H    -4.34783434    -2.26450030    -2.53648013
     17      H    -5.21718510    -3.89435824    -0.87138503
     18      H     2.28491769    -1.20480868    -0.24245472
     19     Al     1.96001094     2.50556817     0.63041647
     20      F     0.87679300     2.40371267     1.91121381
     21      F     1.42360063     3.36817185    -0.70536478
     22      F     3.55909749     2.75387430     1.06238905
 
Total System Charge             0.00000
 
 *** GOStep4 ***

 Energy gradients wrt nuclear displacements
 ==========================================

     Atom      Cartesian (a.u./angstrom)
                 X         Y         Z
 ----------------------------------------
     1 H     0.000100  0.000195 -0.000469
     2 C     0.009601  0.004151  0.000676
     3 C    -0.004696 -0.001909  0.006417
     4 C     0.008415  0.000688 -0.002799
     5 O    -0.011685  0.021420  0.005646
     6 H    -0.000371 -0.000152 -0.006960
     7 C     0.001948  0.000575  0.000303
     8 C    -0.000798  0.000955 -0.003087
     9 C     0.000037  0.007768  0.002139
    10 C    -0.010311 -0.003942  0.000551
    11 C     0.005076 -0.005032 -0.001232
    12 C    -0.000143 -0.001343  0.002422
    13 H    -0.000345 -0.001026  0.000737
    14 H     0.000553 -0.000519  0.000898
    15 H     0.000091  0.001137 -0.000847
    16 H    -0.000823  0.000375 -0.000936
    17 H    -0.001229 -0.000389 -0.000087
    18 H     0.000828 -0.002516  0.002367
    19 Al    0.002368 -0.020926 -0.004856
    20 F     0.000724  0.000168 -0.000688
    21 F     0.000112  0.000307 -0.000000
    22 F     0.000549  0.000018 -0.000197
 ----------------------------------------
 Mulliken charges used for AMS results%charges...

 dE(predicted):    -0.54374E-02, dE(actual):    -0.62146E-02, Trust radius:    0.800000, all in a.u.
 
----------------------------------------------------------------------
Geometry Convergence after Step   4       (Hartree/Angstrom,Angstrom)
----------------------------------------------------------------------
current energy                               -4.90079737 Hartree
energy change                      -0.00621463     0.00022000    F
constrained gradient max            0.02141730     0.00100000    F
constrained gradient rms            0.00505170     0.00066667    F
gradient max                        0.02141730
gradient rms                        0.00505170
cart. step max                      0.19744201     0.01000000    F
cart. step rms                      0.08293330     0.00666667    F
 
 
--------
Geometry
--------
Formula: C9H8AlF3O
Atoms
  Index Symbol   x (angstrom)   y (angstrom)   z (angstrom)
      1      H    -0.57433365     0.04073819    -0.20960948
      2      C    -0.20676547    -2.06455247    -0.39083250
      3      C     0.15400195    -0.76539526    -0.24172767
      4      C     1.54162842    -0.42821145    -0.09811630
      5      O     1.97178615     0.72674827     0.02813715
      6      H     0.58425244    -2.82012216    -0.39716544
      7      C    -4.19896676    -3.51686071    -0.80186832
      8      C    -3.35537057    -4.04647472     0.17569231
      9      C    -2.04711471    -3.58675653     0.29804200
     10      C    -1.57982258    -2.55750225    -0.53666659
     11      C    -2.43619044    -2.02305621    -1.51325603
     12      C    -3.73387055    -2.51212913    -1.64933853
     13      H    -3.71467919    -4.82687329     0.84496469
     14      H    -1.39272445    -4.01046616     1.05823966
     15      H    -2.07948490    -1.23615981    -2.17490770
     16      H    -4.38428481    -2.10010517    -2.41954817
     17      H    -5.21711326    -3.88944439    -0.90396026
     18      H     2.28052038    -1.25405134    -0.12137929
     19     Al     1.95818628     2.53038024     0.53494418
     20      F     0.75232627     2.54689462     1.71377180
     21      F     1.56648835     3.32619911    -0.89572286
     22      F     3.50983273     2.81490341     1.11179138
 
Total System Charge             0.00000
 
 *** GOStep5 ***

 Energy gradients wrt nuclear displacements
 ==========================================

     Atom      Cartesian (a.u./angstrom)
                 X         Y         Z
 ----------------------------------------
     1 H     0.000107 -0.000203 -0.000635
     2 C     0.004925  0.004236 -0.001426
     3 C    -0.002522  0.001004  0.004330
     4 C     0.003512 -0.001887  0.005575
     5 O    -0.012914  0.011274 -0.001508
     6 H     0.001226 -0.000674 -0.007413
     7 C     0.003079  0.001197  0.000007
     8 C    -0.000856  0.002921 -0.004035
     9 C    -0.000607  0.007102  0.001402
    10 C    -0.007436 -0.003000  0.002520
    11 C     0.005613 -0.005537 -0.001134
    12 C     0.000177 -0.003852  0.003520
    13 H    -0.000555 -0.001741  0.001613
    14 H     0.000981 -0.000836  0.001774
    15 H     0.000534  0.002165 -0.001186
    16 H    -0.001376  0.001196 -0.001623
    17 H    -0.002203 -0.000726 -0.000190
    18 H     0.003459 -0.003342 -0.000250
    19 Al    0.003958 -0.019918 -0.003751
    20 F    -0.002723  0.002094  0.003565
    21 F    -0.001064  0.005052 -0.003439
    22 F     0.004685  0.003475  0.002285
 ----------------------------------------
 Mulliken charges used for AMS results%charges...

 dE(predicted):    -0.44543E-02, dE(actual):    -0.27716E-02, Trust radius:    0.800000, all in a.u.
 
----------------------------------------------------------------------
Geometry Convergence after Step   5       (Hartree/Angstrom,Angstrom)
----------------------------------------------------------------------
current energy                               -4.90356898 Hartree
energy change                      -0.00277162     0.00022000    F
constrained gradient max            0.01992614     0.00100000    F
constrained gradient rms            0.00444125     0.00066667    F
gradient max                        0.01992614
gradient rms                        0.00444125
cart. step max                      0.19910232     0.01000000    F
cart. step rms                      0.07040934     0.00666667    F
 
 
--------
Geometry
--------
Formula: C9H8AlF3O
Atoms
  Index Symbol   x (angstrom)   y (angstrom)   z (angstrom)
      1      H    -0.54908519     0.04595348    -0.25144994
      2      C    -0.21275747    -2.07280459    -0.33717833
      3      C     0.16594546    -0.77207424    -0.23063061
      4      C     1.55179176    -0.45220368    -0.06052548
      5      O     2.00059014     0.70018739     0.03839352
      6      H     0.56986218    -2.83527142    -0.28304022
      7      C    -4.19732199    -3.51101749    -0.80903231
      8      C    -3.33492524    -4.11416132     0.10832263
      9      C    -2.02734888    -3.65916955     0.24451958
     10      C    -1.57781075    -2.55883601    -0.50819772
     11      C    -2.45536281    -1.95284097    -1.42487279
     12      C    -3.75145337    -2.43781320    -1.58021113
     13      H    -3.67904739    -4.94925157     0.71710640
     14      H    -1.35763432    -4.14077816     0.95567948
     15      H    -2.11288458    -1.11435182    -2.02823562
     16      H    -4.41567255    -1.97041217    -2.30597560
     17      H    -5.21494521    -3.88133137    -0.92553698
     18      H     2.27755495    -1.28944165    -0.01454832
     19     Al     1.94872296     2.54302903     0.45843574
     20      F     0.63233691     2.62723123     1.51466948
     21      F     1.70058287     3.27759954    -1.03875319
     22      F     3.43716415     2.86546133     1.17254542
 
Total System Charge             0.00000
 
 *** GOStep6 ***

 Energy gradients wrt nuclear displacements
 ==========================================

     Atom      Cartesian (a.u./angstrom)
                 X         Y         Z
 ----------------------------------------
     1 H    -0.000104 -0.000499 -0.000590
     2 C     0.001157  0.003041 -0.001166
     3 C    -0.001034  0.002452  0.005117
     4 C     0.001905 -0.002726  0.000909
     5 O    -0.013588  0.004653 -0.002713
     6 H     0.002126 -0.000911 -0.006927
     7 C     0.003121  0.001667 -0.000331
     8 C    -0.000497  0.003693 -0.003603
     9 C    -0.000997  0.005996  0.001526
    10 C    -0.004621 -0.001978  0.002396
    11 C     0.005186 -0.005202 -0.001522
    12 C    -0.000123 -0.004700  0.003520
    13 H    -0.000472 -0.001992  0.001806
    14 H     0.001061 -0.001119  0.001884
    15 H     0.000801  0.002513 -0.000964
    16 H    -0.001417  0.001508 -0.001756
    17 H    -0.002351 -0.000822 -0.000254
    18 H     0.004160 -0.003708  0.001679
    19 Al    0.005393 -0.017852 -0.002250
    20 F    -0.005113  0.003361  0.005207
    21 F    -0.001096  0.007107 -0.005873
    22 F     0.006504  0.005519  0.003906
 ----------------------------------------
 Mulliken charges used for AMS results%charges...

 dE(predicted):    -0.58944E-02, dE(actual):    -0.22522E-02, Trust radius:    0.800000, all in a.u.
 
----------------------------------------------------------------------
Geometry Convergence after Step   6       (Hartree/Angstrom,Angstrom)
----------------------------------------------------------------------
current energy                               -4.90582117 Hartree
energy change                      -0.00225219     0.00022000    F
constrained gradient max            0.01785400     0.00100000    F
constrained gradient rms            0.00423837     0.00066667    F
gradient max                        0.01785400
gradient rms                        0.00423837
cart. step max                      0.20081933     0.01000000    F
cart. step rms                      0.06403372     0.00666667    F
 
 
--------
Geometry
--------
Formula: C9H8AlF3O
Atoms
  Index Symbol   x (angstrom)   y (angstrom)   z (angstrom)
      1      H    -0.51865228     0.04959952    -0.27873054
      2      C    -0.21553156    -2.07775078    -0.29378426
      3      C     0.18201215    -0.77837819    -0.21448376
      4      C     1.56495563    -0.47312858    -0.01052723
      5      O     2.03206331     0.67545535     0.06020711
      6      H     0.55530079    -2.84643703    -0.18935030
      7      C    -4.19490504    -3.50223428    -0.81308056
      8      C    -3.31397017    -4.16591276     0.04361934
      9      C    -2.00789913    -3.71237378     0.19079862
     10      C    -1.57504830    -2.55534535    -0.48625803
     11      C    -2.47327716    -1.89198039    -1.34425508
     12      C    -3.76817143    -2.37264388    -1.51280941
     13      H    -3.64302326    -5.04600118     0.59387889
     14      H    -1.32306052    -4.24022394     0.85268188
     15      H    -2.14505094    -1.01286457    -1.89456903
     16      H    -4.44635678    -1.86067943    -2.19364630
     17      H    -5.21168822    -3.87046415    -0.94025844
     18      H     2.27691232    -1.31787224     0.07911589
     19     Al     1.93301163     2.54880954     0.38830471
     20      F     0.52305762     2.67225186     1.31385015
     21      F     1.81993248     3.20814568    -1.15991851
     22      F     3.34769052     2.91773136     1.22069886
 
Total System Charge             0.00000
 
 *** GOStep7 ***

 Energy gradients wrt nuclear displacements
 ==========================================

     Atom      Cartesian (a.u./angstrom)
                 X         Y         Z
 ----------------------------------------
     1 H    -0.000294 -0.000581 -0.000603
     2 C    -0.001756  0.000913 -0.002002
     3 C     0.000579  0.003394  0.003631
     4 C     0.001531 -0.003373  0.003599
     5 O    -0.013838  0.000482 -0.004983
     6 H     0.002353 -0.000846 -0.006066
     7 C     0.002562  0.001853 -0.000427
     8 C     0.000134  0.003140 -0.002494
     9 C    -0.001596  0.004406  0.002080
    10 C    -0.001544 -0.000806  0.002731
    11 C     0.003852 -0.004088 -0.002125
    12 C    -0.000371 -0.004341  0.002550
    13 H    -0.000291 -0.001800  0.001514
    14 H     0.000868 -0.001129  0.001512
    15 H     0.000899  0.002173 -0.000558
    16 H    -0.001116  0.001404 -0.001494
    17 H    -0.001939 -0.000727 -0.000230
    18 H     0.003900 -0.003249  0.001123
    19 Al    0.006220 -0.013707 -0.000411
    20 F    -0.006214  0.003510  0.005108
    21 F    -0.000587  0.007194 -0.007058
    22 F     0.006651  0.006177  0.004602
 ----------------------------------------
 Mulliken charges used for AMS results%charges...

 dE(predicted):    -0.54314E-02, dE(actual):    -0.19361E-02, Trust radius:    0.800000, all in a.u.
 
----------------------------------------------------------------------
Geometry Convergence after Step   7       (Hartree/Angstrom,Angstrom)
----------------------------------------------------------------------
current energy                               -4.90775725 Hartree
energy change                      -0.00193608     0.00022000    F
constrained gradient max            0.01383169     0.00100000    F
constrained gradient rms            0.00390510     0.00066667    F
gradient max                        0.01383169
gradient rms                        0.00390510
cart. step max                      0.20280704     0.01000000    F
cart. step rms                      0.05821270     0.00666667    F
 
 
--------
Geometry
--------
Formula: C9H8AlF3O
Atoms
  Index Symbol   x (angstrom)   y (angstrom)   z (angstrom)
      1      H    -0.48295822     0.05473098    -0.29328805
      2      C    -0.21547229    -2.07877444    -0.25592817
      3      C     0.20227848    -0.78288478    -0.19719846
      4      C     1.58411454    -0.49251084     0.02788426
      5      O     2.06952435     0.65049491     0.08081706
      6      H     0.54271496    -2.85353822    -0.11552519
      7      C    -4.19118049    -3.49070869    -0.81481614
      8      C    -3.29410984    -4.20166634    -0.01400809
      9      C    -1.98933015    -3.74884988     0.14143660
     10      C    -1.57112693    -2.54703491    -0.46670015
     11      C    -2.48771281    -1.83900696    -1.27086023
     12      C    -3.78129951    -2.31625170    -1.44972308
     13      H    -3.61012027    -5.11649054     0.48354597
     14      H    -1.29143528    -4.31171910     0.75861950
     15      H    -2.17337642    -0.92710792    -1.77247479
     16      H    -4.47252823    -1.76851005    -2.08727316
     17      H    -5.20720612    -3.85670941    -0.95002957
     18      H     2.27996671    -1.34397724     0.15724031
     19     Al     1.90849073     2.54429928     0.32510306
     20      F     0.41663261     2.67295177     1.11104311
     21      F     1.92744560     3.13386954    -1.25404281
     22      F     3.23499020     2.96709734     1.26766205
 
Total System Charge             0.00000
 
 *** GOStep8 ***

 Energy gradients wrt nuclear displacements
 ==========================================

     Atom      Cartesian (a.u./angstrom)
                 X         Y         Z
 ----------------------------------------
     1 H    -0.000465 -0.000677 -0.000589
     2 C    -0.004396 -0.001189 -0.001846
     3 C     0.002040  0.003747  0.003142
     4 C     0.002555 -0.003598  0.002816
     5 O    -0.014083 -0.002792 -0.005716
     6 H     0.002216 -0.000506 -0.005253
     7 C     0.001741  0.001576 -0.000539
     8 C     0.000536  0.002318 -0.001084
     9 C    -0.001803  0.002351  0.001952
    10 C     0.001642  0.000800  0.002821
    11 C     0.002116 -0.003028 -0.002762
    12 C    -0.000369 -0.003185  0.001404
    13 H    -0.000134 -0.001283  0.001118
    14 H     0.000544 -0.000838  0.001074
    15 H     0.000854  0.001559 -0.000176
    16 H    -0.000734  0.001144 -0.000980
    17 H    -0.001316 -0.000540 -0.000160
    18 H     0.002943 -0.002426  0.001633
    19 Al    0.006462 -0.008935  0.001529
    20 F    -0.006250  0.003135  0.004249
    21 F     0.000061  0.006237 -0.007245
    22 F     0.005842  0.006131  0.004612
 ----------------------------------------
 Mulliken charges used for AMS results%charges...

 dE(predicted):    -0.55386E-02, dE(actual):    -0.17401E-02, Trust radius:    0.800000, all in a.u.
 
----------------------------------------------------------------------
Geometry Convergence after Step   8       (Hartree/Angstrom,Angstrom)
----------------------------------------------------------------------
current energy                               -4.90949730 Hartree
energy change                      -0.00174005     0.00022000    F
constrained gradient max            0.01407957     0.00100000    F
constrained gradient rms            0.00354166     0.00066667    F
gradient max                        0.01407957
gradient rms                        0.00354166
cart. step max                      0.20668117     0.01000000    F
cart. step rms                      0.05613917     0.00666667    F
 
 
--------
Geometry
--------
Formula: C9H8AlF3O
Atoms
  Index Symbol   x (angstrom)   y (angstrom)   z (angstrom)
      1      H    -0.44309847     0.06144774    -0.29351657
      2      C    -0.21217285    -2.07712398    -0.22221000
      3      C     0.22615842    -0.78614977    -0.17553963
      4      C     1.60792110    -0.51160253     0.06635140
      5      O     2.11253127     0.62472070     0.10542663
      6      H     0.53291126    -2.85877754    -0.05650844
      7      C    -4.18621553    -3.47529887    -0.81577242
      8      C    -3.27483921    -4.22599273    -0.06867006
      9      C    -1.97193796    -3.77244039     0.09675360
     10      C    -1.56598881    -2.53464973    -0.44757273
     11      C    -2.49903940    -1.78901604    -1.19997805
     12      C    -3.79137241    -2.26300219    -1.38821400
     13      H    -3.57902140    -5.17004788     0.37745989
     14      H    -1.26224551    -4.36458826     0.67065269
     15      H    -2.19769620    -0.84968720    -1.65513844
     16      H    -4.49397036    -1.68586212    -1.98489877
     17      H    -5.20108975    -3.83950783    -0.95947668
     18      H     2.28744893    -1.36974845     0.22278530
     19     Al     1.87486522     2.53026657     0.26267695
     20      F     0.31462553     2.63520688     0.90436194
     21      F     2.02091224     3.05324496    -1.33119866
     22      F     3.09961550     3.01631144     1.30371007
 
Total System Charge             0.00000
 
 *** GOStep9 ***

 Energy gradients wrt nuclear displacements
 ==========================================

     Atom      Cartesian (a.u./angstrom)
                 X         Y         Z
 ----------------------------------------
     1 H    -0.000585 -0.000435 -0.000470
     2 C    -0.006565 -0.003102 -0.001932
     3 C     0.003453  0.003676  0.002533
     4 C     0.003887 -0.003581  0.003344
     5 O    -0.013690 -0.005201 -0.006310
     6 H     0.001885 -0.000053 -0.004490
     7 C     0.000695  0.001219 -0.000446
     8 C     0.000948  0.000952 -0.000027
     9 C    -0.002098  0.000735  0.002336
    10 C     0.004687  0.002094  0.002734
    11 C     0.000229 -0.001917 -0.003215
    12 C    -0.000274 -0.001575  0.000377
    13 H     0.000019 -0.000627  0.000643
    14 H     0.000205 -0.000479  0.000523
    15 H     0.000701  0.000754  0.000134
    16 H    -0.000229  0.000653 -0.000531
    17 H    -0.000573 -0.000311 -0.000084
    18 H     0.001764 -0.001429  0.001580
    19 Al    0.005837 -0.003563  0.002662
    20 F    -0.005409  0.002059  0.003083
    21 F     0.000628  0.004746 -0.006457
    22 F     0.004484  0.005385  0.004011
 ----------------------------------------
 Mulliken charges used for AMS results%charges...

 dE(predicted):    -0.57447E-02, dE(actual):    -0.16268E-02, Trust radius:    0.800000, all in a.u.
 
----------------------------------------------------------------------
Geometry Convergence after Step   9       (Hartree/Angstrom,Angstrom)
----------------------------------------------------------------------
current energy                               -4.91112407 Hartree
energy change                      -0.00162677     0.00022000    F
constrained gradient max            0.01368820     0.00100000    F
constrained gradient rms            0.00327774     0.00066667    F
gradient max                        0.01368820
gradient rms                        0.00327774
cart. step max                      0.21037591     0.01000000    F
cart. step rms                      0.05486788     0.00666667    F
 
 
--------
Geometry
--------
Formula: C9H8AlF3O
Atoms
  Index Symbol   x (angstrom)   y (angstrom)   z (angstrom)
      1      H    -0.40434595     0.06982263    -0.28869431
      2      C    -0.20703650    -2.07267227    -0.19272292
      3      C     0.24956893    -0.78693713    -0.15361157
      4      C     1.63159501    -0.52848567     0.10357817
      5      O     2.15668739     0.60008309     0.13616336
      6      H     0.52601703    -2.86089958    -0.00847378
      7      C    -4.18027144    -3.45864491    -0.81596553
      8      C    -3.25552664    -4.24245747    -0.12093188
      9      C    -1.95407765    -3.78849750     0.05281331
     10      C    -1.56009697    -2.52055101    -0.43019259
     11      C    -2.50822485    -1.74309499    -1.13206178
     12      C    -3.79952379    -2.21435392    -1.32817270
     13      H    -3.54889414    -5.21046788     0.27710350
     14      H    -1.23366968    -4.40444090     0.58607391
     15      H    -2.21987061    -0.77963924    -1.54138788
     16      H    -4.51347584    -1.61161415    -1.88359727
     17      H    -5.19448922    -3.82064782    -0.96616799
     18      H     2.29415425    -1.39376054     0.28217533
     19     Al     1.83782155     2.50822859     0.20175304
     20      F     0.22325825     2.57351326     0.69398603
     21      F     2.11129006     2.97217578    -1.39115880
     22      F     2.94741245     3.06104442     1.33097635
 
Total System Charge             0.00000
 
 *** GOStep10 ***

 Energy gradients wrt nuclear displacements
 ==========================================

     Atom      Cartesian (a.u./angstrom)
                 X         Y         Z
 ----------------------------------------
     1 H    -0.000633 -0.000364 -0.000398
     2 C    -0.007787 -0.004020 -0.001952
     3 C     0.004072  0.003004  0.002187
     4 C     0.004742 -0.003291  0.003259
     5 O    -0.011877 -0.006863 -0.006227
     6 H     0.001536  0.000310 -0.003809
     7 C    -0.000114  0.000696 -0.000442
     8 C     0.001130 -0.000086  0.000771
     9 C    -0.002127 -0.000739  0.002019
    10 C     0.006499  0.003043  0.002848
    11 C    -0.001153 -0.001071 -0.003388
    12 C    -0.000124 -0.000217 -0.000332
    13 H     0.000083 -0.000021  0.000332
    14 H    -0.000085 -0.000085  0.000189
    15 H     0.000532  0.000042  0.000282
    16 H     0.000134  0.000222 -0.000121
    17 H     0.000007 -0.000119  0.000003
    18 H     0.000673 -0.000495  0.001570
    19 Al    0.004396  0.001634  0.003285
    20 F    -0.003932  0.001045  0.002044
    21 F     0.001020  0.003139 -0.005090
    22 F     0.003009  0.004238  0.002969
 ----------------------------------------
 Mulliken charges used for AMS results%charges...

 dE(predicted):    -0.52840E-02, dE(actual):    -0.14901E-02, Trust radius:    0.800000, all in a.u.
 
----------------------------------------------------------------------
Geometry Convergence after Step  10       (Hartree/Angstrom,Angstrom)
----------------------------------------------------------------------
current energy                               -4.91261416 Hartree
energy change                      -0.00149009     0.00022000    F
constrained gradient max            0.01187432     0.00100000    F
constrained gradient rms            0.00305238     0.00066667    F
gradient max                        0.01187432
gradient rms                        0.00305238
cart. step max                      0.21509375     0.01000000    F
cart. step rms                      0.05545898     0.00666667    F
 
 
--------
Geometry
--------
Formula: C9H8AlF3O
Atoms
  Index Symbol   x (angstrom)   y (angstrom)   z (angstrom)
      1      H    -0.36719231     0.07741530    -0.27688742
      2      C    -0.19908093    -2.06825284    -0.16475486
      3      C     0.27280502    -0.78752941    -0.12932239
      4      C     1.65460569    -0.54412257     0.14258552
      5      O     2.19766845     0.57729290     0.17338877
      6      H     0.52302203    -2.86286975     0.03299081
      7      C    -4.17316031    -3.43809180    -0.81586355
      8      C    -3.23656148    -4.25234553    -0.17370913
      9      C    -1.93623970    -3.79931598     0.00983422
     10      C    -1.55227785    -2.50634841    -0.41305257
     11      C    -2.51342903    -1.69909542    -1.06325427
     12      C    -3.80448751    -2.16607464    -1.26686679
     13      H    -3.52049052    -5.24139480     0.17533390
     14      H    -1.20627292    -4.43730852     0.50200523
     15      H    -2.23652068    -0.71414964    -1.42547181
     16      H    -4.52846493    -1.53975909    -1.78091308
     17      H    -5.18710628    -3.79691670    -0.97303649
     18      H     2.30210415    -1.41577724     0.33785949
     19     Al     1.79564903     2.47796005     0.13851452
     20      F     0.14210976     2.49012012     0.47889228
     21      F     2.19438772     2.89111612    -1.43946020
     22      F     2.77723422     3.10315064     1.34267183
 
Total System Charge             0.00000
 
 *** GOStep11 ***

 Energy gradients wrt nuclear displacements
 ==========================================

     Atom      Cartesian (a.u./angstrom)
                 X         Y         Z
 ----------------------------------------
     1 H    -0.000725 -0.000141 -0.000245
     2 C    -0.008211 -0.004190 -0.001996
     3 C     0.004288  0.002495  0.001817
     4 C     0.005297 -0.002363  0.003271
     5 O    -0.009504 -0.008809 -0.005503
     6 H     0.001241  0.000575 -0.003156
     7 C    -0.000703  0.000323 -0.000323
     8 C     0.001285 -0.000868  0.001053
     9 C    -0.002106 -0.001558  0.001995
    10 C     0.007447  0.003401  0.002517
    11 C    -0.002022 -0.000424 -0.003189
    12 C    -0.000014  0.000862 -0.000607
    13 H     0.000126  0.000406  0.000100
    14 H    -0.000244  0.000197 -0.000073
    15 H     0.000397 -0.000444  0.000301
    16 H     0.000407 -0.000152  0.000063
    17 H     0.000417  0.000021  0.000038
    18 H    -0.000116  0.000187  0.001357
    19 Al    0.001963  0.005643  0.003164
    20 F    -0.002243  0.000022  0.001208
    21 F     0.001196  0.001852 -0.003607
    22 F     0.001822  0.002965  0.001813
 ----------------------------------------
 Mulliken charges used for AMS results%charges...

 dE(predicted):    -0.47254E-02, dE(actual):    -0.12689E-02, Trust radius:    0.800000, all in a.u.
 
----------------------------------------------------------------------
Geometry Convergence after Step  11       (Hartree/Angstrom,Angstrom)
----------------------------------------------------------------------
current energy                               -4.91388311 Hartree
energy change                      -0.00126895     0.00022000    F
constrained gradient max            0.00949987     0.00100000    F
constrained gradient rms            0.00292404     0.00066667    F
gradient max                        0.00949987
gradient rms                        0.00292404
cart. step max                      0.21822368     0.01000000    F
cart. step rms                      0.05576583     0.00666667    F
 
 
--------
Geometry
--------
Formula: C9H8AlF3O
Atoms
  Index Symbol   x (angstrom)   y (angstrom)   z (angstrom)
      1      H    -0.34324829     0.08666600    -0.25572714
      2      C    -0.19659649    -2.06136871    -0.12926235
      3      C     0.28522821    -0.78416685    -0.09592772
      4      C     1.66657152    -0.55319339     0.18740776
      5      O     2.22742683     0.56132669     0.21606444
      6      H     0.51742581    -2.86051317     0.07887894
      7      C    -4.16566088    -3.42520174    -0.82288123
      8      C    -3.21643362    -4.26627946    -0.23670126
      9      C    -1.91916861    -3.81130773    -0.03674132
     10      C    -1.54892512    -2.49357094    -0.39023242
     11      C    -2.52312884    -1.65963121    -0.98568776
     12      C    -3.81202302    -2.12566203    -1.20275123
     13      H    -3.48850533    -5.27654745     0.05634387
     14      H    -1.17909301    -4.46914677     0.41230192
     15      H    -2.25993934    -0.65245976    -1.29250665
     16      H    -4.54707141    -1.47721578    -1.67154305
     17      H    -5.17812936    -3.78315336    -0.99110978
     18      H     2.30135146    -1.43080887     0.39491447
     19     Al     1.76987711     2.44925312     0.06909731
     20      F     0.09293192     2.42400426     0.26066860
     21      F     2.29258605     2.81279745    -1.48296190
     22      F     2.62282603     3.14388250     1.32984051
 
Total System Charge             0.00000
 
 *** GOStep12 ***

 Energy gradients wrt nuclear displacements
 ==========================================

     Atom      Cartesian (a.u./angstrom)
                 X         Y         Z
 ----------------------------------------
     1 H    -0.000771  0.000148 -0.000039
     2 C    -0.007740 -0.003581 -0.001912
     3 C     0.003846  0.001985  0.001412
     4 C     0.004060 -0.001576  0.003176
     5 O    -0.005896 -0.009675 -0.003968
     6 H     0.001064  0.000592 -0.002521
     7 C    -0.000779  0.000141 -0.000239
     8 C     0.001167 -0.000884  0.001003
     9 C    -0.001859 -0.001762  0.001540
    10 C     0.007013  0.003322  0.002367
    11 C    -0.002076 -0.000248 -0.002736
    12 C     0.000117  0.001015 -0.000586
    13 H     0.000078  0.000456  0.000038
    14 H    -0.000202  0.000246 -0.000141
    15 H     0.000400 -0.000501  0.000214
    16 H     0.000375 -0.000241  0.000134
    17 H     0.000425  0.000050  0.000062
    18 H    -0.000295  0.000354  0.000880
    19 Al   -0.000137  0.007685  0.002284
    20 F    -0.001080 -0.000817  0.000652
    21 F     0.001180  0.001245 -0.002546
    22 F     0.001108  0.002046  0.000924
 ----------------------------------------
 Mulliken charges used for AMS results%charges...

 dE(predicted):    -0.27621E-02, dE(actual):    -0.93364E-03, Trust radius:    0.800000, all in a.u.
 
----------------------------------------------------------------------
Geometry Convergence after Step  12       (Hartree/Angstrom,Angstrom)
----------------------------------------------------------------------
current energy                               -4.91481676 Hartree
energy change                      -0.00093364     0.00022000    F
constrained gradient max            0.00967671     0.00100000    F
constrained gradient rms            0.00262555     0.00066667    F
gradient max                        0.00967671
gradient rms                        0.00262555
cart. step max                      0.21449537     0.01000000    F
cart. step rms                      0.05537532     0.00666667    F
 
 
--------
Geometry
--------
Formula: C9H8AlF3O
Atoms
  Index Symbol   x (angstrom)   y (angstrom)   z (angstrom)
      1      H    -0.33083295     0.09456480    -0.24431397
      2      C    -0.19843591    -2.05414625    -0.09268252
      3      C     0.28791702    -0.77876179    -0.06459696
      4      C     1.66665761    -0.55525281     0.23468549
      5      O     2.24294510     0.55331208     0.26275648
      6      H     0.50899292    -2.85513647     0.13077345
      7      C    -4.15898623    -3.41971890    -0.83344185
      8      C    -3.19537853    -4.28300599    -0.30687986
      9      C    -1.90269469    -3.82401317    -0.08620787
     10      C    -1.54932196    -2.48457805    -0.36654129
     11      C    -2.53801131    -1.62776977    -0.90241350
     12      C    -3.82376455    -2.09492192    -1.13466505
     13      H    -3.45305953    -5.31281692    -0.07436203
     14      H    -1.15157042    -4.49824470     0.31846265
     15      H    -2.29125917    -0.59968034    -1.14794141
     16      H    -4.57128912    -1.42741827    -1.55496014
     17      H    -5.16906998    -3.77859624    -1.01489149
     18      H     2.29024898    -1.43697301     0.45858125
     19     Al     1.76205545     2.42513735    -0.00036021
     20      F     0.07479276     2.38504055     0.04617322
     21      F     2.40680086     2.73831077    -1.51584275
     22      F     2.49156526     3.18237185     1.30015238
 
Total System Charge             0.00000
 
 *** GOStep13 ***

 Energy gradients wrt nuclear displacements
 ==========================================

     Atom      Cartesian (a.u./angstrom)
                 X         Y         Z
 ----------------------------------------
     1 H    -0.000627  0.000141  0.000123
     2 C    -0.005735 -0.002210 -0.002134
     3 C     0.002501  0.001295  0.001068
     4 C     0.001521 -0.000775  0.002503
     5 O    -0.001751 -0.009657 -0.001735
     6 H     0.000926  0.000351 -0.001679
     7 C    -0.000405  0.000148 -0.000226
     8 C     0.000899 -0.000352  0.000499
     9 C    -0.001484 -0.001240  0.001180
    10 C     0.005267  0.002490  0.001887
    11 C    -0.001439 -0.000281 -0.001896
    12 C     0.000127  0.000491 -0.000069
    13 H     0.000000  0.000226  0.000063
    14 H    -0.000002  0.000138 -0.000051
    15 H     0.000485 -0.000174  0.000123
    16 H     0.000187 -0.000118 -0.000005
    17 H     0.000170  0.000015  0.000047
    18 H    -0.000020  0.000179  0.000455
    19 Al   -0.001617  0.007605  0.001027
    20 F    -0.000567 -0.000830  0.000260
    21 F     0.000933  0.001067 -0.001720
    22 F     0.000632  0.001493  0.000280
 ----------------------------------------
 Mulliken charges used for AMS results%charges...

 dE(predicted):    -0.11519E-02, dE(actual):    -0.61119E-03, Trust radius:    0.800000, all in a.u.
 
----------------------------------------------------------------------
Geometry Convergence after Step  13       (Hartree/Angstrom,Angstrom)
----------------------------------------------------------------------
current energy                               -4.91542794 Hartree
energy change                      -0.00061119     0.00022000    F
constrained gradient max            0.00965861     0.00100000    F
constrained gradient rms            0.00207846     0.00066667    F
gradient max                        0.00965861
gradient rms                        0.00207846
cart. step max                      0.21228356     0.01000000    F
cart. step rms                      0.05764592     0.00666667    F
 
 
--------
Geometry
--------
Formula: C9H8AlF3O
Atoms
  Index Symbol   x (angstrom)   y (angstrom)   z (angstrom)
      1      H    -0.32756629     0.10661399    -0.24682378
      2      C    -0.21008023    -2.04072810    -0.04424323
      3      C     0.27985822    -0.76676713    -0.03510191
      4      C     1.65599209    -0.54908743     0.27860887
      5      O     2.24926692     0.55257128     0.30647233
      6      H     0.49057224    -2.84079834     0.20322648
      7      C    -4.15306803    -3.42602624    -0.85057142
      8      C    -3.17133578    -4.30368958    -0.38641582
      9      C    -1.88656962    -3.83531593    -0.13833962
     10      C    -1.55814613    -2.47565209    -0.33530193
     11      C    -2.56444389    -1.60367418    -0.80918334
     12      C    -3.84318242    -2.07842711    -1.06450121
     13      H    -3.40841873    -5.35186137    -0.22231330
     14      H    -1.12158445    -4.52060159     0.21997796
     15      H    -2.34104650    -0.55585914    -0.98479826
     16      H    -4.60662595    -1.39740332    -1.43217376
     17      H    -5.15805277    -3.79039078    -1.05060466
     18      H     2.26800613    -1.43519553     0.51866520
     19     Al     1.77797829     2.40557117    -0.06973995
     20      F     0.09201182     2.37399836    -0.16611033
     21      F     2.54249013     2.66583784    -1.53758621
     22      F     2.39224660     3.21458801     1.25834192
 
Total System Charge             0.00000
 
 *** GOStep14 ***

 Energy gradients wrt nuclear displacements
 ==========================================

     Atom      Cartesian (a.u./angstrom)
                 X         Y         Z
 ----------------------------------------
     1 H    -0.000117 -0.000050  0.000248
     2 C    -0.001973 -0.000156 -0.000765
     3 C     0.000477  0.000217  0.000486
     4 C    -0.002041 -0.000089  0.000683
     5 O     0.002831 -0.007974  0.001409
     6 H     0.000662 -0.000146 -0.000836
     7 C     0.000097  0.000281  0.000194
     8 C     0.000105  0.000627  0.000140
     9 C    -0.000742 -0.000156  0.000238
    10 C     0.001626  0.000711  0.000913
    11 C    -0.000216 -0.000494 -0.000822
    12 C     0.000380 -0.000717 -0.000122
    13 H    -0.000101 -0.000255  0.000051
    14 H     0.000265 -0.000113  0.000083
    15 H     0.000392  0.000270 -0.000036
    16 H    -0.000200  0.000167 -0.000010
    17 H    -0.000245 -0.000130 -0.000077
    18 H     0.000559 -0.000256 -0.000104
    19 Al   -0.001716  0.006102 -0.000381
    20 F    -0.000593  0.000021 -0.000117
    21 F     0.000372  0.001134 -0.000917
    22 F     0.000178  0.001007 -0.000258
 ----------------------------------------
 Mulliken charges used for AMS results%charges...

 dE(predicted):    -0.42757E-03, dE(actual):    -0.39442E-03, Trust radius:    0.800000, all in a.u.
 
----------------------------------------------------------------------
Geometry Convergence after Step  14       (Hartree/Angstrom,Angstrom)
----------------------------------------------------------------------
current energy                               -4.91582237 Hartree
energy change                      -0.00039442     0.00022000    F
constrained gradient max            0.00797677     0.00100000    F
constrained gradient rms            0.00143695     0.00066667    F
gradient max                        0.00797677
gradient rms                        0.00143695
cart. step max                      0.16904344     0.01000000    F
cart. step rms                      0.04899286     0.00666667    F
 
 
--------
Geometry
--------
Formula: C9H8AlF3O
Atoms
  Index Symbol   x (angstrom)   y (angstrom)   z (angstrom)
      1      H    -0.32042763     0.11184303    -0.27898345
      2      C    -0.21869336    -2.03028042    -0.01130134
      3      C     0.27482705    -0.75827472    -0.02497103
      4      C     1.64437344    -0.54113919     0.31607574
      5      O     2.24411606     0.55743136     0.34074042
      6      H     0.47439479    -2.82798859     0.26347496
      7      C    -4.14719998    -3.43128428    -0.86683211
      8      C    -3.14952864    -4.31687515    -0.45569431
      9      C    -1.87274672    -3.84071589    -0.18091147
     10      C    -1.56618662    -2.46879509    -0.31037561
     11      C    -2.58889302    -1.58734233    -0.72670364
     12      C    -3.86198730    -2.06792983    -0.99969679
     13      H    -3.36817144    -5.37670652    -0.34971735
     14      H    -1.09581923    -4.53214760     0.13822695
     15      H    -2.38712846    -0.52643830    -0.83917990
     16      H    -4.63940800    -1.37926133    -1.32171643
     17      H    -5.14750464    -3.80012329    -1.08253005
     18      H     2.24441083    -1.42583719     0.59059334
     19     Al     1.79364962     2.38779884    -0.12481752
     20      F     0.11749885     2.36342070    -0.33515378
     21      F     2.65254008     2.60107436    -1.54641335
     22      F     2.31618597     3.23727424     1.21737073
 
Total System Charge             0.00000
 
 *** GOStep15 ***

 Energy gradients wrt nuclear displacements
 ==========================================

     Atom      Cartesian (a.u./angstrom)
                 X         Y         Z
 ----------------------------------------
     1 H     0.000242 -0.000151 -0.000049
     2 C     0.002021  0.001375 -0.000947
     3 C    -0.001124  0.000137  0.000540
     4 C    -0.002634  0.000889 -0.000693
     5 O     0.003631 -0.006598  0.003026
     6 H     0.000321 -0.000447 -0.000280
     7 C     0.000718  0.000175 -0.000360
     8 C    -0.000294  0.001041 -0.000549
     9 C    -0.000158  0.001007  0.000606
    10 C    -0.001934 -0.001051  0.000209
    11 C     0.000950 -0.000483  0.000030
    12 C     0.000184 -0.001088  0.000714
    13 H    -0.000088 -0.000533  0.000128
    14 H     0.000366 -0.000307  0.000140
    15 H     0.000069  0.000546 -0.000033
    16 H    -0.000338  0.000343 -0.000275
    17 H    -0.000511 -0.000142  0.000051
    18 H     0.000808 -0.000632  0.000054
    19 Al   -0.001449  0.003776 -0.001228
    20 F    -0.000578  0.000715 -0.000439
    21 F    -0.000161  0.000851 -0.000281
    22 F    -0.000038  0.000578 -0.000365
 ----------------------------------------
 Mulliken charges used for AMS results%charges...

 dE(predicted):    -0.13729E-03, dE(actual):    -0.15544E-03, Trust radius:    0.800000, all in a.u.
 
----------------------------------------------------------------------
Geometry Convergence after Step  15       (Hartree/Angstrom,Angstrom)
----------------------------------------------------------------------
current energy                               -4.91597781 Hartree
energy change                      -0.00015544     0.00022000    T
constrained gradient max            0.00659971     0.00100000    F
constrained gradient rms            0.00133147     0.00066667    F
gradient max                        0.00659971
gradient rms                        0.00133147
cart. step max                      0.03944957     0.01000000    F
cart. step rms                      0.00960210     0.00666667    F
 
 
--------
Geometry
--------
Formula: C9H8AlF3O
Atoms
  Index Symbol   x (angstrom)   y (angstrom)   z (angstrom)
      1      H    -0.31862552     0.11061070    -0.29518908
      2      C    -0.22461360    -2.02665147     0.01015682
      3      C     0.27310342    -0.75684230    -0.02419795
      4      C     1.64320427    -0.53782314     0.31505325
      5      O     2.24223049     0.56121915     0.33075690
      6      H     0.46354975    -2.82203668     0.30292454
      7      C    -4.14523529    -3.43380685    -0.87419508
      8      C    -3.14549945    -4.31983798    -0.46915409
      9      C    -1.87080660    -3.84185910    -0.18720527
     10      C    -1.56970672    -2.46760925    -0.30066349
     11      C    -2.59367827    -1.58582927    -0.71249870
     12      C    -3.86387682    -2.06857328    -0.99577201
     13      H    -3.36016403    -5.38153048    -0.37497630
     14      H    -1.09303296    -4.53346973     0.12917933
     15      H    -2.39723645    -0.52251979    -0.80983740
     16      H    -4.64360493    -1.37915275    -1.31034175
     17      H    -5.14309346    -3.80425146    -1.09800350
     18      H     2.24368993    -1.42110739     0.59265933
     19     Al     1.79835076     2.38556976    -0.13259035
     20      F     0.12163428     2.37008730    -0.33849430
     21      F     2.65486262     2.59220756    -1.55631813
     22      F     2.32685019     3.23090923     1.21019126
 
Total System Charge             0.00000
 
 *** GOStep16 ***

 Energy gradients wrt nuclear displacements
 ==========================================

     Atom      Cartesian (a.u./angstrom)
                 X         Y         Z
 ----------------------------------------
     1 H     0.000208 -0.000142 -0.000047
     2 C     0.002755  0.001989  0.001371
     3 C    -0.001555 -0.000211 -0.000201
     4 C    -0.001551  0.000792 -0.000800
     5 O     0.002855 -0.004307  0.002560
     6 H     0.000088 -0.000405 -0.000079
     7 C     0.000444  0.000267  0.000583
     8 C    -0.000636  0.000994 -0.000017
     9 C     0.000602  0.001126 -0.000551
    10 C    -0.003151 -0.001685 -0.000771
    11 C     0.001469 -0.000385  0.000159
    12 C     0.000176 -0.001186 -0.000320
    13 H    -0.000009 -0.000482  0.000023
    14 H     0.000215 -0.000274  0.000250
    15 H    -0.000103  0.000491  0.000069
    16 H    -0.000376  0.000361  0.000045
    17 H    -0.000354 -0.000144 -0.000246
    18 H     0.000733 -0.000746 -0.000337
    19 Al   -0.001006  0.002471 -0.001277
    20 F    -0.000356  0.000756 -0.000297
    21 F    -0.000347  0.000429  0.000065
    22 F    -0.000102  0.000291 -0.000182
 ----------------------------------------
 Mulliken charges used for AMS results%charges...

 dE(predicted):    -0.52529E-04, dE(actual):    -0.68833E-04, Trust radius:    0.800000, all in a.u.
 
----------------------------------------------------------------------
Geometry Convergence after Step  16       (Hartree/Angstrom,Angstrom)
----------------------------------------------------------------------
current energy                               -4.91604664 Hartree
energy change                      -0.00006883     0.00022000    T
constrained gradient max            0.00430751     0.00100000    F
constrained gradient rms            0.00114543     0.00066667    F
gradient max                        0.00430751
gradient rms                        0.00114543
cart. step max                      0.03452929     0.01000000    F
cart. step rms                      0.00979976     0.00666667    F
 
 
--------
Geometry
--------
Formula: C9H8AlF3O
Atoms
  Index Symbol   x (angstrom)   y (angstrom)   z (angstrom)
      1      H    -0.31516925     0.10519002    -0.32971838
      2      C    -0.22718737    -2.02641108     0.01070397
      3      C     0.27378153    -0.75825985    -0.03974411
      4      C     1.63874463    -0.53158043     0.31654416
      5      O     2.23209745     0.57025876     0.32377498
      6      H     0.45591351    -2.81833534     0.32320001
      7      C    -4.14574227    -3.43817878    -0.87571475
      8      C    -3.14267452    -4.32424492    -0.47859190
      9      C    -1.86988977    -3.84388989    -0.19197759
     10      C    -1.57264644    -2.46809540    -0.29790231
     11      C    -2.60048580    -1.58627481    -0.70006622
     12      C    -3.86983878    -2.07064557    -0.98465790
     13      H    -3.35363649    -5.38714461    -0.39265985
     14      H    -1.08942455    -4.53572206     0.11641579
     15      H    -2.40754183    -0.52190108    -0.79001468
     16      H    -4.65202333    -1.38146128    -1.29278941
     17      H    -5.14281619    -3.80990081    -1.09989716
     18      H     2.23589954    -1.40809349     0.61986831
     19     Al     1.80821761     2.38769874    -0.13566118
     20      F     0.13250210     2.38351215    -0.34869747
     21      F     2.67482400     2.58665013    -1.55457602
     22      F     2.33539785     3.22453240     1.21364572
 
Total System Charge             0.00000
 
 *** GOStep17 ***

 Energy gradients wrt nuclear displacements
 ==========================================

     Atom      Cartesian (a.u./angstrom)
                 X         Y         Z
 ----------------------------------------
     1 H    -0.000069 -0.000098  0.000113
     2 C     0.002995  0.001343  0.000141
     3 C    -0.001384 -0.000532 -0.000650
     4 C     0.000412  0.000342 -0.000324
     5 O     0.000851 -0.000751  0.000899
     6 H    -0.000246 -0.000147  0.000344
     7 C     0.000330  0.000111  0.000026
     8 C    -0.000525  0.000398 -0.000271
     9 C     0.000738  0.001045  0.000192
    10 C    -0.003301 -0.001467 -0.000571
    11 C     0.001355 -0.000079  0.000712
    12 C    -0.000325 -0.000691 -0.000148
    13 H     0.000058 -0.000216  0.000040
    14 H     0.000025 -0.000188 -0.000043
    15 H    -0.000123  0.000188 -0.000095
    16 H    -0.000131  0.000178 -0.000042
    17 H    -0.000167 -0.000020  0.000014
    18 H     0.000165 -0.000503  0.000106
    19 Al   -0.000282  0.000709 -0.000738
    20 F     0.000022  0.000501 -0.000077
    21 F    -0.000335 -0.000162  0.000149
    22 F    -0.000062  0.000039  0.000223
 ----------------------------------------
 Mulliken charges used for AMS results%charges...

 dE(predicted):    -0.54552E-04, dE(actual):    -0.58576E-04, Trust radius:    0.800000, all in a.u.
 
----------------------------------------------------------------------
Geometry Convergence after Step  17       (Hartree/Angstrom,Angstrom)
----------------------------------------------------------------------
current energy                               -4.91610522 Hartree
energy change                      -0.00005858     0.00022000    T
constrained gradient max            0.00330191     0.00100000    F
constrained gradient rms            0.00074760     0.00066667    F
gradient max                        0.00330191
gradient rms                        0.00074760
cart. step max                      0.01071944     0.01000000    F
cart. step rms                      0.00299696     0.00666667    T
 
 
--------
Geometry
--------
Formula: C9H8AlF3O
Atoms
  Index Symbol   x (angstrom)   y (angstrom)   z (angstrom)
      1      H    -0.31664255     0.10659229    -0.32228203
      2      C    -0.22999414    -2.02546409     0.01583081
      3      C     0.27176924    -0.75708277    -0.03150476
      4      C     1.63768450    -0.53037142     0.31969418
      5      O     2.23076468     0.57127785     0.31810569
      6      H     0.45529817    -2.81853308     0.32025872
      7      C    -4.14510201    -3.43926627    -0.87815476
      8      C    -3.14156296    -4.32495976    -0.48077834
      9      C    -1.86966536    -3.84362250    -0.19290455
     10      C    -1.57312031    -2.46695425    -0.29693788
     11      C    -2.60183286    -1.58609539    -0.70058918
     12      C    -3.87055212    -2.07115755    -0.98555385
     13      H    -3.35200846    -5.38782111    -0.39544060
     14      H    -1.08929707    -4.53452607     0.11733155
     15      H    -2.40960630    -0.52161142    -0.78885035
     16      H    -4.65291809    -1.38278951    -1.29435654
     17      H    -5.14136485    -3.81181544    -1.10381629
     18      H     2.23592230    -1.40539700     0.62365875
     19     Al     1.81032373     2.38740403    -0.13810844
     20      F     0.13343799     2.38164027    -0.34120668
     21      F     2.67065080     2.58496833    -1.56132294
     22      F     2.34611730     3.22328764     1.20841150
 
Total System Charge             0.00000
 
 *** GOStep18 ***

 Energy gradients wrt nuclear displacements
 ==========================================

     Atom      Cartesian (a.u./angstrom)
                 X         Y         Z
 ----------------------------------------
     1 H    -0.000031 -0.000060 -0.000284
     2 C     0.000869  0.000506  0.001076
     3 C    -0.000443 -0.000156 -0.000233
     4 C     0.000968  0.000476  0.000290
     5 O    -0.000267 -0.000598  0.000155
     6 H    -0.000053 -0.000075 -0.000402
     7 C     0.000068  0.000032 -0.000061
     8 C    -0.000205 -0.000073 -0.000049
     9 C     0.000501  0.000337 -0.000062
    10 C    -0.001301 -0.000496 -0.000412
    11 C     0.000614  0.000007 -0.000066
    12 C    -0.000381 -0.000050  0.000188
    13 H     0.000053  0.000010  0.000056
    14 H    -0.000117 -0.000042  0.000004
    15 H    -0.000124 -0.000043  0.000028
    16 H     0.000044  0.000015 -0.000024
    17 H     0.000037  0.000018 -0.000002
    18 H    -0.000062 -0.000125 -0.000097
    19 Al   -0.000219  0.000623 -0.000452
    20 F     0.000186  0.000036  0.000078
    21 F    -0.000137 -0.000269  0.000022
    22 F     0.000001 -0.000072  0.000246
 ----------------------------------------
 Mulliken charges used for AMS results%charges...

 dE(predicted):    -0.11347E-04, dE(actual):    -0.11064E-04, Trust radius:    0.800000, all in a.u.
 
----------------------------------------------------------------------
Geometry Convergence after Step  18       (Hartree/Angstrom,Angstrom)
----------------------------------------------------------------------
current energy                               -4.91611628 Hartree
energy change                      -0.00001106     0.00022000    T
constrained gradient max            0.00130133     0.00100000    F
constrained gradient rms            0.00035700     0.00066667    T
gradient max                        0.00130133
gradient rms                        0.00035700
cart. step max                      0.00911326     0.01000000    T
cart. step rms                      0.00330154     0.00666667    T
 
 
--------
Geometry
--------
Formula: C9H8AlF3O
Atoms
  Index Symbol   x (angstrom)   y (angstrom)   z (angstrom)
      1      H    -0.31875524     0.10795658    -0.31454556
      2      C    -0.22989229    -2.02615527     0.01117752
      3      C     0.27131705    -0.75712208    -0.03134672
      4      C     1.63804930    -0.53110844     0.31523158
      5      O     2.23055149     0.57093310     0.31418693
      6      H     0.45538570    -2.81870330     0.31709015
      7      C    -4.14596734    -3.43957890    -0.87554374
      8      C    -3.14291233    -4.32474470    -0.47552846
      9      C    -1.87046137    -3.84350122    -0.19075648
     10      C    -1.57252124    -2.46706108    -0.29927514
     11      C    -2.60136558    -1.58693192    -0.70528744
     12      C    -3.87002626    -2.07216496    -0.98915589
     13      H    -3.35425957    -5.38709928    -0.38692677
     14      H    -1.09019875    -4.53375216     0.12113153
     15      H    -2.40781831    -0.52308443    -0.79796362
     16      H    -4.65206889    -1.38444005    -1.29997538
     17      H    -5.14250341    -3.81220710    -1.09968855
     18      H     2.23770410    -1.40607562     0.61594842
     19     Al     1.81119115     2.38824765    -0.13520657
     20      F     0.13458911     2.38007895    -0.34138932
     21      F     2.67457565     2.59396950    -1.55565842
     22      F     2.34368866     3.22024754     1.21496595
 
Total System Charge             0.00000
 
 *** GOStep19 ***

 Energy gradients wrt nuclear displacements
 ==========================================

     Atom      Cartesian (a.u./angstrom)
                 X         Y         Z
 ----------------------------------------
     1 H    -0.000117  0.000018  0.000117
     2 C    -0.000193 -0.000224 -0.000370
     3 C     0.000184  0.000022  0.000075
     4 C     0.000772  0.000154 -0.000166
     5 O    -0.000567 -0.000479  0.000110
     6 H    -0.000152  0.000084  0.000234
     7 C    -0.000116  0.000020  0.000142
     8 C     0.000001 -0.000202  0.000114
     9 C     0.000125 -0.000114 -0.000121
    10 C     0.000281  0.000220 -0.000040
    11 C    -0.000113  0.000073  0.000105
    12 C    -0.000050  0.000128 -0.000248
    13 H     0.000043  0.000077 -0.000041
    14 H    -0.000114  0.000027  0.000026
    15 H    -0.000043 -0.000100  0.000037
    16 H     0.000073 -0.000041  0.000067
    17 H     0.000088  0.000013 -0.000014
    18 H    -0.000161  0.000091  0.000028
    19 Al   -0.000169  0.000561 -0.000139
    20 F     0.000191 -0.000126  0.000086
    21 F     0.000009 -0.000165 -0.000133
    22 F     0.000030 -0.000038  0.000132
 ----------------------------------------
 Mulliken charges used for AMS results%charges...

 dE(predicted):    -0.46820E-05, dE(actual):    -0.40982E-05, Trust radius:    0.800000, all in a.u.
 
---------------------------------------------------------
Geometry Convergence after Step  19       ** CONVERGED **
---------------------------------------------------------
current energy                               -4.91612038 Hartree
energy change                      -0.00000410     0.00022000    T
constrained gradient max            0.00077085     0.00100000    T
constrained gradient rms            0.00019597     0.00066667    T
gradient max                        0.00077085
gradient rms                        0.00019597
cart. step max                      0.00898683     0.01000000    T
cart. step rms                      0.00208360     0.00666667    T
 
Geometry optimization converged

Optimized geometry:
 
--------
Geometry
--------
Formula: C9H8AlF3O
Atoms
  Index Symbol   x (angstrom)   y (angstrom)   z (angstrom)
      1      H    -0.31875524     0.10795658    -0.31454556
      2      C    -0.22989229    -2.02615527     0.01117752
      3      C     0.27131705    -0.75712208    -0.03134672
      4      C     1.63804930    -0.53110844     0.31523158
      5      O     2.23055149     0.57093310     0.31418693
      6      H     0.45538570    -2.81870330     0.31709015
      7      C    -4.14596734    -3.43957890    -0.87554374
      8      C    -3.14291233    -4.32474470    -0.47552846
      9      C    -1.87046137    -3.84350122    -0.19075648
     10      C    -1.57252124    -2.46706108    -0.29927514
     11      C    -2.60136558    -1.58693192    -0.70528744
     12      C    -3.87002626    -2.07216496    -0.98915589
     13      H    -3.35425957    -5.38709928    -0.38692677
     14      H    -1.09019875    -4.53375216     0.12113153
     15      H    -2.40781831    -0.52308443    -0.79796362
     16      H    -4.65206889    -1.38444005    -1.29997538
     17      H    -5.14250341    -3.81220710    -1.09968855
     18      H     2.23770410    -1.40607562     0.61594842
     19     Al     1.81119115     2.38824765    -0.13520657
     20      F     0.13458911     2.38007895    -0.34138932
     21      F     2.67457565     2.59396950    -1.55565842
     22      F     2.34368866     3.22024754     1.21496595
 
Total System Charge             0.00000
 
Performing a single point calculation on the final geometry ...

 *** adf ***



 ===========================
 A T T A C H E D   F I L E S
 ===========================
  
 Restart
 /scratch/5299/amstmp_28.achiral_catalyst.H_Ph_AlF3.Rsub_cat_complex_kid0.141943
 1414/GOStep19.rkf*** GOStep19 ***



 ===============================
 M O D E L   P A R A M E T E R S
 ===============================
  
 DENSITY FUNCTIONAL POTENTIAL (scf)
    LDA:                               Exchange only                           == Not Default ==
    Gradient Corrections:              OPTX LYP                                == Not Default ==

 SPIN  (restricted / unrestr.)
    Molecule:                          Restricted                               
    Fragments:                         Restricted                               

 OTHER ASPECTS
    Relativistic Corrections:          scalar (ZORA,MAPA)                       

    Nuclear Charge Density Model:      Point Charge Nuclei                      
    Core Treatment:                    Frozen Orbital(s)                        

    Hyperfine or Zeeman Interaction:   ---                                      



 ===============
 G E O M E T R Y  ***  3D  Molecule  ***
 ===============
  

 ATOMS
 =====                            X Y Z                    CHARGE
                                (Angstrom)             Nucl     +Core       At.Mass
                       --------------------------    ----------------       -------
    1  H              -0.3188    0.1080   -0.3145      1.00      1.00        1.0078
    2  C              -0.2299   -2.0262    0.0112      6.00      6.00       12.0000
    3  C               0.2713   -0.7571   -0.0313      6.00      6.00       12.0000
    4  C               1.6380   -0.5311    0.3152      6.00      6.00       12.0000
    5  O               2.2306    0.5709    0.3142      8.00      8.00       15.9949
    6  H               0.4554   -2.8187    0.3171      1.00      1.00        1.0078
    7  C              -4.1460   -3.4396   -0.8755      6.00      6.00       12.0000
    8  C              -3.1429   -4.3247   -0.4755      6.00      6.00       12.0000
    9  C              -1.8705   -3.8435   -0.1908      6.00      6.00       12.0000
   10  C              -1.5725   -2.4671   -0.2993      6.00      6.00       12.0000
   11  C              -2.6014   -1.5869   -0.7053      6.00      6.00       12.0000
   12  C              -3.8700   -2.0722   -0.9892      6.00      6.00       12.0000
   13  H              -3.3543   -5.3871   -0.3869      1.00      1.00        1.0078
   14  H              -1.0902   -4.5338    0.1211      1.00      1.00        1.0078
   15  H              -2.4078   -0.5231   -0.7980      1.00      1.00        1.0078
   16  H              -4.6521   -1.3844   -1.3000      1.00      1.00        1.0078
   17  H              -5.1425   -3.8122   -1.0997      1.00      1.00        1.0078
   18  H               2.2377   -1.4061    0.6159      1.00      1.00        1.0078
   19  Al              1.8112    2.3882   -0.1352     13.00     13.00       26.9815
   20  F               0.1346    2.3801   -0.3414      9.00      9.00       18.9984
   21  F               2.6746    2.5940   -1.5557      9.00      9.00       18.9984
   22  F               2.3437    3.2202    1.2150      9.00      9.00       18.9984


 FRAGMENTS
 =========                                     Atoms in this Fragment     Cart. coord.s (Angstrom)
                                               -------------------------------------------------------
    1  H                                                 1  H           -0.3188    0.1080   -0.3145
    2  H                                                 6  H            0.4554   -2.8187    0.3171
    3  H                                                13  H           -3.3543   -5.3871   -0.3869
    4  H                                                14  H           -1.0902   -4.5338    0.1211
    5  H                                                15  H           -2.4078   -0.5231   -0.7980
    6  H                                                16  H           -4.6521   -1.3844   -1.3000
    7  H                                                17  H           -5.1425   -3.8122   -1.0997
    8  H                                                18  H            2.2377   -1.4061    0.6159
    9  C                                                 2  C           -0.2299   -2.0262    0.0112
   10  C                                                 3  C            0.2713   -0.7571   -0.0313
   11  C                                                 4  C            1.6380   -0.5311    0.3152
   12  C                                                 7  C           -4.1460   -3.4396   -0.8755
   13  C                                                 8  C           -3.1429   -4.3247   -0.4755
   14  C                                                 9  C           -1.8705   -3.8435   -0.1908
   15  C                                                10  C           -1.5725   -2.4671   -0.2993
   16  C                                                11  C           -2.6014   -1.5869   -0.7053
   17  C                                                12  C           -3.8700   -2.0722   -0.9892
   18  O                                                 5  O            2.2306    0.5709    0.3142
   19  Al                                               19  Al           1.8112    2.3882   -0.1352
   20  F                                                20  F            0.1346    2.3801   -0.3414
   21  F                                                21  F            2.6746    2.5940   -1.5557
   22  F                                                22  F            2.3437    3.2202    1.2150



 =====================================
 S Y M M E T R Y ,   E L E C T R O N S
 =====================================
  
 Symmetry: NOSYM

[...]
     1     H       0.152390   0.080961   0.028950
     2     C       0.072124   0.053672   0.012321
     3     C      -0.060294  -0.073710  -0.006096
     4     C      -0.011087  -0.034916   0.002294
     5     O       0.017922   0.038351  -0.000877
     6     H       0.007493   0.004606   0.001195
     7     C       0.102743  -0.327292   0.073813
     8     C      -0.084229   0.167953  -0.046566
     9     C      -0.057398  -0.187799   0.010210
    10     C      -0.102286   0.200669  -0.056127
    11     C       0.148021  -0.113223   0.056536
    12     C      -0.014177   0.199155  -0.031507
    13     H       0.150981   0.146831   0.021241
    14     H       0.250680   0.174967   0.044954
    15     H      -0.346442  -0.037806  -0.090261
    16     H      -0.216535  -0.012232  -0.058381
    17     H      -0.164124   0.500156  -0.114762
    18     H      -0.046053  -0.064626  -0.003538
    19    Al       0.000007  -0.001051   0.000207
    20     F       0.000213   0.000348   0.000016
    21     F       0.000025  -0.000103   0.000111
    22     F       0.000048  -0.000152  -0.000029
 
 Mode:    56      Frequency (cm-1):     1595.7959     Intensity (km/mol):      480.6313
 Index  Atom      ---- Displacements (x/y/z) ----
     1     H       0.219187   0.131397   0.040155
     2     C       0.066919   0.072072   0.008373
     3     C      -0.069538  -0.084252  -0.006949
     4     C       0.093766   0.132186   0.006154
     5     O      -0.037715  -0.068997   0.000117
     6     H      -0.133698  -0.110605  -0.021913
     7     C       0.112183   0.049213   0.024160
     8     C      -0.235739  -0.032127  -0.060691
     9     C       0.208018   0.152169   0.036434
    10     C      -0.153638  -0.086346  -0.030507
    11     C       0.251475   0.043087   0.063531
    12     C      -0.215024  -0.150845  -0.038561
    13     H       0.254067  -0.126490   0.087841
    14     H      -0.161456  -0.295080  -0.003800
    15     H      -0.334970   0.147902  -0.112781
    16     H       0.149582   0.297924   0.000169
    17     H       0.126678   0.047865   0.028361
    18     H      -0.203031  -0.107552  -0.041429
    19    Al       0.000513  -0.004623   0.001006
    20     F      -0.002319   0.001228  -0.000615
    21     F       0.000606   0.001753  -0.001951
    22     F       0.000273   0.002346   0.001053
 
 Mode:    57      Frequency (cm-1):     1608.3383     Intensity (km/mol):       15.6722
 Index  Atom      ---- Displacements (x/y/z) ----
     1     H      -0.343544  -0.078566  -0.080669
     2     C      -0.251079  -0.344692  -0.020574
     3     C       0.169256   0.268626   0.008492
     4     C       0.111737   0.189864   0.002213
     5     O      -0.087857  -0.164771   0.000718
     6     H       0.529346   0.348264   0.098249
     7     C       0.049564  -0.050077   0.020645
     8     C      -0.094432   0.028335  -0.030007
     9     C       0.043416  -0.034715   0.016795
    10     C       0.048531   0.151170  -0.007690
    11     C       0.058992  -0.036593   0.021409
    12     C      -0.043375   0.009362  -0.013270
    13     H       0.132766  -0.010790   0.038139
    14     H       0.047341  -0.036990   0.018122
    15     H      -0.010300  -0.030814   0.001182
    16     H      -0.025745   0.034037  -0.011928
    17     H       0.012772   0.078354  -0.007412
    18     H      -0.020612   0.079238  -0.016716
    19    Al       0.000630   0.002106  -0.000255
    20     F      -0.002292  -0.001308  -0.000371
    21     F      -0.000016   0.000935  -0.001072
    22     F      -0.000198   0.001298   0.000387
 
 Mode:    58      Frequency (cm-1):     1627.2873     Intensity (km/mol):     1010.9951
 Index  Atom      ---- Displacements (x/y/z) ----
     1     H       0.387081   0.245765   0.069088
     2     C       0.044387   0.094034  -0.001020
     3     C      -0.158084  -0.165532  -0.019544
     4     C       0.279831   0.375656   0.021171
     5     O      -0.116617  -0.218669   0.001039
     6     H      -0.182308  -0.112588  -0.034533
     7     C      -0.048399  -0.011568  -0.011769
     8     C       0.114013   0.011260   0.029949
     9     C      -0.105204  -0.074087  -0.018798
    10     C       0.083110   0.008202   0.021783
    11     C      -0.121212   0.000360  -0.033583
    12     C       0.089805   0.056892   0.016965
    13     H      -0.103241   0.052689  -0.035840
    14     H       0.082670   0.147608   0.002372
    15     H       0.118564  -0.037753   0.037950
    16     H      -0.036749  -0.097663   0.003361
    17     H      -0.051735  -0.019687  -0.011551
    18     H      -0.441021  -0.217005  -0.092068
    19    Al       0.001175  -0.008043   0.001843
    20     F      -0.005655   0.002154  -0.001423
    21     F       0.001175   0.003814  -0.004305
    22     F       0.000434   0.005135   0.002227
 
 Mode:    59      Frequency (cm-1):     2983.0447     Intensity (km/mol):       35.7202
 Index  Atom      ---- Displacements (x/y/z) ----
     1     H       0.010592  -0.015994   0.005256
     2     C      -0.001562   0.001633  -0.000674
     3     C      -0.003848  -0.000122  -0.001045
     4     C       0.050481  -0.064130   0.023858
     5     O      -0.001194  -0.001264  -0.000110
     6     H       0.020055  -0.015295   0.007825
     7     C       0.000013  -0.000024   0.000007
     8     C       0.000009   0.000056  -0.000006
     9     C      -0.000013  -0.000019  -0.000000
    10     C       0.000144   0.000508  -0.000034
    11     C      -0.000092  -0.000050  -0.000018
    12     C       0.000024   0.000066  -0.000002
    13     H      -0.000018  -0.000556   0.000068
    14     H       0.000972  -0.000827   0.000377
    15     H      -0.000160  -0.000245  -0.000009
    16     H      -0.000269   0.000114  -0.000084
    17     H       0.000206   0.000093   0.000048
    18     H      -0.551972   0.782499  -0.273260
    19    Al       0.000067   0.000529  -0.000091
    20     F       0.000092  -0.000117   0.000031
    21     F      -0.000057  -0.000050   0.000084
    22     F      -0.000030  -0.000083  -0.000062
 
 Mode:    60      Frequency (cm-1):     3093.5654     Intensity (km/mol):        8.0776
 Index  Atom      ---- Displacements (x/y/z) ----
     1     H       0.033255  -0.044288   0.015493
     2     C       0.052017  -0.062729   0.023573
     3     C      -0.001085   0.006464  -0.001218
     4     C       0.001936  -0.000889   0.000676
     5     O      -0.000354  -0.000234  -0.000061
     6     H      -0.620533   0.722394  -0.277426
     7     C       0.000104   0.000167   0.000006
     8     C       0.000125  -0.000703   0.000131
     9     C      -0.004531   0.003735  -0.001775
    10     C      -0.001265  -0.001751  -0.000108
    11     C      -0.000563  -0.000835  -0.000041
    12     C      -0.000153  -0.000043  -0.000035
    13     H       0.002615   0.012129  -0.000961
    14     H       0.050162  -0.040744   0.019539
    15     H       0.002152   0.012646  -0.001138
    16     H       0.002148  -0.001342   0.000796
    17     H      -0.002143  -0.000509  -0.000516
    18     H      -0.016902   0.017122  -0.007334
    19    Al       0.000055   0.000023   0.000004
    20     F      -0.000038  -0.000024  -0.000005
    21     F      -0.000017   0.000000   0.000010
    22     F      -0.000013  -0.000006  -0.000012
 
 Mode:    61      Frequency (cm-1):     3132.0197     Intensity (km/mol):        1.3681
 Index  Atom      ---- Displacements (x/y/z) ----
     1     H      -0.001493   0.003091  -0.000828
     2     C       0.002998  -0.003166   0.001294
     3     C       0.000047  -0.000199   0.000039
     4     C       0.000135  -0.000103   0.000054
     5     O      -0.000029  -0.000020  -0.000005
     6     H      -0.035843   0.038444  -0.015554
     7     C      -0.034885  -0.013169  -0.007827
     8     C       0.007788   0.042183  -0.003688
     9     C       0.040154  -0.036817   0.016228
    10     C       0.001165   0.001242   0.000149
    11     C       0.000375   0.007112  -0.000874
    12     C       0.016412  -0.013643   0.006415
    13     H      -0.099747  -0.505191   0.042361
    14     H      -0.476287   0.421759  -0.190425
    15     H      -0.014698  -0.084323   0.007525
    16     H      -0.191348   0.167739  -0.075996
    17     H       0.414014   0.154671   0.093154
    18     H      -0.001178   0.001309  -0.000528
    19    Al       0.000005  -0.000002   0.000001
    20     F      -0.000006  -0.000000  -0.000001
    21     F      -0.000001   0.000001   0.000000
    22     F      -0.000001   0.000001  -0.000001
 
 Mode:    62      Frequency (cm-1):     3139.3805     Intensity (km/mol):        1.1898
 Index  Atom      ---- Displacements (x/y/z) ----
     1     H      -0.021316   0.029831  -0.010062
     2     C      -0.001924   0.002249  -0.000861
     3     C       0.002088  -0.002769   0.000966
     4     C      -0.000303  -0.000035  -0.000080
     5     O       0.000062   0.000078   0.000006
     6     H       0.023171  -0.023851   0.009900
     7     C      -0.045897  -0.016359  -0.010433
     8     C       0.002460  -0.001213   0.000847
     9     C      -0.037775   0.033552  -0.015115
    10     C      -0.000658  -0.001385   0.000011
    11     C       0.001964   0.013017  -0.001248
    12     C       0.031763  -0.026339   0.012407
    13     H      -0.000493   0.010897  -0.001652
    14     H       0.435373  -0.384903   0.173975
    15     H      -0.030004  -0.159468   0.013630
    16     H      -0.366286   0.320279  -0.145368
    17     H       0.532681   0.198523   0.119916
    18     H       0.000677  -0.000750   0.000296
    19    Al      -0.000006  -0.000017   0.000003
    20     F       0.000006  -0.000005   0.000001
    21     F       0.000004   0.000004  -0.000005
    22     F       0.000003   0.000006   0.000004
 
 Mode:    63      Frequency (cm-1):     3149.3955     Intensity (km/mol):        6.6905
 Index  Atom      ---- Displacements (x/y/z) ----
     1     H       0.044925  -0.064425   0.021407
     2     C      -0.001554   0.001036  -0.000584
     3     C      -0.003788   0.005801  -0.001860
     4     C      -0.000031   0.000244  -0.000046
     5     O       0.000010   0.000021   0.000000
     6     H       0.016596  -0.018036   0.007249
     7     C      -0.027026  -0.013170  -0.005652
     8     C       0.010308   0.041210  -0.002856
     9     C      -0.020509   0.017009  -0.008038
    10     C      -0.000922  -0.001024  -0.000113
    11     C      -0.003161  -0.028195   0.003003
    12     C      -0.039746   0.036729  -0.016050
    13     H      -0.097215  -0.475830   0.038997
    14     H       0.222450  -0.195453   0.088720
    15     H       0.059962   0.332868  -0.029195
    16     H       0.463734  -0.409402   0.184570
    17     H       0.316811   0.121791   0.070794
    18     H       0.001722  -0.002138   0.000817
    19    Al       0.000017  -0.000016   0.000004
    20     F      -0.000020   0.000027  -0.000005
    21     F      -0.000003   0.000003   0.000000
    22     F      -0.000003   0.000002  -0.000002
 
 Mode:    64      Frequency (cm-1):     3157.6747     Intensity (km/mol):       13.3772
 Index  Atom      ---- Displacements (x/y/z) ----
     1     H      -0.082292   0.116766  -0.039068
     2     C       0.000160   0.000701  -0.000056
     3     C       0.007236  -0.010474   0.003472
     4     C      -0.000322  -0.000320  -0.000042
     5     O       0.000070   0.000075   0.000007
     6     H      -0.000450   0.002095  -0.000451
     7     C       0.044558   0.014721   0.010288
     8     C       0.011307   0.060062  -0.005190
     9     C      -0.020129   0.014355  -0.007563
    10     C       0.000333  -0.001624   0.000318
    11     C       0.004823   0.028841  -0.002633
    12     C       0.009107  -0.011582   0.004116
    13     H      -0.131903  -0.667023   0.055882
    14     H       0.202816  -0.175185   0.080471
    15     H      -0.062018  -0.334555   0.028864
    16     H      -0.118221   0.108047  -0.047561
    17     H      -0.487179  -0.179895  -0.109901
    18     H      -0.001614   0.001829  -0.000750
    19    Al      -0.000037  -0.000003  -0.000003
    20     F       0.000042  -0.000040   0.000010
    21     F       0.000011   0.000003  -0.000008
    22     F       0.000010   0.000007   0.000009
 
 Mode:    65      Frequency (cm-1):     3164.6249     Intensity (km/mol):        6.5259
 Index  Atom      ---- Displacements (x/y/z) ----
     1     H       0.300682  -0.427097   0.142815
     2     C      -0.002881  -0.000237  -0.000771
     3     C      -0.025592   0.038220  -0.012446
     4     C       0.000443   0.001052  -0.000036
     5     O      -0.000057   0.000050  -0.000020
     6     H       0.026139  -0.032198   0.012012
     7     C       0.018026   0.007919   0.003888
     8     C       0.001946   0.013492  -0.001330
     9     C      -0.003588   0.003188  -0.001435
    10     C      -0.001890   0.001101  -0.000678
    11     C      -0.012015  -0.057268   0.004556
    12     C       0.029471  -0.024348   0.011502
    13     H      -0.028168  -0.145883   0.012413
    14     H       0.037319  -0.032867   0.014894
    15     H       0.122164   0.645939  -0.055052
    16     H      -0.314412   0.275273  -0.124818
    17     H      -0.197162  -0.075271  -0.044133
    18     H       0.008234  -0.009181   0.003752
    19    Al       0.000122  -0.000109   0.000028
    20     F      -0.000154   0.000199  -0.000044
    21     F      -0.000025   0.000022   0.000005
    22     F      -0.000025   0.000013  -0.000016
 
 Mode:    66      Frequency (cm-1):     3173.4503     Intensity (km/mol):        9.1625
 Index  Atom      ---- Displacements (x/y/z) ----
     1     H      -0.454629   0.642501  -0.215544
     2     C       0.002983   0.000520   0.000756
     3     C       0.038518  -0.056944   0.018657
     4     C      -0.000930  -0.001567  -0.000022
     5     O       0.000171   0.000079   0.000032
     6     H      -0.023969   0.035101  -0.011862
     7     C       0.003520   0.002068   0.000687
     8     C       0.000167   0.001953  -0.000224
     9     C       0.000343  -0.000044   0.000101
    10     C      -0.000995   0.000478  -0.000336
    11     C      -0.009282  -0.046144   0.003778
    12     C       0.012302  -0.008970   0.004636
    13     H      -0.003980  -0.020842   0.001784
    14     H      -0.004830   0.003769  -0.001868
    15     H       0.100657   0.530365  -0.045097
    16     H      -0.122110   0.106038  -0.048347
    17     H      -0.037565  -0.014993  -0.008316
    18     H      -0.012552   0.013138  -0.005603
    19    Al      -0.000188   0.000122  -0.000035
    20     F       0.000239  -0.000287   0.000068
    21     F       0.000044  -0.000022  -0.000020
    22     F       0.000041  -0.000004   0.000032

PES point character: Geometry corresponds to a local minimum on the PES.




 ============================
 Statistical Thermal Analysis  ***  ideal gas assumed  ***
 ============================
  
 Pressure:                  1.000000 atm.
 Temperature:             298.150000 K



 Moments of Inertia [amu*bohr^2] and principal axis
 ==================================================

        1113.2518       8769.9257       9329.1477
 ------------------------------------------------
          -0.6646          0.6992          0.2634
          -0.7441         -0.6515         -0.1481
          -0.0680          0.2944         -0.9533


 The rotational contribution to the molecular entropy includes
 a term, dependent on the symmetry number sigma. The results 
 reported below were computed using sigma = 1, determined from
 the point group symmetry of the input geometry (NOSYM). 
 If this is not the correct symmetry, try symmetrizing the molecule before
 running the calculation (note: linear molecules should be aligned along one
 of the Cartesian axes).
 Contributions from frequencies below 20 1/cm are not included in vibrational sums.
 Their contributions, if any, are reported separately.


     Temp                                                        Transl      Rotat     Vibrat     Total
     ----                                                        ------      -----     ------     -----

     298.15   Entropy (cal/mol-K):                               42.014     32.877     43.022    117.913
              Nuclear Internal Energy (kcal/mol):                 0.889      0.889    100.951    102.728
              Constant Volume Heat Capacity (cal/mol-K):          2.981      2.981     42.894     48.856
          (c) Constant Volume Heat Capacity (cal/mol-K):          2.981      2.981     40.361     46.322

 Contributions from frequencies below 20 1/cm
 Frequency (1/cm):                                   10.521
 Entropy (cal/mol-K):                                 7.910
 Nuclear Internal Energy (kcal/mol):                  0.593
 Constant Volume Heat Capacity (cal/mol-K):           1.987

       Summary of energy terms
                                                   hartree              eV         kcal/mol           kJ/mol
                                      --------------------     -----------       ----------      -----------
      Energy from Engine:               -4.916120378513393       -133.7744         -3084.91        -12907.27
      Nuclear Internal Energy:           0.163708244211405          4.4547           102.73           429.82
  (c) Nuclear Internal Energy:           0.162378272998316          4.4185           101.89           426.32
      Internal Energy U:                -4.752412134301989       -129.3197         -2982.18        -12477.46
      pV/n = RT:                         0.000944186013486          0.0257             0.59             2.48
      Enthalpy H:                       -4.751467948288503       -129.2940         -2981.59        -12474.98
      -T*S:                             -0.056024220176452         -1.5245           -35.16          -147.09
  (c) -T*S:                             -0.056576025691631         -1.5395           -35.50          -148.54
      Gibbs free energy:                -4.807492168464955       -130.8185         -3016.75        -12622.07
 
 
 
  (c) The properties marked with this symbol have been corrected using 'low vibrational frequency free rotor
      interpolation corrections'. For those terms all positive frequencies are used (also ones below 20 1/cm),
      but the contribution to the partition function of small vibrational frequencies is modified as described
      in the following paper:
      S. Grimme, 'Supramolecular Binding Thermodynamics by Dispersion-Corrected Density Functional Theory'
      (Chem. Eur. J. 2012, 18, 9955-9964)
      Configuration: Dampener Frequency          :   100.000 1/cm
                     Dampener Alpha              :     4.000
                     Averaging Moment of Inertia : 1.000E-44 kg m2

--------------
Atomic charges
--------------
  Index   Atom    Charge
      1      H   -0.1114
      2      C    0.3192
      3      C    0.1719
      4      C    0.6991
      5      O   -0.5867
      6      H   -0.2261
      7      C    0.2693
      8      C    0.2446
      9      C    0.3150
     10      C   -0.0189
     11      C    0.3131
     12      C    0.2473
     13      H   -0.2374
     14      H   -0.2509
     15      H   -0.2457
     16      H   -0.2335
     17      H   -0.2315
     18      H   -0.2554
     19     Al    1.7314
     20      F   -0.6536
     21      F   -0.6309
     22      F   -0.6289


Dipole moment vector    (Debye):    -5.79891389  -10.64020912    0.16676316
              magnitude (Debye):    12.11896293


Final PES point is a local minimum. Geometry optimization successful!


AMS application finished. Exiting.
NORMAL TERMINATION
     Total cpu time:   34761.64
  Total system time:     179.47
 Total elapsed time:   70262.01
 WARNING: total elapsed time is much higher than the (CPU+system) time. 
 Make sure the machine is not oversubscribed and has enough memory, SCM_TMPDIR p
 oints to a fast file system, and the network is fast enough.
