

 Parallel Execution: Process Information
 ==============================================================================
 Rank   Node Name                              NodeID   MyNodeRank  NodeMaster
    0   DESKTOP-1M8FOJT                           0          0          0
    1   DESKTOP-1M8FOJT                           0          1         -1
    2   DESKTOP-1M8FOJT                           0          2         -1
    3   DESKTOP-1M8FOJT                           0          3         -1
 ==============================================================================


May use up to 4096MB of RAM as shared memory on node 0

 *******************************************************************************
 *                                                                             *
 *  --------------------------------                                           *
 *   Amsterdam Modeling Suite (AMS)              2021.106                      *
 *  --------------------------------                                           *
 *                                               r99350 2021-12-03             *
 *                                                                             *
 *                                                                             *
 *                              =================                              *
 *                              |               |                              *
 *                              |     A M S     |                              *
 *                              |               |                              *
 *                              =================                              *
 *                                                                             *
 *                                                                             *
 *   Online information and documentation:  https://www.scm.com/support/       *
 *   E-mail:  support@scm.com   info@scm.com                                   *
 *                                                                             *
 *   Scientific publications using AMS results must be properly referenced     *
 *   See the User Manuals (or the web site) for recommended citations          *
 *   The terms and conditions of the End User License Agreement apply to       *
 *   the use of AMS, https://www.scm.com/license-terms/                        *
 *                                                                             *
 *********************  x86_64_windows_amdZen / intelmpi  **********************
 
 Licensed to: Mr. Yuman Hordijk / SCM / Amsterdam / Netherlands 2021-10-04 09:39:26
 SCM User ID: u24430
  
 AMS 2021.106  RunTime: Jan23-2022 17:17:36  ShM Nodes: 1  Procs: 4

 AMS jobname: ams
 AMS jobid  : 1196424940

 Start   directory: D:/Users/Yuman/Desktop/MasterProject/manual_calculations/chiral_cat_BHPh2/tmp..15588.0.noindex/
 Results directory: D:/Users/Yuman/Desktop/MasterProject/manual_calculations/chiral_cat_BHPh2/Rsub_cat_complex.results/
 Scratch directory: Z:/SCMTMP/amstmp_ams_kid0.1196424940/


 Communication costs MPI_COMM_WORLD:      1.604 usec per message,   0.0033 usec per 8-byte item
 Communication costs for intra-node:      1.300 usec per message,   0.0037 usec per 8-byte item

 RNG seed: -1554511940 1339146172 -1903675868 1567803143 -602328058 1541897945 -52824564 -2015100058



                      ************************************************************************
                      *  ADF 2021.106  RunTime: Jan23-2022 17:17:37  ShM Nodes: 1  Procs: 4  *
                      ************************************************************************
  
       ***************************
       *  GEOMETRY OPTIMIZATION  *
       ***************************

Optimization Method                    Quasi Newton
Optimization Coordinates               Delocalized Coordinates
Optimize lattice                       F
 
 ------------------------------------------------------
 Convergence criteria (Hartree,Angstrom)
 ------------------------------------------------------
 Maximum gradient               0.001000000000
 Maximum rms gradient           0.000666666667
 Maximum step allowed           0.010000000000
 Maximum rms step allowed       0.006666666667
 Maximum energy change allowe   0.000420000000
 Maximum stress energy allowe   0.000500000000
 
Initial model Hessian                  Automatic Hessian
 
------------------------------------
Quasi-Newton Optimizer Parameters
------------------------------------
Hessian Update Method                  BFGS
Maximum number of steps                  252
First GDIIS cycle                          0
Maximum GDIIS vectors                      0
Trust radius (bohr)                        0.200000
Trust radius varies                        T
Constraints converged at all steps         T
Use projector                              T
 
 Rigid motions settings for: old optimizer
 Atomic rotations (x,y,z):     T T T
 Atomic translations (x,y,z):  T T T
 Tolerance:                   1.000000000000000E-006
 
--------
Geometry
--------
Formula: C19H21BO
Atoms
  Index Symbol   x (angstrom)   y (angstrom)   z (angstrom)
      1      B     0.31129545     0.27601639    -0.62124225
      2      C    -0.80654687    -0.52032648     0.15447501
      3      C    -0.62093488    -0.06885639     1.62492868
      4      C     0.88109650     0.20623684     1.77998819
      5      C     1.34362835     0.82981021     0.43702405
      6      C    -2.21873976    -0.39017279    -0.34472362
      7      C    -2.77951193     0.87103758    -0.54735753
      8      C    -4.07760887     0.99880541    -1.01797259
      9      C    -4.83468282    -0.13209321    -1.29545184
     10      C    -4.28529645    -1.39112885    -1.09713856
     11      C    -2.98672837    -1.51904162    -0.62345462
     12      H    -2.19267732     1.76004015    -0.33966175
     13      H    -4.50030510     1.98567736    -1.17267458
     14      H    -5.84871526    -0.03187118    -1.66585960
     15      H    -4.87032957    -2.27911282    -1.31177614
     16      H    -2.56665268    -2.50733330    -0.46860793
     17      C     2.79132114     0.54287541     0.12661511
     18      C     3.74790179     1.55404775     0.15584236
     19      C     5.07750468     1.27280950    -0.12862154
     20      C     5.46429671    -0.02137904    -0.44736700
     21      C     4.51446585    -1.03438382    -0.48144423
     22      C     3.18677702    -0.75525213    -0.19714474
     23      H     3.45425236     2.56906185     0.40307638
     24      H     5.81403628     2.06876256    -0.10114313
     25      H     6.50280706    -0.23978419    -0.67033072
     26      H     4.80998996    -2.04674238    -0.73496404
     27      H     2.44794946    -1.54778597    -0.23241798
     28      H     0.37143848     0.43377466    -1.79463597
     29      H    -0.51069738    -1.57759155     0.09600143
     30      H    -0.96611197    -0.82959272     2.32865036
     31      H    -1.18967774     0.84944919     1.80251548
     32      H     1.41277675    -0.73520154     1.94784329
     33      H     1.08194813     0.86956521     2.62433120
     34      H     1.20656795     1.91915236     0.49495443
     35      H    -1.16742366    -4.58212912    -3.43521356
     36      C    -1.24226561    -2.47144226    -3.31378125
     37      C    -0.77226442    -3.67528813    -2.99066112
     38      C     0.31624944    -3.82388946    -2.00843987
     39      O     0.80623691    -2.90233007    -1.40402696
     40      H    -0.83119632    -1.57553193    -2.86548085
     41      H     0.65939302    -4.86833194    -1.85796068
     42      H    -2.04081200    -2.32753707    -4.02795393
 
Total System Charge             0.00000
Bonding info available!
 
 
----------------
ADF Engine Input
----------------
 
 Basis
 Type TZ2P
 Core None
 End
 XC
 GGA OLYP
 End
 

 Title: *** (NO TITLE) ***

 Using automatic Hessian for delocalized coordinates.
 *** GOStep1 ***

 Energy gradients wrt nuclear displacements
 ==========================================

     Atom      Cartesian (a.u./angstrom)
                 X         Y         Z
 ----------------------------------------
     1 B    -0.001044  0.004710 -0.011546
     2 C     0.013864 -0.009408 -0.003978
     3 C    -0.010120  0.000384 -0.002556
     4 C     0.011536 -0.002515 -0.002922
     5 C    -0.009758  0.011376 -0.002130
     6 C    -0.016201  0.007948 -0.002439
     7 C     0.002787 -0.002328  0.001803
     8 C     0.003228 -0.008167  0.000768
     9 C     0.008883  0.000092  0.003590
    10 C     0.005068  0.006251  0.001027
    11 C     0.005500  0.002891 -0.001557
    12 H    -0.000273 -0.003765 -0.000431
    13 H     0.002196 -0.004060  0.000995
    14 H     0.004552 -0.000410  0.001488
    15 H     0.003233  0.003814  0.000773
    16 H    -0.000233  0.001292 -0.001176
    17 C     0.014093 -0.013169  0.001674
    18 C    -0.004612 -0.002695  0.000715
    19 C    -0.005626 -0.006335 -0.000025
    20 C    -0.008796  0.001772  0.001858
    21 C    -0.002494  0.006605  0.001380
    22 C     0.000646  0.004981 -0.000079
    23 H     0.001384 -0.003520 -0.000880
    24 H    -0.003388 -0.003056 -0.000110
    25 H    -0.004294  0.001135  0.001000
    26 H    -0.001059  0.004685  0.001345
    27 H    -0.003323  0.001817  0.000407
    28 H    -0.000438 -0.004144  0.011097
    29 H    -0.002503 -0.003539  0.001717
    30 H     0.005961 -0.000592 -0.004871
    31 H     0.002487  0.000771 -0.002400
    32 H    -0.001437 -0.001129 -0.002044
    33 H    -0.004708  0.001703 -0.005616
    34 H     0.002255 -0.003438  0.002947
    35 H     0.002502  0.005440  0.002813
    36 C     0.004187 -0.011892  0.007538
    37 C    -0.002045  0.004955  0.002005
    38 C     0.016184  0.023761  0.021418
    39 O    -0.027122 -0.021001 -0.025495
    40 H    -0.001768  0.000176  0.000436
    41 H    -0.005228  0.005913 -0.004226
    42 H     0.005925  0.002693  0.005690
 ----------------------------------------
 Mulliken charges used for AMS results%charges...
 
----------------------------------------------------------------------
Geometry Convergence after Step   1       (Hartree/Angstrom,Angstrom)
----------------------------------------------------------------------
current energy                               -9.16992008 Hartree
energy change                      -9.16992008     0.00042000    F
constrained gradient max            0.02706118     0.00100000    F
constrained gradient rms            0.00705469     0.00066667    F
gradient max                        0.02706118
gradient rms                        0.00705469
cart. step max                      0.13423754     0.01000000    F
cart. step rms                      0.03955199     0.00666667    F
 
 
--------
Geometry
--------
Formula: C19H21BO
Atoms
  Index Symbol   x (angstrom)   y (angstrom)   z (angstrom)
      1      B     0.33196191     0.26032184    -0.59399267
      2      C    -0.82107061    -0.51189773     0.16287516
      3      C    -0.62518001    -0.07178297     1.64167056
      4      C     0.88385633     0.17767929     1.80930712
      5      C     1.38001362     0.79276740     0.46693786
      6      C    -2.23512361    -0.37522698    -0.35782414
      7      C    -2.81276106     0.88504283    -0.57537433
      8      C    -4.11695948     1.01051591    -1.04974285
      9      C    -4.87990893    -0.12479690    -1.31895917
     10      C    -4.32417073    -1.38440173    -1.10926527
     11      C    -3.01622062    -1.50481369    -0.63931592
     12      H    -2.23502506     1.78274753    -0.37033226
     13      H    -4.54088312     1.99873725    -1.20983860
     14      H    -5.89806735    -0.02756640    -1.68616210
     15      H    -4.91090859    -2.27740300    -1.31110123
     16      H    -2.59860153    -2.49289706    -0.47199433
     17      C     2.83951267     0.53135794     0.14605281
     18      C     3.78459116     1.56444636     0.17094425
     19      C     5.12702645     1.32265476    -0.12190998
     20      C     5.55278576     0.03767156    -0.44850195
     21      C     4.62458570    -1.00128177    -0.47870960
     22      C     3.28550472    -0.75741581    -0.18508462
     23      H     3.46747546     2.57339302     0.42263364
     24      H     5.84198463     2.14116846    -0.09469615
     25      H     6.59768459    -0.15290449    -0.67870727
     26      H     4.94422750    -2.00777482    -0.73763108
     27      H     2.57934614    -1.57859428    -0.22036297
     28      H     0.40404090     0.43064144    -1.77131913
     29      H    -0.53832940    -1.57230478     0.09855339
     30      H    -0.99477902    -0.82430111     2.34561674
     31      H    -1.18042944     0.85455976     1.82337206
     32      H     1.40061262    -0.77082529     1.98428169
     33      H     1.09271409     0.83105570     2.66224567
     34      H     1.24443936     1.88442547     0.51946250
     35      H    -1.22824743    -4.62340068    -3.43526599
     36      C    -1.31379962    -2.50605390    -3.35241982
     37      C    -0.83010395    -3.70623077    -3.00640773
     38      C     0.26119714    -3.84895007    -2.01397545
     39      O     0.77026209    -2.92365945    -1.39138787
     40      H    -0.89793021    -1.60025139    -2.92860666
     41      H     0.59841123    -4.89752033    -1.84917045
     42      H    -2.12098002    -2.38393864    -4.06715649
 
Total System Charge             0.00000
Bonding info available!
 
 *** GOStep2 ***

 Energy gradients wrt nuclear displacements
 ==========================================

     Atom      Cartesian (a.u./angstrom)
                 X         Y         Z
 ----------------------------------------
     1 B    -0.000937  0.002909 -0.004356
     2 C     0.012993 -0.012796 -0.002621
     3 C    -0.006069  0.000044 -0.001094
     4 C     0.005222 -0.001735 -0.000792
     5 C    -0.007691  0.012705  0.000103
     6 C    -0.002793  0.004411  0.000006
     7 C     0.001310  0.001166  0.000799
     8 C    -0.000626 -0.000914 -0.000520
     9 C     0.001235  0.000097  0.000498
    10 C    -0.001047  0.000692 -0.000011
    11 C     0.004580 -0.002038 -0.004177
    12 H     0.000157 -0.001944  0.000024
    13 H     0.000175 -0.001274  0.000341
    14 H     0.001324 -0.000082  0.000386
    15 H     0.000482  0.001397  0.000121
    16 H     0.000524  0.001196 -0.000412
    17 C     0.002073 -0.005969 -0.000021
    18 C    -0.002433  0.000518  0.000972
    19 C     0.000954 -0.001582 -0.000034
    20 C    -0.001397  0.000264  0.000220
    21 C     0.000188  0.000434 -0.000133
    22 C    -0.000195 -0.000533 -0.000936
    23 H     0.000367 -0.001757 -0.000460
    24 H    -0.000473 -0.001297 -0.000186
    25 H    -0.001167  0.000242  0.000263
    26 H     0.000289  0.001503  0.000296
    27 H    -0.000135  0.002340  0.000496
    28 H    -0.000006 -0.002707  0.006255
    29 H    -0.003129 -0.002807  0.001351
    30 H     0.003176 -0.001220 -0.002333
    31 H     0.001586 -0.000098 -0.001514
    32 H    -0.000873  0.000513 -0.001125
    33 H    -0.002869  0.001664 -0.002641
    34 H     0.003697 -0.001993  0.002589
    35 H     0.000238  0.002170  0.000351
    36 C    -0.001069 -0.000249  0.005547
    37 C    -0.003438 -0.004436 -0.001691
    38 C    -0.002510 -0.008678 -0.002594
    39 O    -0.000266  0.017394  0.007008
    40 H    -0.000736 -0.000863 -0.000291
    41 H    -0.002361  0.000107 -0.001676
    42 H     0.001650  0.003203  0.001990
 ----------------------------------------
 Mulliken charges used for AMS results%charges...

 dE(predicted):    -0.39212E-02, dE(actual):    -0.43708E-02, Trust radius:    0.400000, all in a.u.
 
----------------------------------------------------------------------
Geometry Convergence after Step   2       (Hartree/Angstrom,Angstrom)
----------------------------------------------------------------------
current energy                               -9.17429087 Hartree
energy change                      -0.00437079     0.00042000    F
constrained gradient max            0.01738772     0.00100000    F
constrained gradient rms            0.00343440     0.00066667    F
gradient max                        0.01738772
gradient rms                        0.00343440
cart. step max                      0.08174223     0.01000000    F
cart. step rms                      0.02739001     0.00666667    F
 
 
--------
Geometry
--------
Formula: C19H21BO
Atoms
  Index Symbol   x (angstrom)   y (angstrom)   z (angstrom)
      1      B     0.33634383     0.26895640    -0.57404661
      2      C    -0.84288823    -0.47970560     0.16902273
      3      C    -0.63603940    -0.05947296     1.65719662
      4      C     0.88276679     0.12811421     1.83155252
      5      C     1.40085365     0.75060552     0.49636317
      6      C    -2.25534436    -0.34952865    -0.36615797
      7      C    -2.84290859     0.90727019    -0.59490355
      8      C    -4.14814050     1.02581625    -1.07232021
      9      C    -4.90828149    -0.11467189    -1.33771258
     10      C    -4.34482473    -1.37183167    -1.12095416
     11      C    -3.03628031    -1.48354181    -0.64633364
     12      H    -2.27428248     1.81306101    -0.39270038
     13      H    -4.57373337     2.01350878    -1.23976300
     14      H    -5.92866391    -0.02312393    -1.70404047
     15      H    -4.92807906    -2.27042426    -1.31490498
     16      H    -2.62077181    -2.47043010    -0.46277096
     17      C     2.86334899     0.50935783     0.16347114
     18      C     3.79833814     1.55578415     0.17960091
     19      C     5.14060067     1.33781475    -0.13767692
     20      C     5.58353446     0.05921171    -0.47575187
     21      C     4.66895925    -0.99464592    -0.49371829
     22      C     3.32924579    -0.77258178    -0.17893135
     23      H     3.47099460     2.56048661     0.44146888
     24      H     5.84211972     2.16962199    -0.11726712
     25      H     6.62823877    -0.11472491    -0.72494831
     26      H     4.99687432    -1.99695359    -0.76413629
     27      H     2.63991062    -1.60949180    -0.21434657
     28      H     0.41276227     0.46568651    -1.75277831
     29      H    -0.55873237    -1.53947420     0.09485052
     30      H    -1.04203131    -0.79981654     2.35644914
     31      H    -1.16073253     0.88319832     1.85052672
     32      H     1.36566329    -0.84200399     1.98901507
     33      H     1.12296827     0.74931346     2.70192932
     34      H     1.26311466     1.84345034     0.55724676
     35      H    -1.18939329    -4.64964391    -3.41264716
     36      C    -1.33833617    -2.53596108    -3.36427810
     37      C    -0.81396974    -3.71491692    -2.99655252
     38      C     0.27603034    -3.83549384    -1.99771294
     39      O     0.76893546    -2.91244497    -1.36871758
     40      H    -0.94368937    -1.60674690    -2.96966792
     41      H     0.63993335    -4.87630908    -1.83208490
     42      H    -2.15165998    -2.46432528    -4.08213143
 
Total System Charge             0.00000
Bonding info available!
 
 *** GOStep3 ***

 Energy gradients wrt nuclear displacements
 ==========================================

     Atom      Cartesian (a.u./angstrom)
                 X         Y         Z
 ----------------------------------------
     1 B    -0.000281  0.002627 -0.000652
     2 C     0.010666 -0.012932 -0.002080
     3 C    -0.002823  0.001700 -0.000475
     4 C     0.001721 -0.001793  0.001228
     5 C    -0.005700  0.010146  0.000900
     6 C     0.001288  0.001662 -0.000969
     7 C    -0.000367  0.001245 -0.000168
     8 C    -0.000586  0.001324  0.000158
     9 C    -0.001132  0.000152 -0.000258
    10 C    -0.001064 -0.001164 -0.000553
    11 C     0.002831 -0.003558 -0.006028
    12 H     0.000086 -0.000076  0.000229
    13 H    -0.000270  0.000292 -0.000174
    14 H    -0.000374  0.000181  0.000071
    15 H    -0.000519 -0.000018  0.000041
    16 H     0.000336  0.000614  0.000460
    17 C    -0.000913 -0.001826 -0.001140
    18 C     0.000228  0.000900  0.000880
    19 C     0.001128  0.000943 -0.000418
    20 C     0.001024 -0.000139 -0.000191
    21 C     0.000037 -0.001497 -0.000169
    22 C     0.000235 -0.001569 -0.000563
    23 H    -0.000012 -0.000178 -0.000011
    24 H     0.000480 -0.000019 -0.000010
    25 H     0.000355 -0.000183 -0.000159
    26 H     0.000305 -0.000224 -0.000361
    27 H     0.000397  0.000379 -0.000202
    28 H     0.000059 -0.001619  0.001579
    29 H    -0.003285 -0.001778  0.000365
    30 H     0.001216 -0.000785 -0.000414
    31 H     0.000071 -0.000757 -0.000002
    32 H     0.000218  0.000943  0.000301
    33 H    -0.001119  0.000828 -0.000363
    34 H     0.003949 -0.001469  0.001210
    35 H    -0.000028  0.000360 -0.000424
    36 C    -0.004975  0.003617  0.005202
    37 C     0.000402 -0.002962 -0.000918
    38 C    -0.001434  0.000762  0.002874
    39 O    -0.002943  0.003655  0.001712
    40 H     0.001015 -0.000529 -0.000808
    41 H     0.000485  0.000748  0.000415
    42 H    -0.000706  0.001997 -0.000115
 ----------------------------------------
 Mulliken charges used for AMS results%charges...

 dE(predicted):    -0.10827E-02, dE(actual):    -0.15088E-02, Trust radius:    0.400000, all in a.u.
 
----------------------------------------------------------------------
Geometry Convergence after Step   3       (Hartree/Angstrom,Angstrom)
----------------------------------------------------------------------
current energy                               -9.17579963 Hartree
energy change                      -0.00150876     0.00042000    F
constrained gradient max            0.01293606     0.00100000    F
constrained gradient rms            0.00235446     0.00066667    F
gradient max                        0.01293606
gradient rms                        0.00235446
cart. step max                      0.11869862     0.01000000    F
cart. step rms                      0.03247763     0.00666667    F
 
 
--------
Geometry
--------
Formula: C19H21BO
Atoms
  Index Symbol   x (angstrom)   y (angstrom)   z (angstrom)
      1      B     0.33297172     0.29398125    -0.57372047
      2      C    -0.86652831    -0.42896687     0.16211239
      3      C    -0.63807774    -0.04494791     1.66037706
      4      C     0.88916060     0.05981940     1.82563446
      5      C     1.41971274     0.70278336     0.50332451
      6      C    -2.28156014    -0.31254688    -0.36737748
      7      C    -2.87962723     0.93738135    -0.60825737
      8      C    -4.18443018     1.04191680    -1.08991362
      9      C    -4.93713657    -0.10671490    -1.34442001
     10      C    -4.36563126    -1.35755297    -1.10884070
     11      C    -3.05655088    -1.45517827    -0.63366540
     12      H    -2.31852288     1.85207072    -0.42037964
     13      H    -4.61495752     2.02626047    -1.26829871
     14      H    -5.95719435    -0.02616106    -1.71610420
     15      H    -4.94065439    -2.26387361    -1.29488078
     16      H    -2.63675467    -2.43884429    -0.43858347
     17      C     2.88349995     0.48629375     0.16507322
     18      C     3.80397718     1.54643255     0.17671442
     19      C     5.14952386     1.34760799    -0.13798060
     20      C     5.61287457     0.07413123    -0.47144277
     21      C     4.71290518    -0.99296943    -0.48532097
     22      C     3.36935768    -0.78975523    -0.17284284
     23      H     3.46287773     2.54782248     0.43824064
     24      H     5.83729255     2.19160104    -0.11945178
     25      H     6.66107549    -0.08606524    -0.71764232
     26      H     5.05428828    -1.99424590    -0.74577019
     27      H     2.69646447    -1.64167520    -0.20096249
     28      H     0.40420783     0.53269111    -1.75057686
     29      H    -0.56813466    -1.48491915     0.06935844
     30      H    -1.08247939    -0.77367060     2.35045048
     31      H    -1.11813756     0.91753473     1.87698721
     32      H     1.32560805    -0.93883245     1.94329456
     33      H     1.17656294     0.63061485     2.71726608
     34      H     1.26986258     1.79558300     0.58518878
     35      H    -1.14834219    -4.68093167    -3.37567275
     36      C    -1.37239406    -2.57636484    -3.36986813
     37      C    -0.79634943    -3.72491380    -2.98424970
     38      C     0.31750179    -3.80743530    -2.00846999
     39      O     0.78479338    -2.87585881    -1.37318198
     40      H    -1.01801911    -1.62020683    -2.99979328
     41      H     0.70583085    -4.83999794    -1.83676074
     42      H    -2.19611261    -2.56890444    -4.08085561
 
Total System Charge             0.00000
Bonding info available!
 
 *** GOStep4 ***

 Energy gradients wrt nuclear displacements
 ==========================================

     Atom      Cartesian (a.u./angstrom)
                 X         Y         Z
 ----------------------------------------
     1 B     0.001148  0.001947  0.002497
     2 C     0.006749 -0.010790 -0.002880
     3 C    -0.000006  0.002702  0.000167
     4 C    -0.000889 -0.001626  0.001843
     5 C    -0.002639  0.005669  0.001037
     6 C     0.001408  0.000051 -0.001487
     7 C    -0.001673  0.000188  0.000181
     8 C     0.000487  0.001639  0.000097
     9 C    -0.001448 -0.000038 -0.000812
    10 C    -0.000306 -0.001157  0.000885
    11 C     0.001655 -0.003765 -0.006906
    12 H    -0.000009  0.001459 -0.000080
    13 H    -0.000350  0.001180 -0.000096
    14 H    -0.001149  0.000309 -0.000309
    15 H    -0.000627 -0.000876 -0.000245
    16 H     0.000010 -0.000164  0.000617
    17 C    -0.000908  0.000686 -0.001958
    18 C     0.001843  0.000265 -0.000257
    19 C     0.000193  0.001382  0.000578
    20 C     0.001531 -0.000341 -0.000452
    21 C    -0.000299 -0.001300 -0.000414
    22 C     0.000024 -0.000335 -0.001078
    23 H    -0.000221  0.001002  0.000417
    24 H     0.000654  0.000762  0.000052
    25 H     0.001047 -0.000429 -0.000329
    26 H     0.000079 -0.001328 -0.000154
    27 H     0.000489 -0.001611  0.000053
    28 H    -0.000106  0.000095 -0.002575
    29 H    -0.002131 -0.000699 -0.000372
    30 H    -0.000421 -0.000240  0.001142
    31 H    -0.001305 -0.000905  0.001410
    32 H     0.001334  0.000537  0.001443
    33 H     0.000284 -0.000192  0.001180
    34 H     0.002842 -0.000761 -0.000195
    35 H    -0.000751 -0.001185 -0.000006
    36 C    -0.005037  0.004212  0.004218
    37 C    -0.000408  0.000817  0.001184
    38 C     0.003089  0.002855 -0.004603
    39 O    -0.003602  0.000616  0.004189
    40 H     0.000947  0.000140  0.000401
    41 H    -0.000270 -0.000526  0.003257
    42 H    -0.001255 -0.000245 -0.001642
 ----------------------------------------
 Mulliken charges used for AMS results%charges...

 dE(predicted):    -0.10040E-02, dE(actual):    -0.10507E-02, Trust radius:    0.800000, all in a.u.
 
----------------------------------------------------------------------
Geometry Convergence after Step   4       (Hartree/Angstrom,Angstrom)
----------------------------------------------------------------------
current energy                               -9.17685036 Hartree
energy change                      -0.00105074     0.00042000    F
constrained gradient max            0.01079109     0.00100000    F
constrained gradient rms            0.00205201     0.00066667    F
gradient max                        0.01079109
gradient rms                        0.00205201
cart. step max                      0.21154531     0.01000000    F
cart. step rms                      0.05782074     0.00666667    F
 
 
--------
Geometry
--------
Formula: C19H21BO
Atoms
  Index Symbol   x (angstrom)   y (angstrom)   z (angstrom)
      1      B     0.32618308     0.32099673    -0.58967544
      2      C    -0.90515170    -0.34319411     0.14472066
      3      C    -0.63767978    -0.01627595     1.65184948
      4      C     0.89190083    -0.06030245     1.78850196
      5      C     1.44171345     0.61445328     0.49160557
      6      C    -2.32312278    -0.24345679    -0.36566896
      7      C    -2.92759025     0.99696374    -0.62982478
      8      C    -4.23623388     1.08352270    -1.10291773
      9      C    -4.98187801    -0.07460565    -1.33275256
     10      C    -4.39975253    -1.31657228    -1.07778000
     11      C    -3.09119259    -1.39669287    -0.60131142
     12      H    -2.37147062     1.91979537    -0.46516649
     13      H    -4.67314106     2.06241178    -1.29628737
     14      H    -6.00370975    -0.00835774    -1.70279731
     15      H    -4.96804717    -2.23130941    -1.24333156
     16      H    -2.66676957    -2.37556027    -0.38844898
     17      C     2.90999812     0.44083209     0.16984284
     18      C     3.79636560     1.52871103     0.17543422
     19      C     5.14803551     1.36941756    -0.13099016
     20      C     5.65487828     0.10724207    -0.44266884
     21      C     4.78873418    -0.98711183    -0.44701602
     22      C     3.43711565    -0.82286086    -0.14689987
     23      H     3.42208160     2.52315140     0.42056473
     24      H     5.80657869     2.23676032    -0.12084239
     25      H     6.70898702    -0.02254768    -0.68200337
     26      H     5.15977261    -1.98086993    -0.69684965
     27      H     2.78985308    -1.69513357    -0.18160748
     28      H     0.39013730     0.61910366    -1.75933416
     29      H    -0.58450126    -1.39416195     0.02867561
     30      H    -1.14596532    -0.71487716     2.33068735
     31      H    -1.02684386     0.98091281     1.89909711
     32      H     1.23651167    -1.10150361     1.83233921
     33      H     1.25718871     0.41906954     2.70612755
     34      H     1.26203761     1.70441273     0.61067517
     35      H    -1.05011525    -4.74126562    -3.36316918
     36      C    -1.42094773    -2.66195946    -3.35795531
     37      C    -0.76541770    -3.76377271    -2.96647222
     38      C     0.35535589    -3.79174981    -1.99806613
     39      O     0.79399593    -2.83664641    -1.37615397
     40      H    -1.12956123    -1.67287960    -3.01850527
     41      H     0.87666542    -4.77837654    -1.93114923
     42      H    -2.25224393    -2.74272007    -4.05573820
 
Total System Charge             0.00000
Bonding info available!
 
 *** GOStep5 ***

 Energy gradients wrt nuclear displacements
 ==========================================

     Atom      Cartesian (a.u./angstrom)
                 X         Y         Z
 ----------------------------------------
     1 B     0.003673 -0.000904  0.006479
     2 C    -0.002370 -0.004717 -0.004702
     3 C     0.004066  0.003403  0.000740
     4 C    -0.004151 -0.001899  0.000137
     5 C     0.002674 -0.000581 -0.001026
     6 C    -0.000891 -0.001629 -0.000532
     7 C    -0.001141 -0.001786 -0.000923
     8 C     0.001359  0.000915  0.000602
     9 C    -0.001151 -0.000288 -0.000154
    10 C     0.001781 -0.000062 -0.000093
    11 C     0.001446 -0.002848 -0.005924
    12 H    -0.000317  0.002626  0.000031
    13 H    -0.000029  0.001589  0.000013
    14 H    -0.001281  0.000333 -0.000414
    15 H    -0.000373 -0.001293  0.000054
    16 H    -0.000469 -0.001138  0.000652
    17 C     0.000770  0.002344 -0.001448
    18 C     0.002730 -0.001270 -0.000285
    19 C    -0.001304  0.000727  0.000055
    20 C     0.001139 -0.000286 -0.000203
    21 C     0.000065 -0.000104  0.000313
    22 C    -0.000405  0.001515  0.001035
    23 H    -0.000437  0.001884  0.000400
    24 H     0.000462  0.001165  0.000136
    25 H     0.001266 -0.000393 -0.000413
    26 H    -0.000376 -0.001754 -0.000528
    27 H     0.000663 -0.002539 -0.000723
    28 H    -0.000875  0.003500 -0.006497
    29 H     0.001326  0.000841 -0.000609
    30 H    -0.002142  0.000566  0.002496
    31 H    -0.002456 -0.000450  0.002468
    32 H     0.002028 -0.000722  0.001959
    33 H     0.001802 -0.001650  0.002214
    34 H     0.000164  0.000012 -0.001531
    35 H     0.001018 -0.002248 -0.001410
    36 C    -0.004450  0.004044  0.004627
    37 C     0.004592  0.008254 -0.005191
    38 C    -0.020015 -0.006214  0.017902
    39 O     0.004329  0.002988 -0.003369
    40 H     0.002667  0.001140 -0.001145
    41 H     0.006999  0.000677 -0.005304
    42 H    -0.002383 -0.003746  0.000111
 ----------------------------------------
 Mulliken charges used for AMS results%charges...

 dE(predicted):    -0.12275E-02, dE(actual):    -0.14419E-03, Trust radius:    0.191839, all in a.u.
 
----------------------------------------------------------------------
Geometry Convergence after Step   5       (Hartree/Angstrom,Angstrom)
----------------------------------------------------------------------
current energy                               -9.17699456 Hartree
energy change                      -0.00014419     0.00042000    T
constrained gradient max            0.01993694     0.00100000    F
constrained gradient rms            0.00342132     0.00066667    F
gradient max                        0.01993694
gradient rms                        0.00342132
cart. step max                      0.04459784     0.01000000    F
cart. step rms                      0.01051714     0.00666667    F
 
 
--------
Geometry
--------
Formula: C19H21BO
Atoms
  Index Symbol   x (angstrom)   y (angstrom)   z (angstrom)
      1      B     0.32319974     0.32743188    -0.59985915
      2      C    -0.90380811    -0.34026627     0.13350880
      3      C    -0.64076916    -0.02090820     1.64002477
      4      C     0.88711086    -0.06104936     1.77791585
      5      C     1.43420928     0.61708714     0.48510725
      6      C    -2.32111924    -0.23893067    -0.37022384
      7      C    -2.92312919     1.00254774    -0.62890525
      8      C    -4.23520092     1.09112090    -1.09180079
      9      C    -4.98326111    -0.06545053    -1.31626136
     10      C    -4.40257704    -1.30829552    -1.06628511
     11      C    -3.09136852    -1.39083710    -0.59753430
     12      H    -2.36154050     1.92134410    -0.46633390
     13      H    -4.67286903     2.06950167    -1.28231707
     14      H    -6.00735230     0.00243161    -1.67770648
     15      H    -4.97507446    -2.22060065    -1.22647115
     16      H    -2.66630233    -2.36922337    -0.38597336
     17      C     2.90153092     0.44056732     0.17063551
     18      C     3.78952013     1.52564833     0.18087911
     19      C     5.14097880     1.36192477    -0.12376663
     20      C     5.64301468     0.09935992    -0.43764651
     21      C     4.77422808    -0.99187505    -0.44752429
     22      C     3.42318938    -0.82370278    -0.14901065
     23      H     3.41752067     2.51964340     0.42710849
     24      H     5.80335274     2.22555579    -0.11031445
     25      H     6.69653541    -0.03287817    -0.67539162
     26      H     5.14369864    -1.98443244    -0.70135883
     27      H     2.76881281    -1.68938338    -0.18971286
     28      H     0.39263594     0.62227014    -1.76676016
     29      H    -0.57755196    -1.39012027     0.01248708
     30      H    -1.14778445    -0.72447214     2.31310848
     31      H    -1.02824635     0.97668754     1.88640160
     32      H     1.22962028    -1.10261772     1.81496900
     33      H     1.25027200     0.41814156     2.69555337
     34      H     1.25229284     1.70626242     0.61038811
     35      H    -1.03341830    -4.75429287    -3.34686563
     36      C    -1.40974316    -2.67540496    -3.35169260
     37      C    -0.74565223    -3.77358374    -2.96337332
     38      C     0.39995373    -3.77936442    -2.02495309
     39      O     0.81868059    -2.82182315    -1.39480088
     40      H    -1.12405659    -1.68526657    -3.01244321
     41      H     0.89454291    -4.77470625    -1.91628583
     42      H    -2.24132121    -2.75504819    -4.04777770
 
Total System Charge             0.00000
Bonding info available!
 
 *** GOStep6 ***

 Energy gradients wrt nuclear displacements
 ==========================================

     Atom      Cartesian (a.u./angstrom)
                 X         Y         Z
 ----------------------------------------
     1 B     0.002538  0.000085  0.004308
     2 C    -0.002164 -0.003357 -0.004047
     3 C     0.003072  0.001785  0.000653
     4 C    -0.002801 -0.000588  0.000166
     5 C     0.001839 -0.001826 -0.001647
     6 C    -0.001003 -0.000616 -0.000702
     7 C     0.000040 -0.001440 -0.000422
     8 C     0.000445  0.000144  0.000535
     9 C    -0.000453 -0.000082  0.000106
    10 C     0.001182  0.000422 -0.000908
    11 C     0.002884 -0.002401 -0.004704
    12 H    -0.000326  0.001348  0.000199
    13 H     0.000158  0.000758  0.000050
    14 H    -0.000509  0.000227 -0.000003
    15 H    -0.000127 -0.000522  0.000266
    16 H    -0.000513 -0.000553  0.000640
    17 C     0.000883  0.001138 -0.000198
    18 C     0.001216 -0.000962  0.000014
    19 C    -0.000923  0.000006 -0.000393
    20 C     0.000287 -0.000279  0.000014
    21 C     0.000498  0.000246  0.000190
    22 C    -0.000568  0.001363  0.001294
    23 H    -0.000172  0.000828  0.000167
    24 H     0.000117  0.000465  0.000128
    25 H     0.000456 -0.000231 -0.000190
    26 H    -0.000400 -0.000791 -0.000428
    27 H     0.000177 -0.001454 -0.000698
    28 H    -0.000574  0.002606 -0.004242
    29 H     0.002096  0.000180 -0.000322
    30 H    -0.001308  0.000294  0.001498
    31 H    -0.001285 -0.000239  0.001421
    32 H     0.000856 -0.000502  0.000969
    33 H     0.001205 -0.001080  0.001351
    34 H    -0.000460 -0.000009 -0.000953
    35 H     0.000180 -0.001313 -0.000419
    36 C    -0.004650  0.004579  0.004950
    37 C     0.000797  0.003218  0.000265
    38 C    -0.003774  0.000767  0.001536
    39 O    -0.001038  0.000547  0.001168
    40 H     0.000931  0.000468 -0.000450
    41 H     0.001245 -0.000714 -0.000330
    42 H    -0.000059 -0.002516 -0.000834
 ----------------------------------------
 Mulliken charges used for AMS results%charges...

 dE(predicted):    -0.90119E-03, dE(actual):    -0.79340E-03, Trust radius:    0.383677, all in a.u.
 
----------------------------------------------------------------------
Geometry Convergence after Step   6       (Hartree/Angstrom,Angstrom)
----------------------------------------------------------------------
current energy                               -9.17778795 Hartree
energy change                      -0.00079340     0.00042000    F
constrained gradient max            0.00498994     0.00100000    F
constrained gradient rms            0.00155709     0.00066667    F
gradient max                        0.00498994
gradient rms                        0.00155709
cart. step max                      0.03765834     0.01000000    F
cart. step rms                      0.01219904     0.00666667    F
 
 
--------
Geometry
--------
Formula: C19H21BO
Atoms
  Index Symbol   x (angstrom)   y (angstrom)   z (angstrom)
      1      B     0.31476161     0.31976827    -0.60627485
      2      C    -0.90301113    -0.35081140     0.13466822
      3      C    -0.64117203    -0.02714528     1.63709181
      4      C     0.88680029    -0.04142799     1.77348193
      5      C     1.42243175     0.63013955     0.47564888
      6      C    -2.32063666    -0.24422458    -0.36274032
      7      C    -2.91773282     1.00046893    -0.61634080
      8      C    -4.22904724     1.09467934    -1.08084172
      9      C    -4.98173577    -0.05856146    -1.30399168
     10      C    -4.40851228    -1.30410640    -1.05232996
     11      C    -3.09447805    -1.39264680    -0.59150941
     12      H    -2.34690077     1.91338134    -0.45866503
     13      H    -4.66365722     2.07364609    -1.27245883
     14      H    -6.00412329     0.01367861    -1.66799191
     15      H    -4.98393326    -2.21266100    -1.21986806
     16      H    -2.66819830    -2.37222748    -0.39059261
     17      C     2.88725333     0.44722496     0.15734623
     18      C     3.78106081     1.52702648     0.17081644
     19      C     5.13453136     1.35267365    -0.12047110
     20      C     5.62813401     0.08734829    -0.43440539
     21      C     4.75226922    -0.99773466    -0.45323779
     22      C     3.40092988    -0.82005560    -0.16332402
     23      H     3.41504700     2.52148259     0.42025605
     24      H     5.80467645     2.20956462    -0.09950617
     25      H     6.68272575    -0.05257263    -0.66070886
     26      H     5.12057004    -1.99283275    -0.69621292
     27      H     2.74001246    -1.67998663    -0.19391063
     28      H     0.39075019     0.58975837    -1.77412129
     29      H    -0.57896591    -1.40190755     0.01172622
     30      H    -1.13514662    -0.73758472     2.31070296
     31      H    -1.03795823     0.96785216     1.87636420
     32      H     1.24221021    -1.07764586     1.81749823
     33      H     1.24065685     0.45579991     2.68397453
     34      H     1.24166512     1.71972906     0.59693697
     35      H    -1.01811191    -4.75322018    -3.36296276
     36      C    -1.38399955    -2.67151687    -3.34710224
     37      C    -0.72503722    -3.77788708    -2.97323360
     38      C     0.42330698    -3.78315669    -2.03765855
     39      O     0.83095230    -2.82549463    -1.39985812
     40      H    -1.09811897    -1.68980892    -2.98580122
     41      H     0.91190826    -4.77927096    -1.92170883
     42      H    -2.21942233    -2.72674161    -4.03994666
 
Total System Charge             0.00000
Bonding info available!
 
 *** GOStep7 ***

 Energy gradients wrt nuclear displacements
 ==========================================

     Atom      Cartesian (a.u./angstrom)
                 X         Y         Z
 ----------------------------------------
     1 B     0.000482  0.001028  0.001100
     2 C    -0.000413 -0.002085 -0.002669
     3 C     0.001275 -0.000381  0.000905
     4 C    -0.000904  0.000912  0.000495
     5 C     0.000576 -0.002615 -0.000411
     6 C    -0.000061  0.000118  0.000042
     7 C     0.000374 -0.000293  0.001140
     8 C    -0.000318 -0.000068 -0.000407
     9 C     0.000160  0.000145 -0.000317
    10 C    -0.000735  0.000302  0.001082
    11 C     0.004212 -0.002306 -0.004771
    12 H     0.000023 -0.000028 -0.000324
    13 H     0.000078  0.000068  0.000225
    14 H     0.000155  0.000121 -0.000037
    15 H     0.000128  0.000110 -0.000303
    16 H    -0.000258  0.000121  0.000062
    17 C    -0.000134  0.000157  0.000407
    18 C    -0.000308  0.000182 -0.001053
    19 C     0.000205 -0.000335  0.000813
    20 C    -0.000117 -0.000235 -0.000267
    21 C     0.000431  0.000159 -0.000621
    22 C    -0.000723  0.000559 -0.000973
    23 H     0.000136 -0.000242  0.000242
    24 H    -0.000034 -0.000125  0.000046
    25 H    -0.000125 -0.000107  0.000029
    26 H    -0.000063 -0.000137  0.000451
    27 H    -0.000054 -0.000399  0.000451
    28 H     0.000130  0.000945 -0.000937
    29 H     0.002076 -0.000713 -0.000370
    30 H    -0.000312 -0.000022  0.000205
    31 H     0.000121 -0.000028  0.000065
    32 H    -0.000201 -0.000135 -0.000133
    33 H     0.000379 -0.000281  0.000204
    34 H    -0.000519  0.000189 -0.000184
    35 H    -0.000405 -0.000097  0.000291
    36 C    -0.003057  0.003973  0.003758
    37 C     0.000077 -0.000429  0.001284
    38 C     0.001065  0.001169 -0.002508
    39 O    -0.002253  0.001818  0.002672
    40 H    -0.000595  0.000011  0.000023
    41 H    -0.000859 -0.000384  0.000522
    42 H     0.000367 -0.000641 -0.000226
 ----------------------------------------
 Mulliken charges used for AMS results%charges...

 dE(predicted):    -0.27089E-03, dE(actual):    -0.28949E-03, Trust radius:    0.383677, all in a.u.
 
----------------------------------------------------------------------
Geometry Convergence after Step   7       (Hartree/Angstrom,Angstrom)
----------------------------------------------------------------------
current energy                               -9.17807745 Hartree
energy change                      -0.00028949     0.00042000    T
constrained gradient max            0.00478185     0.00100000    F
constrained gradient rms            0.00111424     0.00066667    F
gradient max                        0.00478185
gradient rms                        0.00111424
cart. step max                      0.04938027     0.01000000    F
cart. step rms                      0.01716214     0.00666667    F
 
 
--------
Geometry
--------
Formula: C19H21BO
Atoms
  Index Symbol   x (angstrom)   y (angstrom)   z (angstrom)
      1      B     0.31019510     0.30154159    -0.61681542
      2      C    -0.91295237    -0.34947725     0.12767823
      3      C    -0.64559007    -0.03442759     1.62806440
      4      C     0.88205891    -0.05878165     1.76037216
      5      C     1.41607181     0.61446013     0.46580704
      6      C    -2.33008923    -0.23158295    -0.36347623
      7      C    -2.91622534     1.01852533    -0.61544431
      8      C    -4.23122907     1.12413373    -1.06667752
      9      C    -4.99471463    -0.02265866    -1.28482474
     10      C    -4.42955048    -1.27366275    -1.04328642
     11      C    -3.11528823    -1.37324500    -0.58543579
     12      H    -2.33536905     1.92428502    -0.45645746
     13      H    -4.66071091     2.10609673    -1.25272410
     14      H    -6.02005523     0.05856210    -1.63771059
     15      H    -5.01563217    -2.17611694    -1.20483083
     16      H    -2.69473408    -2.35583830    -0.38774651
     17      C     2.88295131     0.44051469     0.15740868
     18      C     3.76895616     1.52636574     0.17619787
     19      C     5.12354281     1.36271993    -0.11694794
     20      C     5.62671157     0.10106329    -0.42871106
     21      C     4.75970683    -0.99099196    -0.44773624
     22      C     3.40707164    -0.82356297    -0.15932656
     23      H     3.39398319     2.51836767     0.42008053
     24      H     5.78730216     2.22429772    -0.09862074
     25      H     6.68158641    -0.02988013    -0.65802280
     26      H     5.13560925    -1.98055781    -0.70013584
     27      H     2.74842643    -1.68383944    -0.20067889
     28      H     0.39561746     0.55459722    -1.78460670
     29      H    -0.59394302    -1.40299126    -0.00262131
     30      H    -1.14333333    -0.74309788     2.29935674
     31      H    -1.03026004     0.96522055     1.86698684
     32      H     1.23002913    -1.09752895     1.79737491
     33      H     1.23959026     0.43527170     2.67032447
     34      H     1.22609091     1.70305869     0.58885280
     35      H    -0.97475728    -4.78158117    -3.37915924
     36      C    -1.36308355    -2.70386275    -3.33731744
     37      C    -0.69451881    -3.80837460    -2.97687524
     38      C     0.45810287    -3.80049276    -2.04619813
     39      O     0.84363031    -2.83935604    -1.39935391
     40      H    -1.08539625    -1.72470260    -2.96326777
     41      H     0.96128853    -4.78895024    -1.93423249
     42      H    -2.19833561    -2.75052771    -4.03052505
 
Total System Charge             0.00000
Bonding info available!
 
 *** GOStep8 ***

 Energy gradients wrt nuclear displacements
 ==========================================

     Atom      Cartesian (a.u./angstrom)
                 X         Y         Z
 ----------------------------------------
     1 B    -0.000901 -0.000336 -0.000521
     2 C    -0.001278  0.000619 -0.001438
     3 C     0.000373 -0.001650  0.000834
     4 C     0.000377  0.001426 -0.000280
     5 C     0.000370 -0.002868 -0.000228
     6 C     0.000667  0.000207  0.000853
     7 C     0.001022  0.000430 -0.000144
     8 C    -0.000709 -0.000168 -0.000144
     9 C     0.000281  0.000256  0.000351
    10 C    -0.000443  0.000007 -0.001098
    11 C     0.003842 -0.002098 -0.003000
    12 H     0.000004 -0.000812  0.000274
    13 H     0.000070 -0.000352  0.000214
    14 H     0.000405  0.000041  0.000283
    15 H     0.000050  0.000519  0.000086
    16 H    -0.000099  0.000446 -0.000101
    17 C    -0.000965 -0.000092  0.000173
    18 C    -0.000693  0.000303  0.000638
    19 C     0.000510 -0.000252 -0.000296
    20 C    -0.000338 -0.000187  0.000129
    21 C     0.000440 -0.000130  0.000128
    22 C    -0.000075 -0.000700  0.000508
    23 H     0.000199 -0.000705 -0.000197
    24 H    -0.000123 -0.000467 -0.000088
    25 H    -0.000406  0.000019  0.000020
    26 H    -0.000073  0.000474 -0.000269
    27 H    -0.000108  0.000855 -0.000065
    28 H     0.000478  0.000249  0.001540
    29 H     0.002763 -0.001157 -0.000798
    30 H     0.000249 -0.000084 -0.000740
    31 H     0.000963  0.000322 -0.000844
    32 H    -0.000737 -0.000059 -0.000743
    33 H    -0.000170  0.000153 -0.000691
    34 H    -0.000830  0.000579  0.000282
    35 H    -0.000356  0.000719  0.000177
    36 C    -0.001965  0.002409  0.004299
    37 C    -0.001286 -0.002043  0.002120
    38 C     0.004120  0.000971 -0.005201
    39 O    -0.003232  0.002797  0.003181
    40 H    -0.001066  0.000069 -0.000138
    41 H    -0.002106 -0.000304  0.000962
    42 H     0.000777  0.000595 -0.000029
 ----------------------------------------
 Mulliken charges used for AMS results%charges...

 dE(predicted):    -0.20074E-03, dE(actual):    -0.31413E-03, Trust radius:    0.383677, all in a.u.
 
----------------------------------------------------------------------
Geometry Convergence after Step   8       (Hartree/Angstrom,Angstrom)
----------------------------------------------------------------------
current energy                               -9.17839158 Hartree
energy change                      -0.00031413     0.00042000    T
constrained gradient max            0.00510176     0.00100000    F
constrained gradient rms            0.00124900     0.00066667    F
gradient max                        0.00510176
gradient rms                        0.00124900
cart. step max                      0.10256746     0.01000000    F
cart. step rms                      0.02951178     0.00666667    F
 
 
--------
Geometry
--------
Formula: C19H21BO
Atoms
  Index Symbol   x (angstrom)   y (angstrom)   z (angstrom)
      1      B     0.29808891     0.27598246    -0.62923985
      2      C    -0.93412440    -0.34143411     0.12321578
      3      C    -0.65276058    -0.04214646     1.62121584
      4      C     0.87561863    -0.08997051     1.74194331
      5      C     1.40710047     0.58696448     0.45077751
      6      C    -2.35171349    -0.20623012    -0.35889544
      7      C    -2.92368530     1.05167139    -0.60649136
      8      C    -4.24039554     1.17354453    -1.04804533
      9      C    -5.02035801     0.03626461    -1.25755626
     10      C    -4.47091488    -1.22198424    -1.01709260
     11      C    -3.15375557    -1.33797215    -0.57203776
     12      H    -2.32660181     1.94798452    -0.45564459
     13      H    -4.65865005     2.15996909    -1.23532643
     14      H    -6.04693660     0.13029128    -1.60347250
     15      H    -5.07064416    -2.11627428    -1.17303170
     16      H    -2.74160442    -2.32514746    -0.37853594
     17      C     2.87612763     0.42802600     0.14877975
     18      C     3.75021420     1.52341667     0.17369443
     19      C     5.10835683     1.37510694    -0.11199884
     20      C     5.62609084     0.12001258    -0.42542755
     21      C     4.77049652    -0.98106085    -0.45417744
     22      C     3.41498987    -0.82914049    -0.17239500
     23      H     3.36386680     2.50996737     0.42122439
     24      H     5.76405187     2.24247765    -0.08439145
     25      H     6.68409988     0.00050380    -0.64626241
     26      H     5.16080461    -1.96576420    -0.70333975
     27      H     2.76385398    -1.69429338    -0.21839795
     28      H     0.39301559     0.50202755    -1.79886044
     29      H    -0.62513613    -1.39867533    -0.02134701
     30      H    -1.15664466    -0.74677200     2.29098559
     31      H    -1.01673305     0.96383716     1.86575756
     32      H     1.20867084    -1.13386692     1.76586278
     33      H     1.24493725     0.39284437     2.65262369
     34      H     1.20472354     1.67397033     0.57700084
     35      H    -0.88352620    -4.82868074    -3.40901515
     36      C    -1.32834109    -2.76252724    -3.32581474
     37      C    -0.63209742    -3.85629630    -2.98748244
     38      C     0.51841936    -3.82342886    -2.05327033
     39      O     0.86562416    -2.85733328    -1.39191187
     40      H    -1.07226810    -1.78471616    -2.93322009
     41      H     1.06385599    -4.79072420    -1.96216040
     42      H    -2.16336204    -2.80743100    -4.01950142
 
Total System Charge             0.00000
Bonding info available!
 
 *** GOStep9 ***

 Energy gradients wrt nuclear displacements
 ==========================================

     Atom      Cartesian (a.u./angstrom)
                 X         Y         Z
 ----------------------------------------
     1 B    -0.002666 -0.002185 -0.001932
     2 C    -0.002237  0.004076  0.000859
     3 C    -0.000834 -0.002356  0.000728
     4 C     0.001539  0.001467 -0.001329
     5 C     0.000903 -0.003252  0.000376
     6 C     0.001857 -0.000113  0.001076
     7 C     0.000262  0.001353  0.000333
     8 C    -0.000644 -0.000018  0.000044
     9 C     0.000505  0.000275  0.000073
    10 C    -0.000741 -0.000312 -0.000435
    11 C     0.002961 -0.002058 -0.002795
    12 H     0.000289 -0.001299  0.000159
    13 H    -0.000014 -0.000577  0.000068
    14 H     0.000491 -0.000025  0.000224
    15 H     0.000063  0.000699  0.000008
    16 H     0.000252  0.000654 -0.000166
    17 C    -0.001488 -0.000187  0.001966
    18 C    -0.001117  0.000622 -0.000092
    19 C     0.000869 -0.000127 -0.000338
    20 C    -0.000328  0.000039 -0.000014
    21 C    -0.000195 -0.000226 -0.000360
    22 C     0.000524 -0.001561 -0.000373
    23 H     0.000273 -0.000946 -0.000102
    24 H    -0.000016 -0.000688  0.000072
    25 H    -0.000426  0.000052  0.000157
    26 H     0.000224  0.000617  0.000180
    27 H    -0.000256  0.001467  0.000082
    28 H     0.000884 -0.000546  0.003778
    29 H     0.003578 -0.001563 -0.001758
    30 H     0.000691 -0.000021 -0.001473
    31 H     0.001508  0.000624 -0.001468
    32 H    -0.000989 -0.000005 -0.001188
    33 H    -0.000620  0.000380 -0.001290
    34 H    -0.001238  0.000905  0.000459
    35 H    -0.000414  0.001222  0.000029
    36 C    -0.000880  0.000526  0.005101
    37 C    -0.001064 -0.003097  0.000702
    38 C     0.003514 -0.000296 -0.003612
    39 O    -0.002644  0.004104  0.002328
    40 H    -0.001086  0.000247 -0.000698
    41 H    -0.001844  0.000169  0.000347
    42 H     0.000555  0.001958  0.000273
 ----------------------------------------
 Mulliken charges used for AMS results%charges...

 dE(predicted):    -0.27720E-03, dE(actual):    -0.39513E-03, Trust radius:    0.767354, all in a.u.
 
----------------------------------------------------------------------
Geometry Convergence after Step   9       (Hartree/Angstrom,Angstrom)
----------------------------------------------------------------------
current energy                               -9.17878670 Hartree
energy change                      -0.00039513     0.00042000    T
constrained gradient max            0.00515369     0.00100000    F
constrained gradient rms            0.00144556     0.00066667    F
gradient max                        0.00515369
gradient rms                        0.00144556
cart. step max                      0.09181483     0.01000000    F
cart. step rms                      0.03126501     0.00666667    F
 
 
--------
Geometry
--------
Formula: C19H21BO
Atoms
  Index Symbol   x (angstrom)   y (angstrom)   z (angstrom)
      1      B     0.28988253     0.23444698    -0.63975031
      2      C    -0.95194778    -0.34967791     0.12246825
      3      C    -0.66128331    -0.05736212     1.61865009
      4      C     0.86901696    -0.11056503     1.73394409
      5      C     1.39717961     0.56257122     0.43865464
      6      C    -2.36918198    -0.18878268    -0.35703790
      7      C    -2.91904156     1.08052198    -0.59952988
      8      C    -4.23789460     1.22870426    -1.02546365
      9      C    -5.04291526     0.10719002    -1.22646070
     10      C    -4.51367658    -1.16236285    -0.99917146
     11      C    -3.19452768    -1.30462472    -0.56860188
     12      H    -2.30460895     1.96538614    -0.44847004
     13      H    -4.64030694     2.22372671    -1.20269802
     14      H    -6.07252935     0.22210611    -1.55741407
     15      H    -5.13227281    -2.04473378    -1.15044724
     16      H    -2.79745938    -2.29990531    -0.38282103
     17      C     2.86929942     0.41950878     0.14023948
     18      C     3.72986909     1.52567521     0.17263944
     19      C     5.09045231     1.39655609    -0.11037789
     20      C     5.62600802     0.14891208    -0.42404796
     21      C     4.78535803    -0.96409161    -0.45366212
     22      C     3.42718733    -0.83095935    -0.17610004
     23      H     3.32908656     2.50762425     0.41695123
     24      H     5.73316694     2.27389169    -0.08556218
     25      H     6.68523836     0.04461815    -0.64775388
     26      H     5.18915110    -1.94220470    -0.70813603
     27      H     2.78819747    -1.70514749    -0.22368466
     28      H     0.38942888     0.42762799    -1.81404381
     29      H    -0.66545517    -1.41335100    -0.03116104
     30      H    -1.16410752    -0.76056416     2.29071136
     31      H    -1.01990681     0.94928818     1.86815658
     32      H     1.20096100    -1.15481348     1.75986851
     33      H     1.24096921     0.37345698     2.64308751
     34      H     1.18471695     1.64836556     0.55737039
     35      H    -0.79570822    -4.87735196    -3.45223056
     36      C    -1.28859796    -2.82287838    -3.33169749
     37      C    -0.57216045    -3.90777638    -3.00906446
     38      C     0.56397890    -3.86354440    -2.05555014
     39      O     0.87901009    -2.89918267    -1.37610327
     40      H    -1.05651358    -1.85000496    -2.91237477
     41      H     1.14499139    -4.81156455    -1.98444362
     42      H    -2.12029995    -2.86573640    -4.03014412
 
Total System Charge             0.00000
Bonding info available!
 
 *** GOStep10 ***

 Energy gradients wrt nuclear displacements
 ==========================================

     Atom      Cartesian (a.u./angstrom)
                 X         Y         Z
 ----------------------------------------
     1 B    -0.003095 -0.004753 -0.003731
     2 C    -0.001328  0.006891  0.003463
     3 C    -0.002069 -0.002383  0.000347
     4 C     0.002428  0.000874 -0.001071
     5 C     0.000447 -0.001785  0.001524
     6 C     0.002000 -0.000624  0.001396
     7 C    -0.000300  0.001598 -0.000934
     8 C     0.000064  0.000081 -0.000199
     9 C     0.000132  0.000233  0.000637
    10 C    -0.000163 -0.000524 -0.000563
    11 C     0.000968 -0.002048 -0.002768
    12 H     0.000321 -0.001001  0.000513
    13 H    -0.000234 -0.000419  0.000244
    14 H     0.000186 -0.000003  0.000195
    15 H    -0.000066  0.000529  0.000078
    16 H     0.000640  0.000600 -0.000061
    17 C    -0.001721  0.000296 -0.000105
    18 C    -0.000631  0.000261  0.000978
    19 C     0.000676 -0.000033  0.000065
    20 C    -0.000030  0.000219  0.000161
    21 C    -0.000722 -0.000502  0.000607
    22 C     0.001290 -0.002006 -0.000154
    23 H     0.000134 -0.000548 -0.000216
    24 H     0.000030 -0.000468 -0.000295
    25 H    -0.000205  0.000056 -0.000132
    26 H     0.000241  0.000521 -0.000469
    27 H    -0.000068  0.001496  0.000180
    28 H     0.000807 -0.000711  0.004181
    29 H     0.003243 -0.001780 -0.002980
    30 H     0.000758  0.000145 -0.001248
    31 H     0.001320  0.000528 -0.001286
    32 H    -0.000684  0.000014 -0.000971
    33 H    -0.000783  0.000219 -0.000965
    34 H    -0.000736  0.000864  0.000450
    35 H    -0.000513  0.001143 -0.000012
    36 C     0.000716 -0.000831  0.003906
    37 C    -0.000475 -0.002455 -0.001386
    38 C     0.000663 -0.001732  0.000467
    39 O    -0.001350  0.004244  0.000611
    40 H    -0.000872  0.000308 -0.000742
    41 H    -0.000476  0.000874 -0.000484
    42 H    -0.000541  0.002611  0.000768
 ----------------------------------------
 Mulliken charges used for AMS results%charges...

 dE(predicted):    -0.26915E-03, dE(actual):    -0.55711E-03, Trust radius:    0.767354, all in a.u.
 
----------------------------------------------------------------------
Geometry Convergence after Step  10       (Hartree/Angstrom,Angstrom)
----------------------------------------------------------------------
current energy                               -9.17934382 Hartree
energy change                      -0.00055711     0.00042000    F
constrained gradient max            0.00690220     0.00100000    F
constrained gradient rms            0.00150270     0.00066667    F
gradient max                        0.00690220
gradient rms                        0.00150270
cart. step max                      0.13276683     0.01000000    F
cart. step rms                      0.03663897     0.00666667    F
 
 
--------
Geometry
--------
Formula: C19H21BO
Atoms
  Index Symbol   x (angstrom)   y (angstrom)   z (angstrom)
      1      B     0.27533639     0.19596433    -0.63685430
      2      C    -0.97553531    -0.36358175     0.13271673
      3      C    -0.67475118    -0.07558816     1.62778576
      4      C     0.85805856    -0.13001446     1.73794044
      5      C     1.38425119     0.53881981     0.43655191
      6      C    -2.39213132    -0.17262574    -0.34641161
      7      C    -2.91534447     1.11032310    -0.57748805
      8      C    -4.23101215     1.29176258    -0.99956042
      9      C    -5.06185623     0.19037026    -1.20862028
     10      C    -4.56132305    -1.09225446    -0.98800432
     11      C    -3.24466553    -1.26773192    -0.56260501
     12      H    -2.28113706     1.98189464    -0.42627053
     13      H    -4.60802758     2.29748435    -1.17452512
     14      H    -6.08905336     0.33115449    -1.53811241
     15      H    -5.19961219    -1.96016498    -1.14373724
     16      H    -2.86927806    -2.27369834    -0.38582310
     17      C     2.85837736     0.40872991     0.13496223
     18      C     3.70698462     1.52467516     0.16383883
     19      C     5.06682830     1.41296989    -0.12874195
     20      C     5.61549680     0.17226401    -0.44864203
     21      C     4.78620148    -0.94968566    -0.47885564
     22      C     3.42818775    -0.83363291    -0.19188792
     23      H     3.29713412     2.50144913     0.41642925
     24      H     5.70011748     2.29738464    -0.09753373
     25      H     6.67585243     0.07945923    -0.67354092
     26      H     5.19986340    -1.92375965    -0.73454236
     27      H     2.80000858    -1.71638665    -0.24303422
     28      H     0.37238290     0.36003893    -1.81758529
     29      H    -0.71589290    -1.43371754    -0.02769814
     30      H    -1.17346269    -0.77958796     2.30331043
     31      H    -1.03510521     0.92825825     1.88631755
     32      H     1.19202974    -1.17371957     1.76929979
     33      H     1.23320481     0.35593587     2.64556883
     34      H     1.16518930     1.62335338     0.54745066
     35      H    -0.66294139    -4.92365251    -3.49739602
     36      C    -1.23653214    -2.89212539    -3.33577087
     37      C    -0.48794747    -3.95790688    -3.02377913
     38      C     0.63065004    -3.89748575    -2.04870866
     39      O     0.90418917    -2.93838065    -1.34513913
     40      H    -1.04241334    -1.92147196    -2.89183196
     41      H     1.25167234    -4.82185021    -1.99709175
     42      H    -2.05123983    -2.95027638    -4.05364290
 
Total System Charge             0.00000
Bonding info available!
 
 *** GOStep11 ***

 Energy gradients wrt nuclear displacements
 ==========================================

     Atom      Cartesian (a.u./angstrom)
                 X         Y         Z
 ----------------------------------------
     1 B    -0.002543 -0.005555 -0.002835
     2 C    -0.000365  0.008338  0.005313
     3 C    -0.002420 -0.001260 -0.000824
     4 C     0.002128 -0.000099 -0.000579
     5 C     0.000804  0.000147  0.001327
     6 C     0.001405 -0.001638 -0.000162
     7 C    -0.001151  0.000944 -0.000335
     8 C     0.000472  0.000237  0.001067
     9 C     0.000015 -0.000007 -0.000275
    10 C     0.000250 -0.000329  0.000321
    11 C    -0.001321 -0.001752 -0.002772
    12 H     0.000490 -0.000168  0.000130
    13 H    -0.000115  0.000024 -0.000221
    14 H    -0.000219  0.000101  0.000064
    15 H    -0.000242  0.000103  0.000005
    16 H     0.000889  0.000242  0.000010
    17 C    -0.000521  0.000334  0.001090
    18 C     0.000130 -0.000187  0.000242
    19 C    -0.000108  0.000304 -0.001025
    20 C     0.000404  0.000385  0.000103
    21 C    -0.001272 -0.000375 -0.000306
    22 C     0.001480 -0.001144  0.000053
    23 H    -0.000030  0.000080  0.000099
    24 H     0.000272 -0.000113  0.000320
    25 H     0.000234 -0.000088  0.000097
    26 H     0.000323 -0.000024 -0.000111
    27 H    -0.000408  0.000309 -0.000493
    28 H     0.000434 -0.000869  0.002519
    29 H     0.002506 -0.002111 -0.004035
    30 H     0.000337  0.000242 -0.000352
    31 H     0.000416  0.000175 -0.000318
    32 H    -0.000107 -0.000029 -0.000233
    33 H    -0.000351 -0.000149 -0.000105
    34 H    -0.000105  0.000217  0.000033
    35 H     0.000136  0.000654 -0.000569
    36 C     0.000350 -0.000934  0.003769
    37 C    -0.001343 -0.000744 -0.002107
    38 C    -0.001243 -0.002240  0.003390
    39 O     0.000147  0.003545 -0.000875
    40 H     0.000300  0.000524 -0.000929
    41 H     0.000921  0.001039 -0.000764
    42 H    -0.000978  0.001873  0.000270
 ----------------------------------------
 Mulliken charges used for AMS results%charges...

 dE(predicted):    -0.27602E-03, dE(actual):    -0.48286E-03, Trust radius:    0.767354, all in a.u.
 
----------------------------------------------------------------------
Geometry Convergence after Step  11       (Hartree/Angstrom,Angstrom)
----------------------------------------------------------------------
current energy                               -9.17982668 Hartree
energy change                      -0.00048286     0.00042000    F
constrained gradient max            0.00835036     0.00100000    F
constrained gradient rms            0.00151183     0.00066667    F
gradient max                        0.00835036
gradient rms                        0.00151183
cart. step max                      0.13477784     0.01000000    F
cart. step rms                      0.04237023     0.00666667    F
 
 
--------
Geometry
--------
Formula: C19H21BO
Atoms
  Index Symbol   x (angstrom)   y (angstrom)   z (angstrom)
      1      B     0.25769118     0.14716521    -0.64330161
      2      C    -0.99850386    -0.39227285     0.14008235
      3      C    -0.68322135    -0.10164073     1.63239241
      4      C     0.85164111    -0.14545073     1.73387026
      5      C     1.36791144     0.51547758     0.42070635
      6      C    -2.41388601    -0.15974953    -0.33244595
      7      C    -2.90270542     1.13941414    -0.54669784
      8      C    -4.21432318     1.36261972    -0.96074099
      9      C    -5.07810568     0.28760365    -1.17408524
     10      C    -4.61064489    -1.01073305    -0.97245417
     11      C    -3.29702112    -1.22818669    -0.55771913
     12      H    -2.24750395     1.99422779    -0.38590478
     13      H    -4.56398279     2.38164073    -1.11634932
     14      H    -6.10352668     0.46077281    -1.49401292
     15      H    -5.27262179    -1.85998559    -1.13394099
     16      H    -2.94941381    -2.24724448    -0.39614098
     17      C     2.84425221     0.40267586     0.11583196
     18      C     3.67529101     1.53221320     0.13433118
     19      C     5.03825709     1.43883430    -0.14787482
     20      C     5.60839305     0.20336466    -0.45113497
     21      C     4.79797069    -0.93254600    -0.46452504
     22      C     3.43596517    -0.83458943    -0.18796254
     23      H     3.24872763     2.50602065     0.37232910
     24      H     5.65451521     2.33593394    -0.13196210
     25      H     6.67034821     0.12511742    -0.67478999
     26      H     5.22796692    -1.90476601    -0.70067639
     27      H     2.82805743    -1.73319718    -0.21508860
     28      H     0.34240262     0.28431570    -1.83161300
     29      H    -0.77866343    -1.47053169    -0.02091865
     30      H    -1.17066337    -0.80816922     2.31517582
     31      H    -1.05248478     0.89680247     1.89922431
     32      H     1.19621647    -1.18558792     1.77652553
     33      H     1.22912349     0.35128948     2.63559812
     34      H     1.13887834     1.59796017     0.51948863
     35      H    -0.52816355    -4.97347884    -3.56035537
     36      C    -1.18575010    -2.97004923    -3.36414446
     37      C    -0.40017746    -4.01184780    -3.06241549
     38      C     0.69293071    -3.94123995    -2.05893141
     39      O     0.92050329    -2.99512327    -1.32387459
     40      H    -1.04595321    -2.00592615    -2.88614273
     41      H     1.34331773    -4.84665321    -2.01823355
     42      H    -1.98029029    -3.05148745    -4.10238100
 
Total System Charge             0.00000
Bonding info available!
 
 *** GOStep12 ***

 Energy gradients wrt nuclear displacements
 ==========================================

     Atom      Cartesian (a.u./angstrom)
                 X         Y         Z
 ----------------------------------------
     1 B    -0.000630 -0.005663 -0.001646
     2 C     0.000608  0.008465  0.006275
     3 C    -0.002039 -0.000038 -0.002212
     4 C     0.001169 -0.001088  0.000374
     5 C     0.000447  0.002614  0.001544
     6 C    -0.000599 -0.002017 -0.000789
     7 C    -0.001079 -0.000201 -0.000276
     8 C     0.001276  0.000141 -0.000341
     9 C    -0.000411 -0.000013  0.000437
    10 C     0.001049  0.000127  0.000558
    11 C    -0.002050 -0.001334 -0.002615
    12 H     0.000310  0.000726  0.000286
    13 H    -0.000110  0.000495  0.000239
    14 H    -0.000444  0.000204 -0.000028
    15 H    -0.000216 -0.000296 -0.000011
    16 H     0.000884 -0.000338  0.000018
    17 C     0.000754  0.000383 -0.001308
    18 C     0.000676 -0.000700  0.000031
    19 C    -0.000225 -0.000168  0.001138
    20 C     0.000431  0.000420 -0.000286
    21 C    -0.000885 -0.000119  0.000760
    22 C     0.000467  0.000380 -0.001424
    23 H    -0.000196  0.000654  0.000218
    24 H     0.000143  0.000354 -0.000142
    25 H     0.000381 -0.000099 -0.000290
    26 H     0.000215 -0.000469 -0.000087
    27 H     0.000252 -0.000524  0.000467
    28 H    -0.000312 -0.000723 -0.000238
    29 H     0.001085 -0.002469 -0.004616
    30 H    -0.000171  0.000213  0.000819
    31 H    -0.000572 -0.000289  0.000792
    32 H     0.000584 -0.000186  0.000552
    33 H     0.000118 -0.000424  0.000831
    34 H     0.000786 -0.000656 -0.000239
    35 H    -0.000003 -0.000356  0.000007
    36 C     0.000162  0.000626  0.002504
    37 C    -0.001146  0.001108 -0.002798
    38 C    -0.002016 -0.001052  0.004371
    39 O     0.000370  0.000829 -0.002440
    40 H     0.000494  0.000414  0.000117
    41 H     0.001468  0.000763 -0.000554
    42 H    -0.001022  0.000306  0.000002
 ----------------------------------------
 Mulliken charges used for AMS results%charges...
 Rebuilding optimization coordinates

 dE(predicted):    -0.28580E-03, dE(actual):    -0.67393E-03, Trust radius:    1.000000, all in a.u.
 
----------------------------------------------------------------------
Geometry Convergence after Step  12       (Hartree/Angstrom,Angstrom)
----------------------------------------------------------------------
current energy                               -9.18050061 Hartree
energy change                      -0.00067393     0.00042000    F
constrained gradient max            0.00847582     0.00100000    F
constrained gradient rms            0.00151625     0.00066667    F
gradient max                        0.00847582
gradient rms                        0.00151625
cart. step max                      0.20947368     0.01000000    F
cart. step rms                      0.04748514     0.00666667    F
 
 
--------
Geometry
--------
Formula: C19H21BO
Atoms
  Index Symbol   x (angstrom)   y (angstrom)   z (angstrom)
      1      B     0.22997380     0.11952574    -0.63152457
      2      C    -1.03041149    -0.41072916     0.16043532
      3      C    -0.70326858    -0.11555920     1.65027332
      4      C     0.83270231    -0.15191449     1.74523966
      5      C     1.34339551     0.49964636     0.42227556
      6      C    -2.44186918    -0.14048496    -0.30929475
      7      C    -2.90294436     1.17166545    -0.50371719
      8      C    -4.20937345     1.42935004    -0.91459814
      9      C    -5.09468808     0.37640304    -1.14862088
     10      C    -4.65384412    -0.93432637    -0.96780968
     11      C    -3.34566420    -1.18626291    -0.55484735
     12      H    -2.23254040     2.01195039    -0.32836455
     13      H    -4.53641602     2.45853486    -1.05237479
     14      H    -6.11556932     0.57609014    -1.46756725
     15      H    -5.33180889    -1.76780292    -1.14520339
     16      H    -3.02112371    -2.21567476    -0.40957970
     17      C     2.81866270     0.38834507     0.10941215
     18      C     3.64494750     1.52165106     0.10231871
     19      C     5.00354952     1.43088756    -0.19986093
     20      C     5.57490765     0.19396842    -0.49599733
     21      C     4.76947931    -0.94520404    -0.48214192
     22      C     3.41139716    -0.84978012    -0.18400456
     23      H     3.21698806     2.49711507     0.33159577
     24      H     5.61460678     2.33180472    -0.20670796
     25      H     6.63316147     0.11760024    -0.73727070
     26      H     5.19818705    -1.91868252    -0.71583313
     27      H     2.80835193    -1.75251850    -0.19428756
     28      H     0.30656561     0.23302891    -1.82553729
     29      H    -0.84610442    -1.49500925     0.00032108
     30      H    -1.18181092    -0.82395750     2.33862660
     31      H    -1.07891720     0.87904447     1.92216258
     32      H     1.18293516    -1.18984438     1.79709481
     33      H     1.21364810     0.35389037     2.64102534
     34      H     1.11264236     1.58187517     0.51210280
     35      H    -0.31868987    -4.99590852    -3.62166732
     36      C    -1.08828718    -3.03642217    -3.38984960
     37      C    -0.25770172    -4.04413312    -3.09203820
     38      C     0.79730916    -3.95588783    -2.04987224
     39      O     0.95869999    -3.02538552    -1.27866160
     40      H    -1.01993356    -2.08219467    -2.87746675
     41      H     1.48355714    -4.83533010    -2.01297179
     42      H    -1.85194728    -3.14637162    -4.15647519
 
Total System Charge             0.00000
Bonding info available!
 
 *** GOStep13 ***

 Energy gradients wrt nuclear displacements
 ==========================================

     Atom      Cartesian (a.u./angstrom)
                 X         Y         Z
 ----------------------------------------
     1 B     0.001389 -0.002488  0.000725
     2 C     0.000610  0.006544  0.006835
     3 C    -0.001384  0.001174 -0.003269
     4 C     0.000141 -0.001433  0.001415
     5 C     0.000518  0.003244 -0.000382
     6 C    -0.002364 -0.001996 -0.001053
     7 C    -0.000478 -0.001012 -0.000500
     8 C     0.000954  0.000151 -0.000149
     9 C    -0.000525  0.000108  0.000235
    10 C     0.001203  0.000559  0.000964
    11 C    -0.001483 -0.000793 -0.002326
    12 H     0.000117  0.001222  0.000131
    13 H     0.000070  0.000742  0.000359
    14 H    -0.000440  0.000289 -0.000095
    15 H    -0.000173 -0.000524  0.000003
    16 H     0.000616 -0.000657  0.000075
    17 C     0.001835 -0.000236 -0.001559
    18 C     0.001216 -0.000982  0.000400
    19 C    -0.000569 -0.000156  0.000883
    20 C     0.000373  0.000092  0.000102
    21 C    -0.000397 -0.000002  0.000405
    22 C    -0.000479  0.002099 -0.000126
    23 H    -0.000276  0.000857  0.000199
    24 H     0.000037  0.000618 -0.000264
    25 H     0.000376 -0.000187 -0.000300
    26 H    -0.000040 -0.000608 -0.000351
    27 H    -0.000254 -0.001747 -0.000050
    28 H    -0.000677 -0.001336 -0.002408
    29 H    -0.000445 -0.003193 -0.004887
    30 H    -0.000478 -0.000004  0.001502
    31 H    -0.001145 -0.000634  0.001563
    32 H     0.000801 -0.000294  0.000960
    33 H     0.000619 -0.000516  0.001323
    34 H     0.000992 -0.001414 -0.000588
    35 H     0.000242 -0.000936  0.000162
    36 C     0.000021  0.002457  0.001476
    37 C    -0.001401  0.001852 -0.002741
    38 C    -0.002165 -0.000678  0.003558
    39 O     0.001713  0.000673 -0.002317
    40 H     0.000647  0.000140  0.000561
    41 H     0.001538  0.000155 -0.000428
    42 H    -0.000857 -0.001150 -0.000046
 ----------------------------------------
 Mulliken charges used for AMS results%charges...

 dE(predicted):    -0.43111E-03, dE(actual):    -0.32572E-03, Trust radius:    1.000000, all in a.u.
 
----------------------------------------------------------------------
Geometry Convergence after Step  13       (Hartree/Angstrom,Angstrom)
----------------------------------------------------------------------
current energy                               -9.18082633 Hartree
energy change                      -0.00032572     0.00042000    T
constrained gradient max            0.00682106     0.00100000    F
constrained gradient rms            0.00150495     0.00066667    F
gradient max                        0.00682106
gradient rms                        0.00150495
cart. step max                      0.08397157     0.01000000    F
cart. step rms                      0.02430890     0.00666667    F
 
 
--------
Geometry
--------
Formula: C19H21BO
Atoms
  Index Symbol   x (angstrom)   y (angstrom)   z (angstrom)
      1      B     0.21835964     0.09501721    -0.62650102
      2      C    -1.04331217    -0.42754515     0.17259883
      3      C    -0.70819064    -0.12885777     1.66031304
      4      C     0.82732078    -0.16583098     1.74884875
      5      C     1.33128894     0.48340975     0.42205360
      6      C    -2.45067731    -0.13278858    -0.29351660
      7      C    -2.89487993     1.18696719    -0.47318077
      8      C    -4.19610775     1.46517863    -0.88776486
      9      C    -5.09196543     0.42603684    -1.14147066
     10      C    -4.66880386    -0.89170468    -0.97195022
     11      C    -3.36639477    -1.16407996    -0.55314659
     12      H    -2.21500606     2.01678105    -0.28632955
     13      H    -4.50902544     2.49958229    -1.01780139
     14      H    -6.10796761     0.64175132    -1.46493108
     15      H    -5.35541255    -1.71470089    -1.16357707
     16      H    -3.05735169    -2.19936349    -0.41735921
     17      C     2.80572892     0.38192991     0.10474174
     18      C     3.61894114     1.52415046     0.07363689
     19      C     4.97650900     1.44344352    -0.23577076
     20      C     5.55943409     0.20858272    -0.51706237
     21      C     4.76701244    -0.93876647    -0.48001758
     22      C     3.40985175    -0.85350228    -0.17391933
     23      H     3.18246464     2.49764047     0.29386249
     24      H     5.57912254     2.34970214    -0.25325285
     25      H     6.61777155     0.13973538    -0.75964732
     26      H     5.20562140    -1.91157994    -0.69682269
     27      H     2.81744231    -1.76278169    -0.16440493
     28      H     0.28799008     0.20602372    -1.82157679
     29      H    -0.87842158    -1.51401905     0.02152286
     30      H    -1.18498802    -0.83522302     2.35186595
     31      H    -1.08099045     0.86709980     1.93064627
[...]
                                   -2.66%     2 P:y             4.559  0.00    11 C
                                    2.65%     1 P:y            -5.135  0.67     5 C
                                    2.53%     2 S               2.096  0.00    23 H
                                   -2.49%     2 P:y             4.559  0.00     2 C
                                    2.09%     1 S              -6.484  1.00    33 H
                                   -1.93%     2 P:x             4.559  0.00    11 C
                                    1.83%     1 S              -6.484  1.00    41 H
                                    1.70%     2 S               2.096  0.00    38 H
                                    1.64%     3 S              41.380  0.00    28 H
                                    1.54%     2 P:x             4.559  0.00    16 C
                                    1.53%     1 S              -6.484  1.00    40 H
                                    1.47%     2 P:x             4.559  0.00     2 C
                                    1.46%     2 P:x             4.559  0.00     6 C
                                   -1.46%     1 P:y            -5.135  0.67    14 C
                                    1.45%     1 P:x            -5.135  0.67    14 C
                                   -1.45%     2 P:x             4.559  0.00    10 C
                                    1.44%     2 P:z             4.559  0.00    20 C
                                    1.44%     2 S               2.096  0.00    25 H
                                   -1.27%     2 P:z             4.559  0.00     3 C
                                   -1.21%     2 P:y             4.559  0.00     4 C
                                   -1.17%     1 P:x            -5.135  0.67    15 C
                                   -1.15%     1 P:z            -3.435  0.33     1 B
                                    1.13%     1 S              -6.484  1.00    38 H
                                    1.13%     2 S               2.096  0.00    40 H
                                   -1.12%     2 P:x             4.559  0.00     3 C
                                   -1.11%     2 P:x             4.559  0.00     4 C
                                   -1.07%     2 P:z             4.559  0.00     2 C
                                    1.04%     2 S             -13.802  2.00    15 C
       1.758  0.00    96 A         22.36%     1 S              -6.484  1.00    35 H
                                   17.50%     2 S               2.096  0.00    35 H
                                  -12.52%     2 P:y             4.559  0.00     4 C
                                   12.13%     1 S              -6.484  1.00    21 H
                                   10.67%     2 S               2.096  0.00    25 H
                                   10.63%     1 S              -6.484  1.00    25 H
                                    9.31%     1 S              -6.484  1.00    24 H
                                    8.18%     2 S               2.096  0.00    21 H
                                   -7.55%     2 P:y             4.559  0.00     7 C
                                    7.53%     2 S               2.096  0.00    30 H
                                   -6.04%     2 P:y             4.559  0.00    11 C
                                    5.85%     1 S              -6.484  1.00    30 H
                                    5.75%     2 S               2.096  0.00    24 H
                                    5.31%     1 S              -6.484  1.00    26 H
                                   -4.21%     2 P:y             4.559  0.00    13 C
                                   -4.11%     2 P:x             4.559  0.00    10 C
                                    3.78%     2 P:x             4.559  0.00     2 C
                                    3.70%     2 S               2.096  0.00    26 H
                                   -3.65%     2 P:x             4.559  0.00    17 C
                                   -3.58%     2 P:z             4.559  0.00     4 C
                                   -3.05%     2 P:x             4.559  0.00     7 C
                                   -2.82%     2 P:y             4.559  0.00    10 C
                                    2.74%     1 S              -6.484  1.00    29 H
                                    2.47%     1 P:y            -5.135  0.67     4 C
                                    2.16%     2 P:y             4.559  0.00     5 C
                                   -2.12%     2 P:z             4.559  0.00    10 C
                                   -2.01%     2 P:y             4.559  0.00     6 C
                                   -1.95%     2 P:y             4.559  0.00    17 C
                                    1.87%     2 S               2.096  0.00    22 H
                                    1.79%     1 S              -6.484  1.00    36 H
                                    1.70%     2 P:x             4.559  0.00    20 C
                                   -1.69%     2 S               2.096  0.00    36 H
                                    1.64%     2 S               2.096  0.00    33 H
                                   -1.57%     2 P:x             4.559  0.00    11 C
                                    1.50%     1 S              -6.484  1.00    27 H
                                    1.49%     2 S               2.096  0.00    27 H
                                   -1.48%     3 S              10.456  0.00     4 C
                                   -1.38%     2 P:y             4.559  0.00    16 C
                                    1.36%     3 S              41.380  0.00    35 H
                                    1.32%     2 S               2.096  0.00    29 H
                                    1.27%     1 S              -6.484  1.00    22 H
                                    1.25%     3 S              41.380  0.00    24 H
                                   -1.25%     2 P:x             4.559  0.00    16 C
                                    1.22%     1 S              -6.484  1.00    34 H
                                    1.16%     3 S              41.380  0.00    21 H
                                    1.12%     1 S              -6.484  1.00    38 H
                                   -1.09%     1 P:x            -5.135  0.67    10 C
                                   -1.04%     3 S               5.623  0.00     1 B
                                    1.01%     1 P:y            -5.135  0.67     5 C
                                   -1.00%     2 P:x             4.559  0.00    14 C
       1.828  0.00    97 A        -11.29%     2 P:y             4.559  0.00     3 C
                                   10.17%     1 S              -6.484  1.00    27 H
                                    9.95%     1 S              -6.484  1.00    39 H
                                    9.04%     1 S              -6.484  1.00    23 H
                                    8.68%     1 S              -6.484  1.00    33 H
                                    8.28%     1 S              -6.484  1.00    34 H
                                    7.22%     1 S              -6.484  1.00    24 H
                                   -6.81%     2 P:z             4.559  0.00    18 C
                                    6.46%     1 S              -6.484  1.00    26 H
                                    5.90%     2 S               2.096  0.00    26 H
                                    5.90%     1 S              -6.484  1.00    22 H
                                    5.83%     2 S               2.096  0.00    39 H
                                    5.33%     2 S               2.096  0.00    27 H
                                    5.33%     1 S              -6.484  1.00    28 H
                                    4.91%     2 S               2.096  0.00    34 H
                                   -4.90%     2 P:x             4.559  0.00     9 C
                                   -4.85%     2 P:y             4.559  0.00     8 C
                                   -4.71%     2 P:y             4.559  0.00    14 C
                                   -4.70%     2 P:x             4.559  0.00    14 C
                                    4.55%     2 S               2.096  0.00    23 H
                                   -4.46%     2 P:y             4.559  0.00    10 C
                                    4.19%     2 S               2.096  0.00    24 H
                                    3.98%     2 S               2.096  0.00    28 H
                                    3.73%     1 S              -6.484  1.00    25 H
                                    3.61%     2 S               2.096  0.00    33 H
                                    3.56%     1 P:x            -3.435  0.33     1 B
                                    3.51%     1 P:y            -5.135  0.67     3 C
                                   -3.16%     2 P:y             4.559  0.00    13 C
                                   -2.87%     2 P:x             4.559  0.00    15 C
                                   -2.85%     2 P:x             4.559  0.00    10 C
                                    2.80%     2 S               2.096  0.00    22 H
                                    2.71%     2 P:y             3.297  0.00     1 B
                                   -2.61%     2 S               2.096  0.00    40 H
                                    2.57%     2 S               2.096  0.00    38 H
                                    2.46%     2 P:z             4.559  0.00    19 C
                                    2.44%     1 S              -6.484  1.00    40 H
                                   -2.41%     2 P:x             4.559  0.00    11 C
                                    2.35%     2 S               2.096  0.00    25 H
                                   -2.06%     2 P:x             4.559  0.00     7 C
                                   -2.04%     2 P:x             4.559  0.00    13 C
                                    2.02%     1 S              -6.484  1.00    41 H
                                    1.97%     1 S              -6.484  1.00    21 H
                                    1.95%     2 P:x             3.297  0.00     1 B
                                    1.68%     2 S               2.096  0.00    30 H
                                    1.67%     1 P:y            -5.135  0.67    18 C
                                   -1.66%     2 P:z             4.559  0.00     3 C
                                   -1.52%     2 P:y             4.559  0.00    16 C
                                   -1.50%     3 S              10.456  0.00     2 C
                                    1.48%     1 S              -6.484  1.00    30 H
                                   -1.48%     2 P:y             4.559  0.00    18 C
                                    1.40%     2 S              -9.402  2.00     1 B
                                    1.30%     2 P:y             4.559  0.00    19 C
                                    1.27%     3 S              41.380  0.00    27 H
                                    1.21%     1 S              -6.484  1.00    29 H
                                   -1.19%     2 S               2.096  0.00    41 H
                                    1.14%     1 S              -6.484  1.00    32 H
                                   -1.10%     2 P:y             4.559  0.00    20 C
                                   -1.09%     2 P:z             4.559  0.00     2 C
                                    1.02%     3 S              41.380  0.00    33 H
                                    1.01%     1 P:y            -5.135  0.67    13 C

 Energy gradients wrt nuclear displacements
 ==========================================

     Atom      Cartesian (a.u./angstrom)
                 X         Y         Z
 ----------------------------------------
     1 B    -0.000063 -0.000292 -0.000008
     2 C    -0.000136 -0.000201  0.000176
     3 C     0.000112 -0.000006  0.000043
     4 C    -0.000022 -0.000118  0.000031
     5 C     0.000065 -0.000082  0.000065
     6 C     0.000031  0.000091 -0.000011
     7 C    -0.000015 -0.000046  0.000154
     8 C    -0.000012 -0.000020  0.000114
     9 C    -0.000002  0.000019  0.000069
    10 C     0.000008  0.000002 -0.000010
    11 C     0.000019  0.000011 -0.000076
    12 H    -0.000012 -0.000047  0.000157
    13 H    -0.000010 -0.000016  0.000182
    14 H    -0.000008  0.000018  0.000079
    15 H     0.000000  0.000027 -0.000052
    16 H     0.000003 -0.000011 -0.000078
    17 C     0.000000  0.000052 -0.000074
    18 C    -0.000020 -0.000010  0.000027
    19 C    -0.000011  0.000015  0.000096
    20 C    -0.000012  0.000035 -0.000019
    21 C    -0.000027  0.000049 -0.000113
    22 C     0.000281 -0.000580 -0.000146
    23 H    -0.000010 -0.000020  0.000166
    24 H    -0.000013  0.000027  0.000142
    25 H    -0.000003  0.000048  0.000013
    26 H     0.000025  0.000026 -0.000035
    27 H    -0.000593  0.000314  0.000657
    28 H     0.000004 -0.000006  0.000044
    29 H    -0.000264 -0.000118  0.000213
    30 H    -0.000008 -0.000152 -0.000001
    31 H     0.000011 -0.000141  0.000073
    32 H    -0.000025 -0.000136 -0.000058
    33 H     0.000032 -0.000205  0.000059
    34 H    -0.000044 -0.000061  0.000130
    35 H    -0.000038  0.000150 -0.000226
    36 C     0.000076  0.000187 -0.000193
    37 C    -0.000115  0.000117 -0.000172
    38 C    -0.000363 -0.000083 -0.000072
    39 O     0.000981  0.000671 -0.000852
    40 H    -0.000002  0.000143 -0.000060
    41 H     0.000172  0.000113 -0.000298
    42 H     0.000009  0.000236 -0.000135
 ----------------------------------------



 =======================================================================
 Electrostatic potential at the Nuclei due to electrons and other nuclei
 =======================================================================
  
         Atom                  Potential
         ----                  ---------
     1)   B                  11.48520179
     2)   C                  14.80078758
     3)   C                  14.79354133
     4)   C                  14.79480789
     5)   C                  14.79693835
     6)   C                  14.78266897
     7)   C                  14.79668067
     8)   C                  14.79425698
     9)   C                  14.79619138
    10)   C                  14.79455776
    11)   C                  14.79717854
    12)   H                   1.11554888
    13)   H                   1.11506146
    14)   H                   1.11528031
    15)   H                   1.11472120
    16)   H                   1.11673694
    17)   C                  14.78426303
    18)   C                  14.79905953
    19)   C                  14.79687127
    20)   C                  14.79855612
    21)   C                  14.79719778
    22)   C                  14.80192926
    23)   H                   1.11829062
    24)   H                   1.11733666
    25)   H                   1.11754390
    26)   H                   1.11772915
    27)   H                   1.12315800
    28)   H                   1.16396839
    29)   H                   1.10771879
    30)   H                   1.13576796
    31)   H                   1.13476812
    32)   H                   1.13649693
    33)   H                   1.13577379
    34)   H                   1.10379627
    35)   H                   1.08178453
    36)   C                  14.75860647
    37)   C                  14.76290642
    38)   C                  14.69623044
    39)   O                  22.38786511
    40)   H                   1.08278218
    41)   H                   1.08953839
    42)   H                   1.07833220
 Mulliken charges used for AMS results%charges...


    =====================
     CALCULATION RESULTS
    =====================

Energy (hartree)            -9.18208848

Gradients (hartree/bohr)
  Index   Atom            d/dx            d/dy            d/dz
      1      B   -0.0000333387   -0.0001544639   -0.0000042051
      2      C   -0.0000722263   -0.0001062169    0.0000932032
      3      C    0.0000591761   -0.0000029745    0.0000229255
      4      C   -0.0000118700   -0.0000626260    0.0000164815
      5      C    0.0000344606   -0.0000435462    0.0000342440
      6      C    0.0000164931    0.0000480280   -0.0000059998
      7      C   -0.0000079645   -0.0000244412    0.0000813685
      8      C   -0.0000061273   -0.0000106543    0.0000604493
      9      C   -0.0000012521    0.0000102704    0.0000365009
     10      C    0.0000044719    0.0000011502   -0.0000051024
     11      C    0.0000101142    0.0000060274   -0.0000401120
     12      H   -0.0000064615   -0.0000247776    0.0000830051
     13      H   -0.0000053725   -0.0000084028    0.0000964900
     14      H   -0.0000040149    0.0000097268    0.0000415860
     15      H    0.0000002614    0.0000144164   -0.0000276365
     16      H    0.0000015879   -0.0000059657   -0.0000412962
     17      C    0.0000001240    0.0000276705   -0.0000391910
     18      C   -0.0000106081   -0.0000054798    0.0000141478
     19      C   -0.0000059082    0.0000081771    0.0000506774
     20      C   -0.0000065403    0.0000187677   -0.0000102187
     21      C   -0.0000141513    0.0000258089   -0.0000599875
     22      C    0.0001484454   -0.0003070856   -0.0000775018
     23      H   -0.0000050385   -0.0000107302    0.0000875956
     24      H   -0.0000070080    0.0000141523    0.0000752401
     25      H   -0.0000013776    0.0000254542    0.0000069932
     26      H    0.0000130786    0.0000136095   -0.0000185849
     27      H   -0.0003137358    0.0001662395    0.0003474745
     28      H    0.0000019046   -0.0000031360    0.0000230203
     29      H   -0.0001396524   -0.0000621915    0.0001128916
     30      H   -0.0000042969   -0.0000803290   -0.0000003803
     31      H    0.0000055815   -0.0000747701    0.0000386632
     32      H   -0.0000134622   -0.0000721255   -0.0000305360
     33      H    0.0000168137   -0.0001084334    0.0000309737
     34      H   -0.0000233215   -0.0000324473    0.0000686900
     35      H   -0.0000203131    0.0000795031   -0.0001194268
     36      C    0.0000403421    0.0000989387   -0.0001023762
     37      C   -0.0000607746    0.0000619331   -0.0000907693
     38      C   -0.0001920969   -0.0000438913   -0.0000379164
     39      O    0.0005189132    0.0003548708   -0.0004507294
     40      H   -0.0000008359    0.0000755580   -0.0000317111
     41      H    0.0000911545    0.0000596595   -0.0001577118
     42      H    0.0000048264    0.0001247267   -0.0000712285


--------------
Atomic charges
--------------
  Index   Atom    Charge
      1      B    0.7582
      2      C   -0.0393
      3      C    0.4541
      4      C    0.4567
      5      C   -0.0041
      6      C    0.0346
      7      C    0.2873
      8      C    0.2427
      9      C    0.2297
     10      C    0.2360
     11      C    0.2768
     12      H   -0.2842
     13      H   -0.2589
     14      H   -0.2558
     15      H   -0.2588
     16      H   -0.2962
     17      C    0.0226
     18      C    0.2759
     19      C    0.2383
     20      C    0.2285
     21      C    0.2437
     22      C    0.2679
     23      H   -0.2903
     24      H   -0.2586
     25      H   -0.2567
     26      H   -0.2691
     27      H   -0.2182
     28      H   -0.3402
     29      H   -0.0979
     30      H   -0.2553
     31      H   -0.2146
     32      H   -0.1997
     33      H   -0.2528
     34      H   -0.1983
     35      H   -0.2140
     36      C    0.5296
     37      C    0.1536
     38      C    0.6766
     39      O   -0.5277
     40      H   -0.1404
     41      H   -0.2604
     42      H   -0.2210


Dipole moment vector    (Debye):    -0.26183301   -1.91409610   -1.95766606
              magnitude (Debye):     2.75041393


AMS application finished. Exiting.
NORMAL TERMINATION
     Total cpu time:    5240.73
  Total system time:     181.44
 Total elapsed time:    5662.33
