

 Parallel Execution: Process Information
 ==============================================================================
 Rank   Node Name                              NodeID   MyNodeRank  NodeMaster
    0   node110                                   0          0          0
    1   node110                                   0          1         -1
    2   node110                                   0          2         -1
    3   node110                                   0          3         -1
 ==============================================================================


May use up to 122928MB of RAM as shared memory on node 0

 *******************************************************************************
 *                                                                             *
 *  --------------------------------                                           *
 *   Amsterdam Modeling Suite (AMS)              2021.102                      *
 *  --------------------------------                                           *
 *                                               r95042 2021-06-07             *
 *                                                                             *
 *                                                                             *
 *                              =================                              *
 *                              |               |                              *
 *                              |     A M S     |                              *
 *                              |               |                              *
 *                              =================                              *
 *                                                                             *
 *                                                                             *
 *   Online information and documentation:  https://www.scm.com/support/       *
 *   E-mail:  support@scm.com   info@scm.com                                   *
 *                                                                             *
 *   Scientific publications using AMS results must be properly referenced     *
 *   See the User Manuals (or the web site) for recommended citations          *
 *   The terms and conditions of the End User License Agreement apply to       *
 *   the use of AMS, https://www.scm.com/license-terms/                        *
 *                                                                             *
 **********************  x86_64_linux_intel / intelmpi  ************************
 
 Licensed to: VU/FEW (+ SARA) / ALGEMEEN / Amsterdam / THE NETHERLANDS
 SCM User ID: u7668
  
 AMS 2021.102  RunTime: Jan19-2022 20:13:26  ShM Nodes: 1  Procs: 4

 AMS jobname: P_preopt
 AMS jobid  : 1275598655

 Start   directory: /scistor/tc/yhk800/MasterProject/scripts/plams_workdir/P_preopt/
 Results directory: /scistor/tc/yhk800/MasterProject/scripts/plams_workdir/P_preopt/
 Scratch directory: /scratch/3421/amstmp_P_preopt_kid0.1275598655/


 Communication costs MPI_COMM_WORLD:      0.856 usec per message,   0.0036 usec per 8-byte item
 Communication costs for intra-node:      0.884 usec per message,   0.0035 usec per 8-byte item

 RNG seed: 1410299134 1816106068 614686423 -36295770 989842778 1562710375 -880710531 1323717777
       ***************************
       *  GEOMETRY OPTIMIZATION  *
       ***************************

Optimization Method                    Quasi Newton
Optimization Coordinates               Delocalized Coordinates
Optimize lattice                       F
 
 ------------------------------------------------------
 Convergence criteria (Hartree,Angstrom)
 ------------------------------------------------------
 Maximum gradient               0.001000000000
 Maximum rms gradient           0.000666666667
 Maximum step allowed           0.010000000000
 Maximum rms step allowed       0.006666666667
 Maximum energy change allowe   0.000120000000
 Maximum stress energy allowe   0.000500000000
 
Initial model Hessian                  Automatic Hessian
 
------------------------------------
Quasi-Newton Optimizer Parameters
------------------------------------
Hessian Update Method                  BFGS
Maximum number of steps                  250
First GDIIS cycle                          0
Maximum GDIIS vectors                      0
Trust radius (bohr)                        0.200000
Trust radius varies                        T
Constraints converged at all steps         T
Use projector                              T
 
 Rigid motions settings for: old optimizer
 Atomic rotations (x,y,z):     T T T
 Atomic translations (x,y,z):  T T T
 Tolerance:                   1.000000000000000E-006
 
--------
Geometry
--------
Formula: C4H7O
Atoms
  Index Symbol   x (angstrom)   y (angstrom)   z (angstrom)
      1      C     0.07237900     0.45849000     0.14701600
      2      C     0.88136400    -0.76962700     0.34543400
      3      H     0.32008500    -1.64937000     0.00848400
      4      C    -1.24453700     0.48140500    -0.41210600
      5      H     0.49150900     1.42171500     0.44020400
      6      O    -1.90880100     1.51397000    -0.58363800
      7      C     1.35798400    -0.97156700     1.79839200
      8      H     1.97578900    -1.87216200     1.87186400
      9      H     0.50807500    -1.08370100     2.47848500
     10      H     1.95613700    -0.12156000     2.14194000
     11      H     1.74870570    -0.70794881    -0.27811565
     12      H    -1.65069784    -0.46912828    -0.68854743
 
Total System Charge             0.00000
 
 
-------------------------
DFTB Engine configuration
-------------------------
DFTB Resources dir                     /cm/shared/package/ams2021.102/atomicdata/DFTB/GFN1-xTB
 
SCC convergence enabled.
Maximum SCC cycles                       500
SCC charge convergence                   0.000000010000
SCC charge mixing                        0.150000000000
DIIS max dimension                       20
Adaptive SCC charge mixing             T
Adaptive SCC mixing strategy              3
Spin polarization                      F
Orbital-dependent SCC                  T
Orbital fill strategy                  Fermi
Fermi temperature (kelvin)                     300.0000
Use of symmetry                        T
Radial function extrapolation method   Auto

 Settings for Grimme D3 dispersion correction

      damping                        BJ
      s6                          1.000
      s8                          2.400
      a1                          0.630
      a2                          5.000

 Other (technical) parameters

      alpha                      14.000
      version                         4
 

---------------------
Periodic DFTB options
---------------------
 kpoints config
 grid method with params
Assume insulator                        F
Ewald tolerance                    1.00E-10
Ewald range factor                  2.00

 BZStruct config
 ---------------
 Enabled        T
 Automatic      T
 CalcFatBands   T
 useSymmetry    T
 deltaK          0.100000000000000     
 
 Using automatic Hessian for delocalized coordinates.
 
----------------------------------------------------------------------
Geometry Convergence after Step   1       (Hartree/Angstrom,Angstrom)
----------------------------------------------------------------------
current energy                              -16.84580359 Hartree
energy change                     -16.84580359     0.00012000    F
constrained gradient max            0.05768276     0.00100000    F
constrained gradient rms            0.01658451     0.00066667    F
gradient max                        0.05768276
gradient rms                        0.01658451
cart. step max                      0.04925406     0.01000000    F
cart. step rms                      0.01954493     0.00666667    F
 
 
--------
Geometry
--------
Formula: C4H7O
Atoms
  Index Symbol   x (angstrom)   y (angstrom)   z (angstrom)
      1      C     0.08352974     0.45479494     0.15168178
      2      C     0.88223778    -0.77602766     0.33129926
      3      H     0.31310408    -1.65535254     0.00683986
      4      C    -1.23157452     0.47221226    -0.39677258
      5      H     0.50610154     1.40519049     0.46836848
      6      O    -1.87183958     1.50340926    -0.53438394
      7      C     1.34022300    -0.95588807     1.78720464
      8      H     1.95342352    -1.85451575     1.86988062
      9      H     0.47783632    -1.05705488     2.44814844
     10      H     1.93082188    -0.09837014     2.11531216
     11      H     1.77264659    -0.70961325    -0.29288821
     12      H    -1.64851850    -0.49826876    -0.68527857
 
Total System Charge             0.00000
 

 dE(predicted):    -0.18464E-02, dE(actual):    -0.20927E-02, Trust radius:    0.200000, all in a.u.
 
----------------------------------------------------------------------
Geometry Convergence after Step   2       (Hartree/Angstrom,Angstrom)
----------------------------------------------------------------------
current energy                              -16.84789625 Hartree
energy change                      -0.00209266     0.00012000    F
constrained gradient max            0.01516241     0.00100000    F
constrained gradient rms            0.00470783     0.00066667    F
gradient max                        0.01516241
gradient rms                        0.00470783
cart. step max                      0.01302069     0.01000000    F
cart. step rms                      0.00576916     0.00666667    T
 
 
--------
Geometry
--------
Formula: C4H7O
Atoms
  Index Symbol   x (angstrom)   y (angstrom)   z (angstrom)
      1      C     0.08464647     0.45358190     0.15662864
      2      C     0.88072186    -0.77881650     0.33008021
      3      H     0.30900092    -1.65743021     0.01122769
      4      C    -1.23537665     0.47500212    -0.38452562
      5      H     0.51301056     1.39691967     0.47863222
      6      O    -1.87605219     1.50813860    -0.53103988
      7      C     1.33944154    -0.95318175     1.78590055
      8      H     1.94994063    -1.85150516     1.87076697
      9      H     0.47419771    -1.04904217     2.44110112
     10      H     1.92861378    -0.09363928     2.10551222
     11      H     1.77982290    -0.71253011    -0.29657296
     12      H    -1.63997567    -0.50698121    -0.69829926
 
Total System Charge             0.00000
 

 dE(predicted):    -0.21784E-03, dE(actual):    -0.19288E-03, Trust radius:    0.200000, all in a.u.
 
----------------------------------------------------------------------
Geometry Convergence after Step   3       (Hartree/Angstrom,Angstrom)
----------------------------------------------------------------------
current energy                              -16.84808913 Hartree
energy change                      -0.00019288     0.00012000    F
constrained gradient max            0.00732830     0.00100000    F
constrained gradient rms            0.00180660     0.00066667    F
gradient max                        0.00732830
gradient rms                        0.00180660
cart. step max                      0.03322894     0.01000000    F
cart. step rms                      0.01161905     0.00666667    F
 
 
--------
Geometry
--------
Formula: C4H7O
Atoms
  Index Symbol   x (angstrom)   y (angstrom)   z (angstrom)
      1      C     0.09465340     0.45590179     0.14544186
      2      C     0.88583340    -0.77848028     0.32381039
      3      H     0.31628949    -1.65592581     0.00109968
      4      C    -1.22262475     0.48149684    -0.40557629
      5      H     0.52665941     1.39391821     0.47264436
      6      O    -1.89107376     1.50381616    -0.50204917
      7      C     1.33136536    -0.95162524     1.78473325
      8      H     1.93801363    -1.85053526     1.87634664
      9      H     0.45777047    -1.04361370     2.42737280
     10      H     1.91754368    -0.09199089     2.10534799
     11      H     1.79743052    -0.71312081    -0.29468927
     12      H    -1.64386899    -0.51932510    -0.66507032
 
Total System Charge             0.00000
 

 dE(predicted):    -0.14417E-03, dE(actual):     0.24291E-03, Trust radius:    0.031474, all in a.u.
 
----------------------------------------------------------------------
Geometry Convergence after Step   4       (Hartree/Angstrom,Angstrom)
----------------------------------------------------------------------
current energy                              -16.84784622 Hartree
energy change                       0.00024291     0.00012000    F
constrained gradient max            0.01264710     0.00100000    F
constrained gradient rms            0.00379877     0.00066667    F
gradient max                        0.01264710
gradient rms                        0.00379877
cart. step max                      0.00898316     0.01000000    T
cart. step rms                      0.00327169     0.00666667    T
 
 
--------
Geometry
--------
Formula: C4H7O
Atoms
  Index Symbol   x (angstrom)   y (angstrom)   z (angstrom)
      1      C     0.09193439     0.45645675     0.14713956
      2      C     0.88388515    -0.77770803     0.32544243
      3      H     0.31404450    -1.65529316     0.00296765
      4      C    -1.22541510     0.48023473    -0.40122018
      5      H     0.52347289     1.39642158     0.47255196
      6      O    -1.88808778     1.50201823    -0.51103233
      7      C     1.33383860    -0.95280414     1.78552329
      8      H     1.94129923    -1.85211596     1.87473216
      9      H     0.46279529    -1.04608631     2.43255316
     10      H     1.92158173    -0.09375679     2.10694427
     11      H     1.79071935    -0.71205853    -0.29427542
     12      H    -1.64207640    -0.51479244    -0.67191463
 
Total System Charge             0.00000
 

 dE(predicted):    -0.18003E-03, dE(actual):    -0.18134E-03, Trust radius:    0.062948, all in a.u.
 
----------------------------------------------------------------------
Geometry Convergence after Step   5       (Hartree/Angstrom,Angstrom)
----------------------------------------------------------------------
current energy                              -16.84802756 Hartree
energy change                      -0.00018134     0.00012000    F
constrained gradient max            0.00883822     0.00100000    F
constrained gradient rms            0.00207355     0.00066667    F
gradient max                        0.00883822
gradient rms                        0.00207355
cart. step max                      0.01529817     0.01000000    F
cart. step rms                      0.00514207     0.00666667    T
 
 
--------
Geometry
--------
Formula: C4H7O
Atoms
  Index Symbol   x (angstrom)   y (angstrom)   z (angstrom)
      1      C     0.08771579     0.45700829     0.15221144
      2      C     0.88073107    -0.77684434     0.32818168
      3      H     0.31072776    -1.65465696     0.00636293
      4      C    -1.23209232     0.47838568    -0.38982220
      5      H     0.52101504     1.39837372     0.47325964
      6      O    -1.88488481     1.50332439    -0.52633050
      7      C     1.33718256    -0.95406844     1.78666600
      8      H     1.94531249    -1.85367337     1.87160600
      9      H     0.46976519    -1.04879090     2.43900618
     10      H     1.92706330    -0.09588086     2.10758885
     11      H     1.78288605    -0.71088203    -0.29458809
     12      H    -1.63743027    -0.51177926    -0.68473003
 
Total System Charge             0.00000
 

 dE(predicted):    -0.11569E-03, dE(actual):    -0.11526E-03, Trust radius:    0.125896, all in a.u.
 
---------------------------------------------------------
Geometry Convergence after Step   6       ** CONVERGED **
---------------------------------------------------------
current energy                              -16.84814281 Hartree
energy change                      -0.00011526     0.00012000    T
constrained gradient max            0.00071643     0.00100000    T
constrained gradient rms            0.00019773     0.00066667    T
gradient max                        0.00071643
gradient rms                        0.00019773
cart. step max                      0.00191282     0.01000000    T
cart. step rms                      0.00066183     0.00666667    T
 
Geometry optimization converged

Optimized geometry:
 
--------
Geometry
--------
Formula: C4H7O
Atoms
  Index Symbol   x (angstrom)   y (angstrom)   z (angstrom)
      1      C     0.08771579     0.45700829     0.15221144
      2      C     0.88073107    -0.77684434     0.32818168
      3      H     0.31072776    -1.65465696     0.00636293
      4      C    -1.23209232     0.47838568    -0.38982220
      5      H     0.52101504     1.39837372     0.47325964
      6      O    -1.88488481     1.50332439    -0.52633050
      7      C     1.33718256    -0.95406844     1.78666600
      8      H     1.94531249    -1.85367337     1.87160600
      9      H     0.46976519    -1.04879090     2.43900618
     10      H     1.92706330    -0.09588086     2.10758885
     11      H     1.78288605    -0.71088203    -0.29458809
     12      H    -1.63743027    -0.51177926    -0.68473003
 
Total System Charge             0.00000
 
Performing a single point calculation on the final geometry ...

Estimated upper bound for memory consumption:    0.118 MiB

Number of basis functions:           34
    Cycle:   1, MaxQDiff:   0.000000004290, PartialEnergy:     -17.0474808710, Used mix:   0.150 nvec:    0
 Evaluation was successful


    =====================
     CALCULATION RESULTS
    =====================

Energy (hartree)           -16.84814281

Gradients (hartree/bohr)
  Index   Atom            d/dx            d/dy            d/dz
      1      C   -0.0000105834   -0.0000685856   -0.0000452835
      2      C    0.0002167963   -0.0001108493   -0.0001122385
      3      H   -0.0000876065    0.0000175233    0.0000714525
      4      C    0.0000681644   -0.0003791174   -0.0000361853
      5      H   -0.0000267892    0.0000663708    0.0000511799
      6      O   -0.0001263852    0.0002669085   -0.0000209293
      7      C    0.0000229850   -0.0000019888   -0.0000712376
      8      H    0.0000079135   -0.0000162701    0.0000049100
      9      H   -0.0000390550   -0.0000014780    0.0000182423
     10      H    0.0000039452    0.0000381285    0.0000098207
     11      H   -0.0001074223    0.0000551006    0.0000832738
     12      H    0.0000780373    0.0001342576    0.0000469951


--------------
Atomic charges
--------------
  Index   Atom    Charge
      1      C   -0.0236
      2      C   -0.0358
      3      H    0.0361
      4      C    0.3500
      5      H    0.0624
      6      O   -0.4947
      7      C   -0.0766
      8      H    0.0407
      9      H    0.0406
     10      H    0.0396
     11      H    0.0587
     12      H    0.0026


Dipole moment vector    (Debye):     3.28468170   -2.99455830    1.15741107
              magnitude (Debye):     4.59305058

 
--------------------
Energy Decomposition
--------------------
Total Energy (hartree)               -16.84814281
Total Energy (eV)                   -458.46129262
Electronic Energy (hartree)          -17.09923517
Coulomb Energy (hartree)               0.05175430
Repulsion Energy (hartree)             0.20286240
Dispersion Energy (hartree)           -0.00352434
 
----------------------
Gradient Decomposition
----------------------
Total Gradients (hartree/bohr)
  Index   Atom            d/dx            d/dy            d/dz
      1      C   -0.0000105834   -0.0000685856   -0.0000452835
      2      C    0.0002167963   -0.0001108493   -0.0001122385
      3      H   -0.0000876065    0.0000175233    0.0000714525
      4      C    0.0000681644   -0.0003791174   -0.0000361853
      5      H   -0.0000267892    0.0000663708    0.0000511799
      6      O   -0.0001263852    0.0002669085   -0.0000209293
      7      C    0.0000229850   -0.0000019888   -0.0000712376
      8      H    0.0000079135   -0.0000162701    0.0000049100
      9      H   -0.0000390550   -0.0000014780    0.0000182423
     10      H    0.0000039452    0.0000381285    0.0000098207
     11      H   -0.0001074223    0.0000551006    0.0000832738
     12      H    0.0000780373    0.0001342576    0.0000469951
 
Total Gradients (eV/angstrom)
  Index   Atom            d/dx            d/dy            d/dz
      1      C   -0.0005442211   -0.0035268152   -0.0023285718
      2      C    0.0111481107   -0.0057001010   -0.0057715338
      3      H   -0.0045049088    0.0009010826    0.0036742328
      4      C    0.0035051563   -0.0194949976   -0.0018607235
      5      H   -0.0013775583    0.0034129239    0.0026317760
      6      O   -0.0064989872    0.0137249882   -0.0010762288
      7      C    0.0011819362   -0.0001022687   -0.0036631847
      8      H    0.0004069310   -0.0008366402    0.0002524808
      9      H   -0.0020082902   -0.0000760029    0.0009380562
     10      H    0.0002028696    0.0019606436    0.0005050010
     11      H   -0.0055238765    0.0028333864    0.0042821088
     12      H    0.0040128382    0.0069038009    0.0024165870
 
Electronic Gradients (hartree/bohr)
  Index   Atom            d/dx            d/dy            d/dz
      1      C    0.0192114800   -0.0099095261    0.0049314951
      2      C    0.0032106396    0.0005090131    0.0228113007
      3      H   -0.0342919640   -0.0527280303   -0.0192087610
      4      C    0.0078079019   -0.0547737465   -0.0039130700
      5      H    0.0279923284    0.0620415188    0.0209819577
      6      O   -0.0677663131    0.1079969195   -0.0139417193
      7      C   -0.0081686679    0.0038878116   -0.0263501724
      8      H    0.0382818820   -0.0566464723    0.0053887168
      9      H   -0.0545612399   -0.0059200074    0.0410247354
     10      H    0.0369636808    0.0538588538    0.0201696284
     11      H    0.0526886219    0.0039328289   -0.0363483720
     12      H   -0.0213683497   -0.0522491631   -0.0155457394
 
Coulomb Gradients (hartree/bohr)
  Index   Atom            d/dx            d/dy            d/dz
      1      C   -0.0002436003    0.0001991382   -0.0000791103
      2      C    0.0000272120   -0.0000237622   -0.0000541148
      3      H    0.0000486974    0.0001752088    0.0000045746
      4      C    0.0099913388   -0.0137442521    0.0023334102
      5      H    0.0002370965   -0.0006191841    0.0000112869
      6      O   -0.0098904150    0.0140342358   -0.0022777987
      7      C    0.0000156292   -0.0000031714    0.0001802827
      8      H   -0.0000457463    0.0000675176   -0.0000627392
      9      H    0.0000705048   -0.0000053549   -0.0001066452
     10      H   -0.0000415770   -0.0000639373   -0.0000860976
     11      H   -0.0002120718   -0.0000232455    0.0001184080
     12      H    0.0000429317    0.0000068072    0.0000185434
 
Repulsion Gradients (hartree/bohr)
  Index   Atom            d/dx            d/dy            d/dz
      1      C   -0.0189683259    0.0096249443   -0.0048855211
      2      C   -0.0030401326   -0.0005809872   -0.0228712219
      3      H    0.0341478353    0.0525932753    0.0192816989
      4      C   -0.0176726740    0.0681136682    0.0015865251
      5      H   -0.0282555420   -0.0613834839   -0.0209350863
      6      O    0.0775871607   -0.1218106950    0.0162255817
      7      C    0.0081385995   -0.0038655282    0.0260659815
      8      H   -0.0382538954    0.0565881317   -0.0053451722
      9      H    0.0544351433    0.0059446738   -0.0409403055
     10      H   -0.0369474389   -0.0537519211   -0.0201025574
     11      H   -0.0526129728   -0.0038427023    0.0363206805
     12      H    0.0214422429    0.0523706245    0.0155993966
 
Dispersion Gradients (hartree/bohr)
  Index   Atom            d/dx            d/dy            d/dz
      1      C   -0.0000101371    0.0000168579   -0.0000121473
      2      C    0.0000190772   -0.0000151130    0.0000017975
      3      H    0.0000078248   -0.0000229306   -0.0000060600
      4      C   -0.0000584023    0.0000252131   -0.0000430506
      5      H   -0.0000006722    0.0000275200   -0.0000069784
      6      O   -0.0000568178    0.0000464482   -0.0000269929
      7      C    0.0000374242   -0.0000211007    0.0000326705
      8      H    0.0000256732   -0.0000254470    0.0000241045
      9      H    0.0000165368   -0.0000207894    0.0000404576
     10      H    0.0000292803   -0.0000048669    0.0000288473
     11      H    0.0000290004   -0.0000117806   -0.0000074427
     12      H   -0.0000387875    0.0000059890   -0.0000252055
 
----------------
Mulliken Charges
----------------
  Index   Atom          Charge      Population
      1      C   -0.0236356038        4.023636
      2      C   -0.0357764486        4.035776
      3      H    0.0360877305        0.963912
      4      C    0.3500278292        3.649972
      5      H    0.0624110477        0.937589
      6      O   -0.4947184384        6.494718
      7      C   -0.0766338932        4.076634
      8      H    0.0406544496        0.959346
      9      H    0.0406024473        0.959398
     10      H    0.0396188434        0.960381
     11      H    0.0587448296        0.941255
     12      H    0.0026172067        0.997383
         Total    0.0000000000       29.000000
 
----------------------
Mulliken Shell Charges
----------------------
  Index   Atom      L          Charge      Population
      1      C      0    0.8780534373        1.121947
      2      C      1   -0.9016890412        2.901689
      3      C      0    0.9716168993        1.028383
      4      C      1   -1.0073933479        3.007393
      5      H      0    0.0476595487        0.952340
      6      H      0   -0.0115718182        0.011572
      7      C      0    0.9840538599        1.015946
      8      C      1   -0.6340260307        2.634026
      9      H      0    0.0686939376        0.931306
     10      H      0   -0.0062828898        0.006283
     11      O      0    0.2640570635        1.735943
     12      O      1   -0.7587755019        4.758776
     13      C      0    0.9893251888        1.010675
     14      C      1   -1.0659590820        3.065959
     15      H      0    0.0513797615        0.948620
     16      H      0   -0.0107253120        0.010725
     17      H      0    0.0513925682        0.948607
     18      H      0   -0.0107901209        0.010790
     19      H      0    0.0493535474        0.950646
     20      H      0   -0.0097347040        0.009735
     21      H      0    0.0726124863        0.927388
     22      H      0   -0.0138676567        0.013868
     23      H      0    0.0153942196        0.984606
     24      H      0   -0.0127770129        0.012777
                Total    0.0000000000       29.000000
 
 
--------
Orbitals
--------
Index of HOMO                   15
Fermi Energy (hartree)           -0.40724350
Orbitals
   Index  Energy (hartree)       Energy (eV)        Occupation  Degeneracy
       1       -0.77371890      -21.05396239        2.00000000           1
       2       -0.68790066      -18.71872926        2.00000000           1
       3       -0.66692032      -18.14782525        2.00000000           1
       4       -0.63927325      -17.39551028        2.00000000           1
       5       -0.63029917      -17.15131310        2.00000000           1
       6       -0.58963838      -16.04487682        2.00000000           1
       7       -0.58481345      -15.91358363        2.00000000           1
       8       -0.56670898      -15.42093602        2.00000000           1
       9       -0.55581582      -15.12451797        2.00000000           1
      10       -0.54453243      -14.81748146        2.00000000           1
      11       -0.52946911      -14.40758767        2.00000000           1
      12       -0.51201785      -13.93271450        2.00000000           1
      13       -0.50971856      -13.87014769        2.00000000           1
      14       -0.44042132      -11.98447397        2.00000000           1
      15       -0.40724350      -11.08165935        1.00000000           1
      16       -0.23793653       -6.47458247        0.00000000           1
      17       -0.14841239       -4.03850673        0.00000000           1
      18       -0.14147270       -3.84966804        0.00000000           1
      19       -0.12006068       -3.26701743        0.00000000           1
      20       -0.10321807       -2.80870657        0.00000000           1
      21       -0.08739941       -2.37825895        0.00000000           1
      22       -0.07704292       -2.09644451        0.00000000           1
      23       -0.06847028       -1.86317113        0.00000000           1
      24        0.06918639        1.88265753        0.00000000           1
      25        0.11048480        3.00644427        0.00000000           1
      26        0.16964100        4.61616649        0.00000000           1
      27        0.20634205        5.61485280        0.00000000           1
      28        0.25160050        6.84639808        0.00000000           1
      29        0.25533970        6.94814682        0.00000000           1
      30        0.32465846        8.83440631        0.00000000           1
      31        0.36290169        9.87505742        0.00000000           1
      32        0.36513574        9.93584896        0.00000000           1
      33        0.41971328       11.42097939        0.00000000           1
      34        0.65538734       17.83399689        0.00000000           1
 

AMS application finished. Exiting.
NORMAL TERMINATION
     Total cpu time:       0.70
  Total system time:       0.11
 Total elapsed time:       0.95
