

 Parallel Execution: Process Information
 ==============================================================================
 Rank   Node Name                              NodeID   MyNodeRank  NodeMaster
    0   node115                                   0          0          0
    1   node115                                   0          1         -1
    2   node115                                   0          2         -1
    3   node115                                   0          3         -1
 ==============================================================================


May use up to 122928MB of RAM as shared memory on node 0

 *******************************************************************************
 *                                                                             *
 *  --------------------------------                                           *
 *   Amsterdam Modeling Suite (AMS)              2021.102                      *
 *  --------------------------------                                           *
 *                                               r95042 2021-06-07             *
 *                                                                             *
 *                                                                             *
 *                              =================                              *
 *                              |               |                              *
 *                              |     A M S     |                              *
 *                              |               |                              *
 *                              =================                              *
 *                                                                             *
 *                                                                             *
 *   Online information and documentation:  https://www.scm.com/support/       *
 *   E-mail:  support@scm.com   info@scm.com                                   *
 *                                                                             *
 *   Scientific publications using AMS results must be properly referenced     *
 *   See the User Manuals (or the web site) for recommended citations          *
 *   The terms and conditions of the End User License Agreement apply to       *
 *   the use of AMS, https://www.scm.com/license-terms/                        *
 *                                                                             *
 **********************  x86_64_linux_intel / intelmpi  ************************
 
 Licensed to: VU/FEW (+ SARA) / ALGEMEEN / Amsterdam / THE NETHERLANDS
 SCM User ID: u7668
  
 AMS 2021.102  RunTime: Jan22-2022 23:25:41  ShM Nodes: 1  Procs: 4

 AMS jobname: 17.achiral_catalyst.H_H_ZnCl2.Rsub_cat_complex
 AMS jobid  : 1436897470

 Start   directory: /scistor/tc/yhk800/MasterProject/calculations/achiral_catalyst_H_H_ZnCl2/17.achiral_catalyst.H_H_ZnCl2.Rsub_cat_complex/
 Results directory: /scistor/tc/yhk800/MasterProject/calculations/achiral_catalyst_H_H_ZnCl2/17.achiral_catalyst.H_H_ZnCl2.Rsub_cat_complex/
 Scratch directory: /scratch/3977/amstmp_17.achiral_catalyst.H_H_ZnCl2.Rsub_cat_complex_kid0.1436897470/


 Communication costs MPI_COMM_WORLD:      0.849 usec per message,   0.0072 usec per 8-byte item
 Communication costs for intra-node:     -0.028 usec per message,   0.0042 usec per 8-byte item

 RNG seed: 1301228020 -25596522 252413317 759800233 1781038370 -741442520 1529260845 1562397773



                      ************************************************************************
                      *  ADF 2021.102  RunTime: Jan22-2022 23:25:41  ShM Nodes: 1  Procs: 4  *
                      ************************************************************************
  
       ***************************
       *  GEOMETRY OPTIMIZATION  *
       ***************************

Optimization Method                    Quasi Newton
Optimization Coordinates               Delocalized Coordinates
Optimize lattice                       F
 
 ------------------------------------------------------
 Convergence criteria (Hartree,Angstrom)
 ------------------------------------------------------
 Maximum gradient               0.001000000000
 Maximum rms gradient           0.000666666667
 Maximum step allowed           0.010000000000
 Maximum rms step allowed       0.006666666667
 Maximum energy change allowe   0.000110000000
 Maximum stress energy allowe   0.000500000000
 
Initial model Hessian                  Automatic Hessian
 
------------------------------------
Quasi-Newton Optimizer Parameters
------------------------------------
Hessian Update Method                  BFGS
Maximum number of steps                  250
First GDIIS cycle                          0
Maximum GDIIS vectors                      0
Trust radius (bohr)                        0.200000
Trust radius varies                        T
Constraints converged at all steps         T
Use projector                              T
 
 Rigid motions settings for: old optimizer
 Atomic rotations (x,y,z):     T T T
 Atomic translations (x,y,z):  T T T
 Tolerance:                   1.000000000000000E-006
 
--------
Geometry
--------
Formula: C3H4Cl2OSn
Atoms
  Index Symbol   x (angstrom)   y (angstrom)   z (angstrom)
      1      H     0.09039378    -1.80988465    -0.51555853
      2      C    -0.90781845    -0.00771283    -0.04943451
      3      C     0.18266548    -0.75219647    -0.26512258
      4      C     1.55928918    -0.22013974    -0.18291419
      5      O     1.86635738     0.93365884     0.07180470
      6      H    -0.82431619     1.04491294     0.20242594
      7      H    -1.88982657    -0.42714089    -0.11755322
      8      H     2.32514145    -0.94333367    -0.37095895
      9     Sn     2.11649976     4.00970191     1.24030281
     10     Cl     2.37669725     4.61951391     3.52772774
     11     Cl     2.38909661     6.12967906     0.18995859
 
Total System Charge             0.00000
 
 
----------------
ADF Engine Input
----------------
 
 NumericalQuality VeryGood
 SCF
 Converge 1.0e-6
 Iterations 99
 End
 SYMMETRY NOSYM
 XC
 GGA OLYP
 End
 basis
 core None
 type TZ2P
 End
 

 Title: *** (NO TITLE) ***

 Using automatic Hessian for delocalized coordinates.
 *** GOStep1 ***

 Energy gradients wrt nuclear displacements
 ==========================================

     Atom      Cartesian (a.u./angstrom)
                 X         Y         Z
 ----------------------------------------
     1 H    -0.000784 -0.001227 -0.000287
     2 C    -0.013486 -0.007900 -0.001528
     3 C     0.001958  0.001989  0.000497
     4 C     0.028081 -0.028089 -0.007077
     5 O     0.003111  0.000439  0.000697
     6 H    -0.000425 -0.001578 -0.000155
     7 H     0.020265  0.007741  0.001109
     8 H    -0.037729  0.034972  0.009031
     9 Sn    0.003086  0.011838  0.005971
    10 Cl   -0.001970 -0.004393 -0.014195
    11 Cl   -0.002107 -0.013792  0.005935
 ----------------------------------------
 Mulliken charges used for AMS results%charges...
 
----------------------------------------------------------------------
Geometry Convergence after Step   1       (Hartree/Angstrom,Angstrom)
----------------------------------------------------------------------
current energy                               -2.02035506 Hartree
energy change                      -2.02035506     0.00011000    F
constrained gradient max            0.03774026     0.00100000    F
constrained gradient rms            0.01318557     0.00066667    F
gradient max                        0.03774026
gradient rms                        0.01318557
cart. step max                      0.02611330     0.01000000    F
cart. step rms                      0.00834719     0.00666667    F
 
 
--------
Geometry
--------
Formula: C3H4Cl2OSn
Atoms
  Index Symbol   x (angstrom)   y (angstrom)   z (angstrom)
      1      H     0.09115863    -1.81012613    -0.51340100
      2      C    -0.91409750    -0.00870993    -0.05112375
      3      C     0.18098225    -0.75243312    -0.26532719
      4      C     1.56185463    -0.22187777    -0.18364281
      5      O     1.86117412     0.93452500     0.07288917
      6      H    -0.83137490     1.04598478     0.19612249
      7      H    -1.90707477    -0.43303826    -0.11835783
      8      H     2.35125475    -0.96194343    -0.37426857
      9     Sn     2.10270326     4.01481024     1.24114511
     10     Cl     2.39085298     4.62718867     3.53320929
     11     Cl     2.39674623     6.14267834     0.19343289
 
Total System Charge             0.00000
 
 *** GOStep2 ***

 Energy gradients wrt nuclear displacements
 ==========================================

     Atom      Cartesian (a.u./angstrom)
                 X         Y         Z
 ----------------------------------------
     1 H    -0.000185 -0.000294 -0.000158
     2 C    -0.006275 -0.000980  0.000239
     3 C     0.002700  0.001055  0.000186
     4 C     0.008909 -0.013085 -0.003489
     5 O     0.001867  0.006687  0.002334
     6 H     0.000100 -0.000480 -0.000139
     7 H     0.005209  0.002078  0.000260
     8 H    -0.011421  0.011204  0.002980
     9 Sn    0.002532  0.006991  0.003792
    10 Cl   -0.001675 -0.003017 -0.010577
    11 Cl   -0.001761 -0.010160  0.004570
 ----------------------------------------
 Mulliken charges used for AMS results%charges...

 dE(predicted):    -0.10770E-02, dE(actual):    -0.14509E-02, Trust radius:    0.200000, all in a.u.
 
----------------------------------------------------------------------
Geometry Convergence after Step   2       (Hartree/Angstrom,Angstrom)
----------------------------------------------------------------------
current energy                               -2.02180598 Hartree
energy change                      -0.00145092     0.00011000    F
constrained gradient max            0.01308771     0.00100000    F
constrained gradient rms            0.00545698     0.00066667    F
gradient max                        0.01308771
gradient rms                        0.00545698
cart. step max                      0.02878445     0.01000000    F
cart. step rms                      0.00983464     0.00666667    F
 
 
--------
Geometry
--------
Formula: C3H4Cl2OSn
Atoms
  Index Symbol   x (angstrom)   y (angstrom)   z (angstrom)
      1      H     0.09437517    -1.81565176    -0.50964336
      2      C    -0.91785702    -0.01504302    -0.05787404
      3      C     0.17908015    -0.75698634    -0.26553620
      4      C     1.55880577    -0.21981095    -0.17998747
      5      O     1.84951277     0.93671889     0.07552699
      6      H    -0.83877188     1.04078249     0.18794103
      7      H    -1.91513216    -0.44434321    -0.12563119
      8      H     2.36380326    -0.96705400    -0.37397840
      9     Sn     2.07696556     4.02521488     1.24364586
     10     Cl     2.41963742     4.63445870     3.53989257
     11     Cl     2.41376063     6.15877274     0.19632201
 
Total System Charge             0.00000
 
 *** GOStep3 ***

 Energy gradients wrt nuclear displacements
 ==========================================

     Atom      Cartesian (a.u./angstrom)
                 X         Y         Z
 ----------------------------------------
     1 H    -0.000065 -0.000019  0.000029
     2 C     0.001002  0.001154 -0.000066
     3 C     0.000605  0.001331 -0.000006
     4 C    -0.000751  0.001311  0.001035
     5 O     0.000012  0.003447  0.001286
     6 H     0.000222  0.000118  0.000214
     7 H    -0.001654 -0.000868  0.000010
     8 H     0.001376 -0.000551 -0.000410
     9 Sn    0.001877  0.001263  0.001213
    10 Cl   -0.001286 -0.001398 -0.006206
    11 Cl   -0.001335 -0.005788  0.002901
 ----------------------------------------
 Mulliken charges used for AMS results%charges...

 dE(predicted):    -0.31433E-03, dE(actual):    -0.40981E-03, Trust radius:    0.200000, all in a.u.
 
----------------------------------------------------------------------
Geometry Convergence after Step   3       (Hartree/Angstrom,Angstrom)
----------------------------------------------------------------------
current energy                               -2.02221579 Hartree
energy change                      -0.00040981     0.00011000    F
constrained gradient max            0.00621306     0.00100000    F
constrained gradient rms            0.00190486     0.00066667    F
gradient max                        0.00621306
gradient rms                        0.00190486
cart. step max                      0.03700429     0.01000000    F
cart. step rms                      0.01267359     0.00666667    F
 
 
--------
Geometry
--------
Formula: C3H4Cl2OSn
Atoms
  Index Symbol   x (angstrom)   y (angstrom)   z (angstrom)
      1      H     0.10161214    -1.82323093    -0.50438462
      2      C    -0.92250309    -0.02573495    -0.06247194
      3      C     0.17841751    -0.76321182    -0.26435628
      4      C     1.55441898    -0.21388944    -0.18075816
      5      O     1.83613981     0.94415187     0.07513035
      6      H    -0.85019692     1.03253615     0.17508971
      7      H    -1.91876144    -0.45980279    -0.13441486
      8      H     2.36852645    -0.96260435    -0.36521760
      9     Sn     2.03996127     4.04006905     1.24748909
     10     Cl     2.45553445     4.63624769     3.54419494
     11     Cl     2.44103053     6.17252793     0.20037719
 
Total System Charge             0.00000
 
 *** GOStep4 ***

 Energy gradients wrt nuclear displacements
 ==========================================

     Atom      Cartesian (a.u./angstrom)
                 X         Y         Z
 ----------------------------------------
     1 H    -0.000015  0.000064 -0.000048
     2 C     0.002936  0.001760  0.001055
     3 C    -0.000286 -0.000114  0.000660
     4 C    -0.004210  0.007280 -0.000646
     5 O    -0.000341  0.002513  0.002025
     6 H     0.000039  0.000318 -0.000015
     7 H    -0.003013 -0.001288 -0.000633
     8 H     0.005422 -0.004945 -0.000457
     9 Sn    0.001257 -0.003323 -0.000854
    10 Cl   -0.000854 -0.000053 -0.002676
    11 Cl   -0.000934 -0.002212  0.001590
 ----------------------------------------
 Mulliken charges used for AMS results%charges...

 dE(predicted):    -0.10805E-03, dE(actual):    -0.16572E-03, Trust radius:    0.200000, all in a.u.
 
----------------------------------------------------------------------
Geometry Convergence after Step   4       (Hartree/Angstrom,Angstrom)
----------------------------------------------------------------------
current energy                               -2.02238151 Hartree
energy change                      -0.00016572     0.00011000    F
constrained gradient max            0.00727674     0.00100000    F
constrained gradient rms            0.00239869     0.00066667    F
gradient max                        0.00727674
gradient rms                        0.00239869
cart. step max                      0.04971134     0.01000000    F
cart. step rms                      0.01635724     0.00666667    F
 
 
--------
Geometry
--------
Formula: C3H4Cl2OSn
Atoms
  Index Symbol   x (angstrom)   y (angstrom)   z (angstrom)
      1      H     0.11093515    -1.83119769    -0.50308173
      2      C    -0.92843593    -0.03809092    -0.07375352
      3      C     0.17798886    -0.77018576    -0.26529493
      4      C     1.54956095    -0.21030269    -0.16764992
      5      O     1.82116877     0.95116056     0.08238478
      6      H    -0.86470339     1.02098152     0.16221808
      7      H    -1.92121900    -0.47873501    -0.14649131
      8      H     2.37059267    -0.95235059    -0.36014018
      9     Sn     1.99036044     4.06098060     1.25362127
     10     Cl     2.50524578     4.63805600     3.54594747
     11     Cl     2.47268538     6.18674239     0.20291777
 
Total System Charge             0.00000
 
 *** GOStep5 ***

 Energy gradients wrt nuclear displacements
 ==========================================

     Atom      Cartesian (a.u./angstrom)
                 X         Y         Z
 ----------------------------------------
     1 H     0.000068  0.000149 -0.000111
     2 C     0.002822  0.002335  0.000291
     3 C    -0.000896 -0.001329 -0.001378
     4 C    -0.005196  0.008476  0.005427
     5 O    -0.000412  0.002329  0.000042
     6 H    -0.000239  0.000245 -0.000038
     7 H    -0.002404 -0.001149  0.000183
     8 H     0.006523 -0.005959 -0.002672
     9 Sn   -0.000069 -0.008517 -0.003255
    10 Cl   -0.000037  0.001514  0.001386
    11 Cl   -0.000161  0.001908  0.000125
 ----------------------------------------
 Mulliken charges used for AMS results%charges...

 dE(predicted):    -0.16112E-03, dE(actual):    -0.17225E-03, Trust radius:    0.400000, all in a.u.
 
----------------------------------------------------------------------
Geometry Convergence after Step   5       (Hartree/Angstrom,Angstrom)
----------------------------------------------------------------------
current energy                               -2.02255376 Hartree
energy change                      -0.00017225     0.00011000    F
constrained gradient max            0.00851439     0.00100000    F
constrained gradient rms            0.00318793     0.00066667    F
gradient max                        0.00851439
gradient rms                        0.00318793
cart. step max                      0.10212361     0.01000000    F
cart. step rms                      0.03290584     0.00666667    F
 
 
--------
Geometry
--------
Formula: C3H4Cl2OSn
Atoms
  Index Symbol   x (angstrom)   y (angstrom)   z (angstrom)
      1      H     0.13294007    -1.84530298    -0.48790565
      2      C    -0.94058852    -0.06304044    -0.09155511
      3      C     0.17930198    -0.78037296    -0.26399934
      4      C     1.54099394    -0.19428202    -0.16474308
      5      O     1.79212003     0.97236423     0.08237380
      6      H    -0.89565925     0.99796947     0.13865266
      7      H    -1.92408385    -0.51780162    -0.16953820
      8      H     2.37266286    -0.92694989    -0.32985650
      9     Sn     1.88823683     4.10349847     1.26353275
     10     Cl     2.59588470     4.62633050     3.53352813
     11     Cl     2.54237090     6.20464566     0.22018833
 
Total System Charge             0.00000
 
 *** GOStep6 ***

 Energy gradients wrt nuclear displacements
 ==========================================

     Atom      Cartesian (a.u./angstrom)
                 X         Y         Z
 ----------------------------------------
     1 H     0.000218  0.000181  0.000385
     2 C    -0.000295  0.002512 -0.000345
     3 C    -0.000731 -0.004080 -0.000150
     4 C    -0.002914  0.009366 -0.000197
     5 O    -0.000329  0.000940  0.001419
     6 H    -0.000503 -0.000283  0.000681
     7 H     0.000124  0.000278  0.000055
     8 H     0.004367 -0.004922 -0.000438
     9 Sn   -0.004205 -0.016193 -0.007029
    10 Cl    0.002259  0.004206  0.006959
    11 Cl    0.002010  0.007995 -0.001340
 ----------------------------------------
 Mulliken charges used for AMS results%charges...

 dE(predicted):    -0.23919E-03, dE(actual):    -0.23755E-03, Trust radius:    0.800000, all in a.u.
 
----------------------------------------------------------------------
Geometry Convergence after Step   6       (Hartree/Angstrom,Angstrom)
----------------------------------------------------------------------
current energy                               -2.02279131 Hartree
energy change                      -0.00023755     0.00011000    F
constrained gradient max            0.01619590     0.00100000    F
constrained gradient rms            0.00439645     0.00066667    F
gradient max                        0.01619590
gradient rms                        0.00439645
cart. step max                      0.05738403     0.01000000    F
cart. step rms                      0.01841297     0.00666667    F
 
 
--------
Geometry
--------
Formula: C3H4Cl2OSn
Atoms
  Index Symbol   x (angstrom)   y (angstrom)   z (angstrom)
      1      H     0.14625871    -1.84727749    -0.48477792
      2      C    -0.94594626    -0.07559276    -0.09530100
      3      C     0.18177655    -0.78204921    -0.25986021
      4      C     1.53780917    -0.18483997    -0.15362019
      5      O     1.77788145     0.98572309     0.08880297
      6      H    -0.91157649     0.98883464     0.11988163
      7      H    -1.92326732    -0.53762077    -0.18297101
      8      H     2.37205817    -0.90528012    -0.31491616
      9     Sn     1.83085280     4.13077811     1.27211922
     10     Cl     2.64411969     4.60272799     3.52121422
     11     Cl     2.57421321     6.20165490     0.22010626
 
Total System Charge             0.00000
 
 *** GOStep7 ***

 Energy gradients wrt nuclear displacements
 ==========================================

     Atom      Cartesian (a.u./angstrom)
                 X         Y         Z
 ----------------------------------------
     1 H     0.000183  0.000313 -0.000283
     2 C    -0.002203  0.000637  0.001867
     3 C    -0.000744 -0.003192 -0.000633
     4 C     0.001398  0.003890  0.000447
     5 O    -0.000130  0.001104  0.000723
     6 H    -0.000395 -0.000223 -0.000710
     7 H     0.002059  0.001361 -0.000246
     8 H    -0.000444 -0.000511  0.000010
     9 Sn   -0.005860 -0.017213 -0.007619
    10 Cl    0.003262  0.004562  0.008205
    11 Cl    0.002873  0.009271 -0.001762
 ----------------------------------------
 Mulliken charges used for AMS results%charges...

 dE(predicted):    -0.14472E-03, dE(actual):    -0.23920E-03, Trust radius:    0.800000, all in a.u.
 
----------------------------------------------------------------------
Geometry Convergence after Step   7       (Hartree/Angstrom,Angstrom)
----------------------------------------------------------------------
current energy                               -2.02303051 Hartree
energy change                      -0.00023920     0.00011000    F
constrained gradient max            0.01721196     0.00100000    F
constrained gradient rms            0.00437350     0.00066667    F
gradient max                        0.01721196
gradient rms                        0.00437350
cart. step max                      0.16609083     0.01000000    F
cart. step rms                      0.05600298     0.00666667    F
 
 
--------
Geometry
--------
Formula: C3H4Cl2OSn
Atoms
  Index Symbol   x (angstrom)   y (angstrom)   z (angstrom)
      1      H     0.18770707    -1.84411543    -0.45543262
      2      C    -0.95734267    -0.09751669    -0.12588381
      3      C     0.19326944    -0.77380104    -0.24966314
      4      C     1.53270259    -0.14865493    -0.12267361
      5      O     1.74175904     1.03297587     0.10634880
      6      H    -0.95403851     0.96895096     0.08142840
      7      H    -1.91556734    -0.58837795    -0.21819667
      8      H     2.37232334    -0.83488847    -0.25611344
      9     Sn     1.66476197     4.21462162     1.30081313
     10     Cl     2.77094481     4.48481498     3.45315083
     11     Cl     2.64765994     6.16304950     0.21689994
 
Total System Charge             0.00000
 
 *** GOStep8 ***

 Energy gradients wrt nuclear displacements
 ==========================================

     Atom      Cartesian (a.u./angstrom)
                 X         Y         Z
 ----------------------------------------
     1 H     0.000039 -0.000041 -0.000082
     2 C    -0.007315 -0.003009 -0.001921
     3 C     0.000013  0.001263  0.000237
     4 C     0.017129 -0.016228 -0.001955
     5 O     0.000511  0.002234  0.000264
     6 H     0.000307 -0.000722  0.000311
     7 H     0.006414  0.003331  0.001253
     8 H    -0.017719  0.014571  0.002379
     9 Sn   -0.008967 -0.014671 -0.006856
    10 Cl    0.005081  0.004258  0.007725
    11 Cl    0.004507  0.009013 -0.001354
 ----------------------------------------
 Mulliken charges used for AMS results%charges...

 dE(predicted):    -0.53380E-03, dE(actual):    -0.63916E-03, Trust radius:    1.000000, all in a.u.
 
----------------------------------------------------------------------
Geometry Convergence after Step   8       (Hartree/Angstrom,Angstrom)
----------------------------------------------------------------------
current energy                               -2.02366967 Hartree
energy change                      -0.00063916     0.00011000    F
constrained gradient max            0.01770932     0.00100000    F
constrained gradient rms            0.00732350     0.00066667    F
gradient max                        0.01770932
gradient rms                        0.00732350
cart. step max                      0.10750779     0.01000000    F
cart. step rms                      0.02715504     0.00666667    F
 
 
--------
Geometry
--------
Formula: C3H4Cl2OSn
Atoms
  Index Symbol   x (angstrom)   y (angstrom)   z (angstrom)
      1      H     0.20302897    -1.82877715    -0.44675560
      2      C    -0.95272155    -0.09370719    -0.11805925
      3      C     0.20211719    -0.75840664    -0.23809221
      4      C     1.53431825    -0.12807610    -0.10671341
      5      O     1.73526853     1.05664510     0.11872290
      6      H    -0.95651228     0.97737993     0.06538363
      7      H    -1.90606870    -0.59100216    -0.22667891
      8      H     2.37567243    -0.80097570    -0.23995552
      9     Sn     1.62982143     4.24979274     1.31962077
     10     Cl     2.77848241     4.37730719     3.44253723
     11     Cl     2.64077300     6.11687839     0.16066817
 
Total System Charge             0.00000
 
 *** GOStep9 ***

 Energy gradients wrt nuclear displacements
 ==========================================

     Atom      Cartesian (a.u./angstrom)
                 X         Y         Z
 ----------------------------------------
     1 H    -0.000260 -0.000296 -0.001045
     2 C    -0.003484 -0.007346  0.002494
     3 C    -0.000934  0.007756  0.000092
     4 C     0.019861 -0.025123 -0.001593
     5 O     0.000729  0.002692 -0.000403
     6 H     0.001013 -0.000103 -0.002056
     7 H     0.006320  0.003167 -0.000026
     8 H    -0.023856  0.020150  0.002911
     9 Sn    0.000053 -0.004382 -0.002067
    10 Cl    0.000492  0.000528  0.003010
    11 Cl    0.000065  0.002957 -0.001317
 ----------------------------------------
 Mulliken charges used for AMS results%charges...

 dE(predicted):    -0.47786E-03, dE(actual):    -0.47980E-03, Trust radius:    1.000000, all in a.u.
 
----------------------------------------------------------------------
Geometry Convergence after Step   9       (Hartree/Angstrom,Angstrom)
----------------------------------------------------------------------
current energy                               -2.02414948 Hartree
energy change                      -0.00047980     0.00011000    F
constrained gradient max            0.02512525     0.00100000    F
constrained gradient rms            0.00826292     0.00066667    F
gradient max                        0.02512525
gradient rms                        0.00826292
cart. step max                      0.20977322     0.01000000    F
cart. step rms                      0.07939528     0.00666667    F
 
 
--------
Geometry
--------
Formula: C3H4Cl2OSn
Atoms
  Index Symbol   x (angstrom)   y (angstrom)   z (angstrom)
      1      H     0.26006372    -1.80896432    -0.41158665
      2      C    -0.96081270    -0.10927955    -0.13475140
      3      C     0.22040371    -0.73654699    -0.21507132
      4      C     1.52890785    -0.06371397    -0.05846144
      5      O     1.68333729     1.13039017     0.15622467
      6      H    -1.00226490     0.96658988     0.01673080
      7      H    -1.89620472    -0.64011815    -0.27321441
      8      H     2.40238567    -0.70806550    -0.17080194
      9     Sn     1.42004821     4.35189210     1.37162555
     10     Cl     2.90346200     4.20086403     3.25639079
     11     Cl     2.72485356     5.99401071     0.19359316
 
Total System Charge             0.00000
 
 *** GOStep10 ***

 Energy gradients wrt nuclear displacements
 ==========================================

     Atom      Cartesian (a.u./angstrom)
                 X         Y         Z
 ----------------------------------------
     1 H    -0.000272 -0.000630 -0.001712
     2 C    -0.004077 -0.005410  0.006757
     3 C     0.001697  0.009098 -0.000885
     4 C     0.016571 -0.024763  0.001089
     5 O     0.000520  0.002909 -0.001263
     6 H     0.001726  0.000834 -0.003622
     7 H     0.002060  0.001146 -0.001459
     8 H    -0.018271  0.015853  0.001085
     9 Sn   -0.004898 -0.002899 -0.001911
    10 Cl    0.002425  0.003706 -0.002617
    11 Cl    0.002518  0.000157  0.004536
 ----------------------------------------
 Mulliken charges used for AMS results%charges...

 dE(predicted):    -0.10348E-02, dE(actual):    -0.51206E-03, Trust radius:    1.000000, all in a.u.
 
----------------------------------------------------------------------
Geometry Convergence after Step  10       (Hartree/Angstrom,Angstrom)
----------------------------------------------------------------------
current energy                               -2.02466154 Hartree
energy change                      -0.00051206     0.00011000    F
constrained gradient max            0.02476230     0.00100000    F
constrained gradient rms            0.00734620     0.00066667    F
gradient max                        0.02476230
gradient rms                        0.00734620
cart. step max                      0.08100820     0.01000000    F
cart. step rms                      0.02822117     0.00666667    F
 
 
--------
Geometry
--------
Formula: C3H4Cl2OSn
Atoms
  Index Symbol   x (angstrom)   y (angstrom)   z (angstrom)
      1      H     0.24479782    -1.81215640    -0.41182428
      2      C    -0.95511415    -0.09176318    -0.14476541
      3      C     0.21700987    -0.73824755    -0.22506458
      4      C     1.53177482    -0.07301014    -0.07702720
      5      O     1.69774626     1.11581319     0.14503860
      6      H    -0.98750879     0.97879829     0.04289778
      7      H    -1.90191962    -0.61769387    -0.25326510
      8      H     2.41464475    -0.74339770    -0.18691725
      9     Sn     1.49179218     4.32591455     1.36426083
     10     Cl     2.85394368     4.21347888     3.33739899
     11     Cl     2.67701286     6.01932232     0.13994542
 
Total System Charge             0.00000
 
 *** GOStep11 ***

 Energy gradients wrt nuclear displacements
 ==========================================

     Atom      Cartesian (a.u./angstrom)
                 X         Y         Z
 ----------------------------------------
     1 H    -0.000150 -0.000650 -0.000189
     2 C     0.000140  0.001307 -0.001490
     3 C     0.002558  0.003511  0.000983
     4 C    -0.002105 -0.004588 -0.000097
     5 O    -0.000234  0.000600  0.000033
     6 H     0.000610  0.000585  0.000667
     7 H    -0.002237 -0.001700  0.000379
     8 H     0.001054  0.000602 -0.000205
     9 Sn    0.004034  0.000758  0.000048
    10 Cl   -0.001800  0.000602 -0.001921
    11 Cl   -0.001869 -0.001027  0.001791
 ----------------------------------------
 Mulliken charges used for AMS results%charges...

 dE(predicted):    -0.88623E-03, dE(actual):    -0.72153E-03, Trust radius:    1.000000, all in a.u.
 
----------------------------------------------------------------------
Geometry Convergence after Step  11       (Hartree/Angstrom,Angstrom)
----------------------------------------------------------------------
current energy                               -2.02538306 Hartree
energy change                      -0.00072153     0.00011000    F
constrained gradient max            0.00458801     0.00100000    F
constrained gradient rms            0.00167676     0.00066667    F
gradient max                        0.00458801
gradient rms                        0.00167676
cart. step max                      0.09455598     0.01000000    F
cart. step rms                      0.03201962     0.00666667    F
 
 
--------
Geometry
--------
Formula: C3H4Cl2OSn
Atoms
  Index Symbol   x (angstrom)   y (angstrom)   z (angstrom)
      1      H     0.26863102    -1.80165484    -0.39271950
      2      C    -0.95293246    -0.09231567    -0.15175204
      3      C     0.22597774    -0.72664321    -0.21700899
      4      C     1.52977277    -0.04134078    -0.06286492
      5      O     1.67918284     1.14943952     0.15775045
      6      H    -1.00012839     0.97821215     0.03147758
      7      H    -1.89205553    -0.62890274    -0.26722287
      8      H     2.42268819    -0.70375897    -0.15895276
      9     Sn     1.41946874     4.36840784     1.39111591
     10     Cl     2.88393544     4.11892289     3.27150977
     11     Cl     2.69963933     5.95669222     0.12934519
 
Total System Charge             0.00000
 
 *** GOStep12 ***

 Energy gradients wrt nuclear displacements
 ==========================================

     Atom      Cartesian (a.u./angstrom)
                 X         Y         Z
 ----------------------------------------
     1 H    -0.000224 -0.000566  0.000362
     2 C     0.001269  0.001427 -0.001592
     3 C     0.001740  0.002190  0.000903
     4 C    -0.004215 -0.001443 -0.001616
     5 O     0.000162 -0.000471  0.000510
     6 H     0.000322  0.000261  0.001074
     7 H    -0.001263 -0.001254  0.000169
     8 H     0.002198 -0.001034  0.000187
     9 Sn    0.003161  0.001339  0.000169
    10 Cl   -0.001618  0.001163 -0.003111
    11 Cl   -0.001532 -0.001611  0.002945
 ----------------------------------------
 Mulliken charges used for AMS results%charges...

 dE(predicted):    -0.15456E-03, dE(actual):    -0.21679E-03, Trust radius:    1.000000, all in a.u.
 
----------------------------------------------------------------------
Geometry Convergence after Step  12       (Hartree/Angstrom,Angstrom)
----------------------------------------------------------------------
current energy                               -2.02559985 Hartree
energy change                      -0.00021679     0.00011000    F
constrained gradient max            0.00420815     0.00100000    F
constrained gradient rms            0.00163130     0.00066667    F
gradient max                        0.00420815
gradient rms                        0.00163130
cart. step max                      0.07810684     0.01000000    F
cart. step rms                      0.02552489     0.00666667    F
 
 
--------
Geometry
--------
Formula: C3H4Cl2OSn
Atoms
  Index Symbol   x (angstrom)   y (angstrom)   z (angstrom)
      1      H     0.28950839    -1.79045085    -0.38476243
      2      C    -0.95047690    -0.09288768    -0.14832387
      3      C     0.23394260    -0.71654484    -0.20897550
      4      C     1.52961127    -0.01440129    -0.05109419
      5      O     1.66610152     1.17756602     0.16855009
      6      H    -1.00856377     0.97877577     0.02218361
      7      H    -1.88331183    -0.63491412    -0.27354794
      8      H     2.42800128    -0.66827505    -0.14515679
      9     Sn     1.36881746     4.40260900     1.41502788
     10     Cl     2.89269707     4.04081605     3.22967401
     11     Cl     2.71785259     5.89476538     0.10710293
 
Total System Charge             0.00000
 
 *** GOStep13 ***

 Energy gradients wrt nuclear displacements
 ==========================================

     Atom      Cartesian (a.u./angstrom)
                 X         Y         Z
 ----------------------------------------
     1 H    -0.000162 -0.000029  0.000047
     2 C     0.000709  0.000750  0.000916
     3 C     0.000814  0.000029  0.000118
     4 C    -0.003217  0.000350 -0.001032
     5 O     0.000581 -0.001359  0.000248
     6 H     0.000020 -0.000085 -0.000138
     7 H     0.000513  0.000111 -0.000320
     8 H     0.001034 -0.000958  0.000160
     9 Sn    0.001151  0.001340  0.000077
    10 Cl   -0.000774  0.001131 -0.002856
    11 Cl   -0.000668 -0.001280  0.002780
 ----------------------------------------
 Mulliken charges used for AMS results%charges...
 Rebuilding optimization coordinates

 dE(predicted):    -0.89092E-04, dE(actual):    -0.98400E-04, Trust radius:    1.000000, all in a.u.
 
----------------------------------------------------------------------
Geometry Convergence after Step  13       (Hartree/Angstrom,Angstrom)
----------------------------------------------------------------------
current energy                               -2.02569825 Hartree
energy change                      -0.00009840     0.00011000    T
constrained gradient max            0.00320773     0.00100000    F
constrained gradient rms            0.00112519     0.00066667    F
gradient max                        0.00320773
gradient rms                        0.00112519
cart. step max                      0.02635544     0.01000000    F
cart. step rms                      0.00806655     0.00666667    F
 
 
--------
Geometry
--------
Formula: C3H4Cl2OSn
Atoms
  Index Symbol   x (angstrom)   y (angstrom)   z (angstrom)
      1      H     0.29459883    -1.78694758    -0.38563212
      2      C    -0.94964588    -0.09249770    -0.14459948
      3      C     0.23583233    -0.71375978    -0.20860520
      4      C     1.53107973    -0.00738240    -0.05182503
      5      O     1.66555284     1.18436569     0.16859632
      6      H    -1.00966089     0.97920990     0.02346350
      7      H    -1.88155112    -0.63406877    -0.27000809
      8      H     2.42858305    -0.65936698    -0.15011609
      9     Sn     1.36825884     4.40882927     1.42253198
     10     Cl     2.88197420     4.02331379     3.24612453
     11     Cl     2.71915775     5.87536296     0.08074749
 
Total System Charge             0.00000
 
 *** GOStep14 ***

 Energy gradients wrt nuclear displacements
 ==========================================

     Atom      Cartesian (a.u./angstrom)
                 X         Y         Z
 ----------------------------------------
     1 H    -0.000078  0.000358  0.000018
     2 C    -0.000182  0.000291  0.001615
     3 C    -0.000069 -0.001500 -0.000527
     4 C    -0.000882  0.001063 -0.000328
     5 O     0.000658 -0.001793 -0.000031
     6 H    -0.000180 -0.000369 -0.000565
     7 H     0.001502  0.001036 -0.000321
     8 H    -0.000438 -0.000331  0.000086
     9 Sn    0.000652  0.001259  0.000103
    10 Cl   -0.000467  0.000232 -0.001216
    11 Cl   -0.000516 -0.000248  0.001166
 ----------------------------------------
 Mulliken charges used for AMS results%charges...

 dE(predicted):    -0.57929E-04, dE(actual):    -0.82671E-04, Trust radius:    1.000000, all in a.u.
 
----------------------------------------------------------------------
Geometry Convergence after Step  14       (Hartree/Angstrom,Angstrom)
----------------------------------------------------------------------
current energy                               -2.02578092 Hartree
energy change                      -0.00008267     0.00011000    T
constrained gradient max            0.00178845     0.00100000    F
constrained gradient rms            0.00079276     0.00066667    F
gradient max                        0.00178845
gradient rms                        0.00079276
cart. step max                      0.02517613     0.01000000    F
cart. step rms                      0.00707507     0.00666667    F
 
 
--------
Geometry
--------
Formula: C3H4Cl2OSn
Atoms
  Index Symbol   x (angstrom)   y (angstrom)   z (angstrom)
      1      H     0.30059035    -1.78231281    -0.38545869
      2      C    -0.94961029    -0.09185656    -0.14693276
      3      C     0.23809815    -0.70933617    -0.20805170
      4      C     1.53180034     0.00043520    -0.05012848
      5      O     1.66205367     1.19245641     0.17110526
      6      H    -1.01325408     0.97925139     0.02452465
      7      H    -1.88046105    -0.63746981    -0.26799027
      8      H     2.43174150    -0.64851301    -0.14962476
      9     Sn     1.35855958     4.41574988     1.43087845
     10     Cl     2.88036567     4.00846706     3.24415582
     11     Cl     2.72429584     5.85018683     0.06820029
 
Total System Charge             0.00000
 
 *** GOStep15 ***

 Energy gradients wrt nuclear displacements
 ==========================================

     Atom      Cartesian (a.u./angstrom)
                 X         Y         Z
 ----------------------------------------
     1 H     0.000005  0.000344 -0.000066
     2 C     0.000121  0.000638  0.000200
     3 C    -0.000298 -0.001240 -0.000075
     4 C    -0.000444  0.000905  0.000041
     5 O     0.000505 -0.001826 -0.000181
     6 H    -0.000143 -0.000277 -0.000115
     7 H     0.000747  0.000586  0.000163
     8 H    -0.000082 -0.000463 -0.000066
     9 Sn    0.000106  0.001304  0.000149
    10 Cl   -0.000226  0.000068 -0.000913
    11 Cl   -0.000293 -0.000040  0.000861
 ----------------------------------------
 Mulliken charges used for AMS results%charges...

 dE(predicted):    -0.17663E-04, dE(actual):    -0.28550E-04, Trust radius:    1.000000, all in a.u.
 
----------------------------------------------------------------------
Geometry Convergence after Step  15       (Hartree/Angstrom,Angstrom)
----------------------------------------------------------------------
current energy                               -2.02580947 Hartree
energy change                      -0.00002855     0.00011000    T
constrained gradient max            0.00182198     0.00100000    F
constrained gradient rms            0.00059201     0.00066667    T
gradient max                        0.00182198
gradient rms                        0.00059201
cart. step max                      0.07048012     0.01000000    F
cart. step rms                      0.01821725     0.00666667    F
 
 
--------
Geometry
--------
Formula: C3H4Cl2OSn
Atoms
  Index Symbol   x (angstrom)   y (angstrom)   z (angstrom)
      1      H     0.31465667    -1.77164579    -0.38649024
      2      C    -0.95070208    -0.09293936    -0.14458026
      3      C     0.24299063    -0.69896446    -0.20890618
      4      C     1.53313993     0.02005334    -0.05274505
      5      O     1.65332637     1.21226807     0.17349053
      6      H    -1.02280726     0.97734450     0.03138501
      7      H    -1.87881808    -0.64681041    -0.26350054
      8      H     2.43901440    -0.62003555    -0.16075998
      9     Sn     1.34673733     4.42736184     1.45080638
     10     Cl     2.86643176     3.99071950     3.26381495
     11     Cl     2.74021002     5.77970672     0.02816318
 
Total System Charge             0.00000
 
 *** GOStep16 ***

 Energy gradients wrt nuclear displacements
 ==========================================

     Atom      Cartesian (a.u./angstrom)
                 X         Y         Z
 ----------------------------------------
     1 H     0.000136  0.000046  0.000170
     2 C     0.000678  0.000714 -0.000318
     3 C    -0.000933 -0.000197 -0.000246
     4 C     0.000874  0.000188  0.000422
     5 O     0.000270 -0.001525 -0.000385
     6 H     0.000041  0.000125  0.000278
     7 H    -0.001165 -0.000309  0.000072
     8 H     0.000657 -0.000583 -0.000270
     9 Sn   -0.000854  0.001467  0.000362
    10 Cl    0.000212 -0.000598  0.000370
    11 Cl    0.000084  0.000672 -0.000454
 ----------------------------------------
 Mulliken charges used for AMS results%charges...

 dE(predicted):    -0.43648E-04, dE(actual):    -0.61188E-04, Trust radius:    1.000000, all in a.u.
 
----------------------------------------------------------------------
Geometry Convergence after Step  16       (Hartree/Angstrom,Angstrom)
----------------------------------------------------------------------
current energy                               -2.02587066 Hartree
energy change                      -0.00006119     0.00011000    T
constrained gradient max            0.00152321     0.00100000    F
constrained gradient rms            0.00060859     0.00066667    T
gradient max                        0.00152321
gradient rms                        0.00060859
cart. step max                      0.05266562     0.01000000    F
cart. step rms                      0.01308978     0.00666667    F
 
 
--------
Geometry
--------
Formula: C3H4Cl2OSn
Atoms
  Index Symbol   x (angstrom)   y (angstrom)   z (angstrom)
      1      H     0.32358820    -1.76480791    -0.39342648
      2      C    -0.95200274    -0.09563683    -0.14198031
      3      C     0.24565555    -0.69321526    -0.21024535
      4      C     1.53196738     0.03296214    -0.05739273
      5      O     1.64527401     1.22496006     0.17432350
      6      H    -1.03035616     0.97399279     0.03672364
      7      H    -1.87701595    -0.65654194    -0.25690550
      8      H     2.44181503    -0.59981413    -0.17200754
      9     Sn     1.34313293     4.43095213     1.46232562
     10     Cl     2.85590203     3.99716627     3.28342947
     11     Cl     2.75621939     5.72704109     0.00583348
 
Total System Charge             0.00000
 
 *** GOStep17 ***

 Energy gradients wrt nuclear displacements
 ==========================================

     Atom      Cartesian (a.u./angstrom)
                 X         Y         Z
 ----------------------------------------
     1 H     0.000142 -0.000189 -0.000201
     2 C     0.001049  0.000603 -0.000917
     3 C    -0.001075  0.000688  0.000606
     4 C     0.001082 -0.000651  0.000056
     5 O     0.000306 -0.001384 -0.000412
     6 H     0.000204  0.000401  0.000333
     7 H    -0.001735 -0.000789  0.000289
     8 H     0.000627 -0.000285 -0.000138
     9 Sn   -0.001094  0.001559  0.000491
    10 Cl    0.000302 -0.000746  0.000772
    11 Cl    0.000192  0.000792 -0.000880
 ----------------------------------------
 Mulliken charges used for AMS results%charges...

 dE(predicted):    -0.21573E-04, dE(actual):    -0.40696E-04, Trust radius:    1.000000, all in a.u.
 
----------------------------------------------------------------------
Geometry Convergence after Step  17       (Hartree/Angstrom,Angstrom)
----------------------------------------------------------------------
current energy                               -2.02591136 Hartree
energy change                      -0.00004070     0.00011000    T
constrained gradient max            0.00172502     0.00100000    F
constrained gradient rms            0.00076364     0.00066667    F
gradient max                        0.00172502
gradient rms                        0.00076364
cart. step max                      0.17814723     0.01000000    F
cart. step rms                      0.04317607     0.00666667    F
 
 
--------
Geometry
--------
Formula: C3H4Cl2OSn
Atoms
  Index Symbol   x (angstrom)   y (angstrom)   z (angstrom)
      1      H     0.35157276    -1.74455464    -0.41383371
      2      C    -0.95642700    -0.10652363    -0.13156300
      3      C     0.25364494    -0.67599136    -0.21933788
      4      C     1.52536807     0.07426305    -0.07401003
      5      O     1.61658563     1.26455665     0.17808294
      6      H    -1.05588162     0.95957965     0.05962710
      7      H    -1.86968534    -0.68844784    -0.24236750
      8      H     2.44790322    -0.53350049    -0.21423034
      9     Sn     1.33626491     4.43803052     1.49477928
     10     Cl     2.82540912     4.04075264     3.34617244
     11     Cl     2.80942499     5.54889387    -0.05264148
 
Total System Charge             0.00000
 
 *** GOStep18 ***

 Energy gradients wrt nuclear displacements
 ==========================================

     Atom      Cartesian (a.u./angstrom)
                 X         Y         Z
 ----------------------------------------
     1 H     0.000048 -0.000854 -0.000094
     2 C     0.001233  0.000426 -0.001068
     3 C    -0.000413  0.002754  0.000816
     4 C     0.000350 -0.002930 -0.000412
     5 O     0.000690 -0.000755 -0.000674
     6 H     0.000490  0.000882  0.000542
     7 H    -0.002350 -0.001527  0.000158
     8 H     0.000602  0.000473 -0.000017
     9 Sn   -0.001343  0.001748  0.000943
    10 Cl    0.000341 -0.000750  0.001344
    11 Cl    0.000351  0.000532 -0.001537
 ----------------------------------------
 Mulliken charges used for AMS results%charges...

 dE(predicted):    -0.70301E-04, dE(actual):    -0.89892E-04, Trust radius:    1.000000, all in a.u.
 
----------------------------------------------------------------------
Geometry Convergence after Step  18       (Hartree/Angstrom,Angstrom)
----------------------------------------------------------------------
current energy                               -2.02600125 Hartree
energy change                      -0.00008989     0.00011000    T
constrained gradient max            0.00292365     0.00100000    F
constrained gradient rms            0.00114350     0.00066667    F
gradient max                        0.00292365
gradient rms                        0.00114350
cart. step max                      0.04504251     0.01000000    F
cart. step rms                      0.01427911     0.00666667    F
 
 
--------
Geometry
--------
Formula: C3H4Cl2OSn
Atoms
  Index Symbol   x (angstrom)   y (angstrom)   z (angstrom)
      1      H     0.35626131    -1.74170877    -0.42991264
      2      C    -0.95911993    -0.11359941    -0.12628997
      3      C     0.25366271    -0.67579139    -0.22434429
      4      C     1.52034891     0.08164966    -0.08203305
      5      O     1.60605443     1.27045307     0.17921525
      6      H    -1.06426946     0.95085509     0.06966443
      7      H    -1.86832048    -0.70071521    -0.23598124
      8      H     2.44583135    -0.51907567    -0.23226316
      9     Sn     1.34471436     4.43016143     1.49687558
     10     Cl     2.81604292     4.08579516     3.37170772
     11     Cl     2.83297355     5.50903446    -0.05596085
 
Total System Charge             0.00000
 
 *** GOStep19 ***

 Energy gradients wrt nuclear displacements
 ==========================================

     Atom      Cartesian (a.u./angstrom)
                 X         Y         Z
 ----------------------------------------
     1 H    -0.000070 -0.000680 -0.000507
     2 C     0.000641  0.000613 -0.000773
     3 C     0.000401  0.002247  0.001349
     4 C    -0.000708 -0.002774 -0.000708
     5 O     0.000846 -0.000845 -0.000738
     6 H     0.000436  0.000708  0.000166
     7 H    -0.001458 -0.001200  0.000245
     8 H     0.000477  0.000480  0.000106
     9 Sn   -0.000660  0.001714  0.000994
    10 Cl    0.000050 -0.000422  0.000895
    11 Cl    0.000045  0.000160 -0.001028
 ----------------------------------------
 Mulliken charges used for AMS results%charges...

 dE(predicted):    -0.32305E-04, dE(actual):    -0.55801E-04, Trust radius:    1.000000, all in a.u.
 
----------------------------------------------------------------------
Geometry Convergence after Step  19       (Hartree/Angstrom,Angstrom)
----------------------------------------------------------------------
current energy                               -2.02605705 Hartree
energy change                      -0.00005580     0.00011000    T
constrained gradient max            0.00276717     0.00100000    F
constrained gradient rms            0.00096969     0.00066667    F
gradient max                        0.00276717
gradient rms                        0.00096969
cart. step max                      0.10904505     0.01000000    F
cart. step rms                      0.03094319     0.00666667    F
 
 
--------
Geometry
--------
Formula: C3H4Cl2OSn
Atoms
  Index Symbol   x (angstrom)   y (angstrom)   z (angstrom)
      1      H     0.36453574    -1.73880697    -0.46267917
      2      C    -0.96592682    -0.13204128    -0.11455732
      3      C     0.25191452    -0.67793069    -0.24048033
      4      C     1.50825438     0.09440398    -0.09905235
      5      O     1.58211469     1.27895545     0.18398358
      6      H    -1.08319492     0.92674623     0.10037101
      7      H    -1.86703543    -0.72729274    -0.22859947
      8      H     2.43902893    -0.49159627    -0.27261204
      9     Sn     1.36581580     4.40853642     1.49451328
     10     Cl     2.79709349     4.19484021     3.41681736
     11     Cl     2.89157931     5.44124407    -0.04702677
 
Total System Charge             0.00000
 
 *** GOStep20 ***

 Energy gradients wrt nuclear displacements
 ==========================================

     Atom      Cartesian (a.u./angstrom)
                 X         Y         Z
 ----------------------------------------
     1 H    -0.000295 -0.000184  0.000134
     2 C    -0.000691  0.000847  0.000599
     3 C     0.001711  0.000535 -0.000046
     4 C    -0.002224 -0.001599 -0.000492
     5 O     0.000991 -0.001208 -0.000977
     6 H     0.000126 -0.000093 -0.000163
     7 H     0.000691  0.000072 -0.000145
     8 H     0.000106  0.000229  0.000040
     9 Sn    0.000104  0.001577  0.000820
    10 Cl   -0.000130  0.000408 -0.000297
    11 Cl   -0.000390 -0.000584  0.000528
 ----------------------------------------
 Mulliken charges used for AMS results%charges...

 dE(predicted):    -0.69694E-04, dE(actual):    -0.77982E-04, Trust radius:    1.000000, all in a.u.
 
----------------------------------------------------------------------
Geometry Convergence after Step  20       (Hartree/Angstrom,Angstrom)
----------------------------------------------------------------------
current energy                               -2.02613503 Hartree
energy change                      -0.00007798     0.00011000    T
constrained gradient max            0.00221355     0.00100000    F
constrained gradient rms            0.00079527     0.00066667    F
gradient max                        0.00221355
gradient rms                        0.00079527
cart. step max                      0.02453910     0.01000000    F
cart. step rms                      0.00754794     0.00666667    F
 
 
--------
Geometry
--------
Formula: C3H4Cl2OSn
Atoms
  Index Symbol   x (angstrom)   y (angstrom)   z (angstrom)
      1      H     0.36663127    -1.73743425    -0.47580004
      2      C    -0.96802533    -0.13744113    -0.11115433
      3      C     0.25090322    -0.67906110    -0.24459469
      4      C     1.50561893     0.09690049    -0.10169913
      5      O     1.57609883     1.28002818     0.18758925
      6      H    -1.08800905     0.91951461     0.11079996
      7      H    -1.86814562    -0.73391225    -0.22596470
      8      H     2.43755463    -0.48616030    -0.28063355
      9     Sn     1.37421086     4.40267754     1.49006851
     10     Cl     2.78966132     4.21937931     3.42756939
     11     Cl     2.90768061     5.43256732    -0.04550287
 
Total System Charge             0.00000
 
 *** GOStep21 ***

 Energy gradients wrt nuclear displacements
 ==========================================

     Atom      Cartesian (a.u./angstrom)
                 X         Y         Z
 ----------------------------------------
     1 H    -0.000241  0.000109  0.000001
     2 C    -0.000589  0.000886  0.000621
     3 C     0.001228 -0.000294  0.000042
     4 C    -0.001757 -0.000744 -0.000316
     5 O     0.000807 -0.001269 -0.001016
     6 H    -0.000009 -0.000197 -0.000297
     7 H     0.000705  0.000242 -0.000057
     8 H     0.000225 -0.000114 -0.000037
     9 Sn    0.000197  0.001469  0.000714
    10 Cl   -0.000121  0.000511 -0.000303
    11 Cl   -0.000446 -0.000600  0.000648
 ----------------------------------------
 Mulliken charges used for AMS results%charges...

 dE(predicted):    -0.10435E-04, dE(actual):    -0.16788E-04, Trust radius:    1.000000, all in a.u.
 
----------------------------------------------------------------------
Geometry Convergence after Step  21       (Hartree/Angstrom,Angstrom)
----------------------------------------------------------------------
current energy                               -2.02615182 Hartree
energy change                      -0.00001679     0.00011000    T
constrained gradient max            0.00174865     0.00100000    F
constrained gradient rms            0.00067459     0.00066667    F
gradient max                        0.00174865
gradient rms                        0.00067459
cart. step max                      0.06238083     0.01000000    F
cart. step rms                      0.02645059     0.00666667    F
 
 
--------
Geometry
--------
Formula: C3H4Cl2OSn
Atoms
  Index Symbol   x (angstrom)   y (angstrom)   z (angstrom)
      1      H     0.38354972    -1.72440393    -0.52263454
      2      C    -0.97463904    -0.15741712    -0.09905501
      3      C     0.25042922    -0.67625267    -0.25937630
      4      C     1.49584000     0.11792685    -0.10492380
      5      O     1.54823014     1.29537024     0.20953005
      6      H    -1.10901935     0.89074091     0.15412657
      7      H    -1.86916070    -0.76127406    -0.22012975
      8      H     2.43437022    -0.44971073    -0.30054188
      9     Sn     1.39227545     4.39505698     1.47372587
     10     Cl     2.76224258     4.27204248     3.45013915
     11     Cl     2.97006145     5.37497947    -0.05018255
 
Total System Charge             0.00000
 
 *** GOStep22 ***

 Energy gradients wrt nuclear displacements
 ==========================================

     Atom      Cartesian (a.u./angstrom)
                 X         Y         Z
 ----------------------------------------
     1 H     0.000066  0.000865 -0.000060
     2 C     0.000729  0.000491  0.000367
     3 C    -0.001560 -0.002674 -0.000084
     4 C     0.000823  0.001522  0.000019
     5 O     0.000322 -0.000746 -0.000888
     6 H    -0.000475 -0.000361 -0.000408
     7 H     0.000230  0.000739  0.000211
     8 H     0.000171 -0.001052 -0.000224
     9 Sn   -0.000043  0.001047  0.000425
    10 Cl    0.000114  0.000728 -0.000173
    11 Cl   -0.000376 -0.000560  0.000817
 ----------------------------------------
 Mulliken charges used for AMS results%charges...

 dE(predicted):    -0.43509E-04, dE(actual):    -0.65029E-04, Trust radius:    1.000000, all in a.u.
 
----------------------------------------------------------------------
Geometry Convergence after Step  22       (Hartree/Angstrom,Angstrom)
----------------------------------------------------------------------
current energy                               -2.02621685 Hartree
energy change                      -0.00006503     0.00011000    T
constrained gradient max            0.00267605     0.00100000    F
constrained gradient rms            0.00079801     0.00066667    F
gradient max                        0.00267605
gradient rms                        0.00079801
cart. step max                      0.09050706     0.01000000    F
cart. step rms                      0.03839610     0.00666667    F
 
 
--------
Geometry
--------
Formula: C3H4Cl2OSn
Atoms
  Index Symbol   x (angstrom)   y (angstrom)   z (angstrom)
      1      H     0.41340691    -1.69543471    -0.59217695
      2      C    -0.98255200    -0.18575456    -0.08191385
      3      C     0.25218343    -0.66545891    -0.27949591
      4      C     1.48091147     0.15581689    -0.09946801
      5      O     1.50478699     1.32331554     0.25408248
      6      H    -1.13949869     0.84577220     0.22240302
      7      H    -1.86725731    -0.80186187    -0.21722041
      8      H     2.43069565    -0.38528978    -0.31549362
      9     Sn     1.41012170     4.39544922     1.44236014
     10     Cl     2.72258431     4.30603199     3.46121335
     11     Cl     3.05879722     5.28447240    -0.06361244
 
Total System Charge             0.00000
 
 *** GOStep23 ***

 Energy gradients wrt nuclear displacements
 ==========================================

     Atom      Cartesian (a.u./angstrom)
                 X         Y         Z
 ----------------------------------------
     1 H     0.000530  0.001481 -0.000071
     2 C     0.002890 -0.000185 -0.000283
     3 C    -0.005283 -0.005268 -0.000502
     4 C     0.003724  0.003158  0.000381
     5 O     0.000173  0.001110 -0.000354
     6 H    -0.000987 -0.000343 -0.000361
     7 H    -0.000828  0.001143  0.000624
     8 H    -0.000032 -0.001941 -0.000473
     9 Sn   -0.000208  0.000457  0.000131
    10 Cl    0.000328  0.000879  0.000016
    11 Cl   -0.000307 -0.000490  0.000893
 ----------------------------------------
 Mulliken charges used for AMS results%charges...
 Rebuilding optimization coordinates

 dE(predicted):    -0.63425E-04, dE(actual):    -0.10645E-03, Trust radius:    1.000000, all in a.u.
 
----------------------------------------------------------------------
Geometry Convergence after Step  23       (Hartree/Angstrom,Angstrom)
----------------------------------------------------------------------
current energy                               -2.02632330 Hartree
energy change                      -0.00010645     0.00011000    T
constrained gradient max            0.00527508     0.00100000    F
constrained gradient rms            0.00175905     0.00066667    F
gradient max                        0.00527508
gradient rms                        0.00175905
cart. step max                      0.14508657     0.01000000    F
cart. step rms                      0.06433695     0.00666667    F
 
 
--------
Geometry
--------
Formula: C3H4Cl2OSn
Atoms
  Index Symbol   x (angstrom)   y (angstrom)   z (angstrom)
      1      H     0.46878443    -1.62940361    -0.69774328
      2      C    -0.99144905    -0.23030511    -0.05575795
      3      C     0.25908789    -0.63657037    -0.30515022
      4      C     1.45466300     0.22794263    -0.07342466
      5      O     1.42647491     1.37710139     0.34184992
      6      H    -1.18728758     0.76631393     0.33255323
      7      H    -1.85626135    -0.86841920    -0.22142030
      8      H     2.42471536    -0.26486001    -0.31276776
      9     Sn     1.42693591     4.41553931     1.37266988
     10     Cl     2.66311222     4.28033363     3.43801574
     11     Cl     3.19540395     5.13938583    -0.08814681
 
Total System Charge             0.00000
 
 *** GOStep24 ***

 Energy gradients wrt nuclear displacements
 ==========================================

     Atom      Cartesian (a.u./angstrom)
                 X         Y         Z
 ----------------------------------------
     1 H     0.001234  0.002128 -0.000113
     2 C     0.006040 -0.001020 -0.001632
     3 C    -0.010209 -0.008613 -0.001178
     4 C     0.007720  0.001296 -0.000225
     5 O    -0.000060  0.007500  0.002021
     6 H    -0.001517 -0.000166 -0.000139
     7 H    -0.002526  0.001443  0.001283
     8 H    -0.000325 -0.003283 -0.000963
     9 Sn   -0.000968  0.000228 -0.000145
    10 Cl    0.000725  0.000910  0.000013
    11 Cl   -0.000113 -0.000424  0.001076
 ----------------------------------------
 Mulliken charges used for AMS results%charges...

 dE(predicted):    -0.12103E-03, dE(actual):    -0.22787E-03, Trust radius:    1.000000, all in a.u.
 
----------------------------------------------------------------------
Geometry Convergence after Step  24       (Hartree/Angstrom,Angstrom)
----------------------------------------------------------------------
current energy                               -2.02655117 Hartree
energy change                      -0.00022787     0.00011000    F
constrained gradient max            0.01019149     0.00100000    F
constrained gradient rms            0.00337403     0.00066667    F
gradient max                        0.01019149
gradient rms                        0.00337403
cart. step max                      0.08461904     0.01000000    F
cart. step rms                      0.03274613     0.00666667    F
 
 
--------
Geometry
--------
Formula: C3H4Cl2OSn
Atoms
  Index Symbol   x (angstrom)   y (angstrom)   z (angstrom)
      1      H     0.49410635    -1.59199498    -0.74291960
      2      C    -0.99421802    -0.25102051    -0.04231079
      3      C     0.26333643    -0.61746727    -0.31720810
      4      C     1.44008765     0.26567766    -0.06332719
      5      O     1.38733284     1.40294564     0.38173067
      6      H    -1.20883910     0.72591242     0.38458478
      7      H    -1.84574572    -0.90310225    -0.22242357
      8      H     2.42021078    -0.19911322    -0.31499209
      9     Sn     1.44057600     4.42256916     1.33931666
     10     Cl     2.62852251     4.26788497     3.43215625
     11     Cl     3.25880998     5.05476679    -0.10392923
 
Total System Charge             0.00000
 
 *** GOStep25 ***

 Energy gradients wrt nuclear displacements
 ==========================================

     Atom      Cartesian (a.u./angstrom)
                 X         Y         Z
 ----------------------------------------
     1 H     0.001352  0.001901  0.000131
     2 C     0.005928 -0.001122 -0.001882
     3 C    -0.010034 -0.008101 -0.001640
     4 C     0.007721  0.001179 -0.000251
     5 O     0.000190  0.007213  0.002160
     6 H    -0.001396 -0.000123  0.000083
     7 H    -0.002761  0.001347  0.001337
     8 H    -0.000545 -0.003045 -0.000887
     9 Sn   -0.000573  0.000429 -0.000165
    10 Cl    0.000539  0.000803  0.000190
    11 Cl   -0.000422 -0.000481  0.000924
 ----------------------------------------
 Mulliken charges used for AMS results%charges...

 dE(predicted):    -0.86217E-04, dE(actual):    -0.18111E-03, Trust radius:    1.000000, all in a.u.
 
----------------------------------------------------------------------
Geometry Convergence after Step  25       (Hartree/Angstrom,Angstrom)
----------------------------------------------------------------------
current energy                               -2.02673228 Hartree
energy change                      -0.00018111     0.00011000    F
constrained gradient max            0.01001242     0.00100000    F
constrained gradient rms            0.00329603     0.00066667    F
gradient max                        0.01001242
gradient rms                        0.00329603
cart. step max                      0.20936153     0.01000000    F
cart. step rms                      0.10283445     0.00666667    F
 
 
--------
Geometry
--------
Formula: C3H4Cl2OSn
Atoms
  Index Symbol   x (angstrom)   y (angstrom)   z (angstrom)
      1      H     0.56698588    -1.46032245    -0.85839971
      2      C    -0.99842859    -0.31341747    -0.00034772
      3      C     0.27614122    -0.54780526    -0.33915234
      4      C     1.38738019     0.38414033    -0.01458540
      5      O     1.25500025     1.48093431     0.51279575
      6      H    -1.26911900     0.59264279     0.53732145
      7      H    -1.79945390    -1.01101943    -0.23226908
      8      H     2.39847929     0.01024831    -0.28458451
      9     Sn     1.49725970     4.44510624     1.19390049
     10     Cl     2.51322291     4.11844203     3.35536245
     11     Cl     3.45671174     4.87810902    -0.13936358
 
Total System Charge             0.00000
 
 *** GOStep26 ***

 Energy gradients wrt nuclear displacements
 ==========================================

     Atom      Cartesian (a.u./angstrom)
                 X         Y         Z
 ----------------------------------------
     1 H     0.001435  0.000293  0.000425
     2 C     0.003020 -0.001515 -0.002196
     3 C    -0.005971 -0.002226 -0.001412
     4 C     0.004775 -0.003617 -0.003049
     5 O     0.001216  0.006243  0.003775
     6 H    -0.000183  0.000109  0.000815
     7 H    -0.002208  0.000595  0.000995
     8 H    -0.001311 -0.001764  0.000282
     9 Sn    0.000670  0.001925 -0.000247
    10 Cl   -0.000209  0.000027 -0.000062
    11 Cl   -0.001234 -0.000070  0.000674
 ----------------------------------------
 Mulliken charges used for AMS results%charges...

 dE(predicted):    -0.10982E-02, dE(actual):    -0.78764E-03, Trust radius:    1.000000, all in a.u.
 
----------------------------------------------------------------------
Geometry Convergence after Step  26       (Hartree/Angstrom,Angstrom)
----------------------------------------------------------------------
current energy                               -2.02751992 Hartree
energy change                      -0.00078764     0.00011000    F
constrained gradient max            0.00624731     0.00100000    F
constrained gradient rms            0.00232980     0.00066667    F
gradient max                        0.00624731
gradient rms                        0.00232980
cart. step max                      0.19884423     0.01000000    F
cart. step rms                      0.07572655     0.00666667    F
 
 
--------
Geometry
--------
Formula: C3H4Cl2OSn
Atoms
  Index Symbol   x (angstrom)   y (angstrom)   z (angstrom)
      1      H     0.61024948    -1.35707923    -0.93309022
      2      C    -0.99156009    -0.35848250     0.03344938
      3      C     0.28500861    -0.49341095    -0.35268522
      4      C     1.34675483     0.47495798     0.00277221
      5      O     1.16086362     1.54127233     0.59114211
      6      H    -1.29607051     0.49262341     0.63863040
      7      H    -1.75331275    -1.08813454    -0.22828869
      8      H     2.37280706     0.17522761    -0.29731024
      9     Sn     1.54288324     4.44278337     1.10617980
     10     Cl     2.42000476     4.06803615     3.32110512
     11     Cl     3.58655144     4.67926479    -0.15122686
 
Total System Charge             0.00000
 
 *** GOStep27 ***

 Energy gradients wrt nuclear displacements
 ==========================================

     Atom      Cartesian (a.u./angstrom)
                 X         Y         Z
 ----------------------------------------
     1 H     0.001175 -0.000830  0.000254
     2 C     0.001029 -0.001743 -0.001859
     3 C    -0.003246  0.000939 -0.001263
     4 C     0.004419 -0.019231 -0.011568
     5 O    -0.000529  0.019535  0.012457
     6 H     0.000608  0.000324  0.001121
     7 H    -0.001363  0.000266  0.000428
     8 H    -0.001037 -0.002116  0.000432
     9 Sn    0.001385  0.003205 -0.000634
    10 Cl   -0.000593 -0.000517  0.000028
    11 Cl   -0.001847  0.000169  0.000604
 ----------------------------------------
 Mulliken charges used for AMS results%charges...
 Rebuilding optimization coordinates

 dE(predicted):    -0.10005E-02, dE(actual):    -0.47787E-03, Trust radius:    1.000000, all in a.u.
 
----------------------------------------------------------------------
Geometry Convergence after Step  27       (Hartree/Angstrom,Angstrom)
----------------------------------------------------------------------
current energy                               -2.02799780 Hartree
energy change                      -0.00047787     0.00011000    F
constrained gradient max            0.01954090     0.00100000    F
constrained gradient rms            0.00579856     0.00066667    F
gradient max                        0.01954090
gradient rms                        0.00579856
cart. step max                      0.19681091     0.01000000    F
cart. step rms                      0.07618357     0.00666667    F
 
 
--------
Geometry
--------
Formula: C3H4Cl2OSn
Atoms
  Index Symbol   x (angstrom)   y (angstrom)   z (angstrom)
      1      H     0.64283087    -1.26209489    -0.96429477
      2      C    -0.97847332    -0.39152065     0.07156075
      3      C     0.29970815    -0.43129369    -0.34328348
      4      C     1.29859510     0.56790864     0.01905763
      5      O     1.06354720     1.58683058     0.65788581
      6      H    -1.32009438     0.41204428     0.71899930
      7      H    -1.67900774    -1.16073881    -0.23483886
      8      H     2.33777494     0.37203853    -0.31481347
      9     Sn     1.59592539     4.42008161     1.01452605
     10     Cl     2.32086935     3.97059306     3.27215739
     11     Cl     3.70250413     4.49320975    -0.16627854
 
Total System Charge             0.00000
 
 *** GOStep28 ***

 Energy gradients wrt nuclear displacements
 ==========================================

     Atom      Cartesian (a.u./angstrom)
                 X         Y         Z
 ----------------------------------------
     1 H    -0.000485 -0.004256 -0.000678
     2 C    -0.009374 -0.002546  0.002563
     3 C     0.014043  0.020526  0.004657
     4 C    -0.015234 -0.016751 -0.007511
     5 O     0.005893 -0.005364  0.000273
     6 H     0.003239  0.001181  0.000963
     7 H     0.003612  0.000072 -0.002556
     8 H    -0.000734  0.002905  0.003513
     9 Sn    0.002115  0.004915 -0.001428
    10 Cl   -0.001379 -0.001567  0.000450
    11 Cl   -0.001697  0.000886 -0.000246
 ----------------------------------------
 Mulliken charges used for AMS results%charges...

 dE(predicted):    -0.29387E-02, dE(actual):    -0.40742E-03, Trust radius:    0.062115, all in a.u.
 
----------------------------------------------------------------------
Geometry Convergence after Step  28       (Hartree/Angstrom,Angstrom)
----------------------------------------------------------------------
current energy                               -2.02840521 Hartree
energy change                      -0.00040742     0.00011000    F
constrained gradient max            0.02051422     0.00100000    F
constrained gradient rms            0.00670872     0.00066667    F
gradient max                        0.02051422
gradient rms                        0.00670872
cart. step max                      0.04627186     0.01000000    F
cart. step rms                      0.01362634     0.00666667    F
 
 
--------
Geometry
--------
Formula: C3H4Cl2OSn
Atoms
  Index Symbol   x (angstrom)   y (angstrom)   z (angstrom)
      1      H     0.64729280    -1.25815313    -0.98127197
      2      C    -0.97611868    -0.40089623     0.07067382
      3      C     0.29618258    -0.43780936    -0.35462283
      4      C     1.30175767     0.57619618     0.01189043
      5      O     1.06005696     1.59888861     0.66024450
      6      H    -1.31461914     0.39980749     0.72380966
      7      H    -1.69023734    -1.16558292    -0.22167641
      8      H     2.33716365     0.37394838    -0.33405255
      9     Sn     1.59262077     4.42150969     1.02003838
     10     Cl     2.32389042     4.01686492     3.28504777
     11     Cl     3.70618999     4.45228477    -0.14940301
 
Total System Charge             0.00000
 
 *** GOStep29 ***

 Energy gradients wrt nuclear displacements
 ==========================================

     Atom      Cartesian (a.u./angstrom)
                 X         Y         Z
 ----------------------------------------
     1 H    -0.000204 -0.001952  0.000457
     2 C    -0.002456 -0.001614  0.000574
     3 C     0.000521  0.005028 -0.001077
     4 C     0.001642 -0.023803 -0.014836
     5 O    -0.001279  0.018749  0.015223
     6 H     0.001812  0.000593  0.001022
     7 H     0.000385 -0.000209 -0.001426
     8 H     0.000636 -0.001088  0.000849
     9 Sn    0.001271  0.004960 -0.001643
    10 Cl   -0.000759 -0.001282  0.000644
    11 Cl   -0.001569  0.000617  0.000214
 ----------------------------------------
 Mulliken charges used for AMS results%charges...

 dE(predicted):    -0.61243E-03, dE(actual):    -0.33877E-03, Trust radius:    0.062115, all in a.u.
 
----------------------------------------------------------------------
Geometry Convergence after Step  29       (Hartree/Angstrom,Angstrom)
----------------------------------------------------------------------
current energy                               -2.02874398 Hartree
energy change                      -0.00033877     0.00011000    F
constrained gradient max            0.02379850     0.00100000    F
constrained gradient rms            0.00664613     0.00066667    F
gradient max                        0.02379850
gradient rms                        0.00664613
cart. step max                      0.08754379     0.01000000    F
cart. step rms                      0.02254767     0.00666667    F
 
 
--------
Geometry
--------
Formula: C3H4Cl2OSn
Atoms
  Index Symbol   x (angstrom)   y (angstrom)   z (angstrom)
      1      H     0.65803769    -1.23215795    -0.99637771
      2      C    -0.97108775    -0.41285695     0.07577816
      3      C     0.29882443    -0.42427376    -0.35874861
      4      C     1.28866720     0.60356701     0.01016831
      5      O     1.03617187     1.61165160     0.67121269
      6      H    -1.32119780     0.37584739     0.73690020
      7      H    -1.67135968    -1.18894857    -0.21907735
      8      H     2.32482088     0.42558184    -0.34622708
      9     Sn     1.60058327     4.41045773     1.01276055
     10     Cl     2.31892933     4.04344910     3.28951271
     11     Cl     3.72179024     4.36474098    -0.14522408
 
Total System Charge             0.00000
 
 *** GOStep30 ***

 Energy gradients wrt nuclear displacements
 ==========================================

     Atom      Cartesian (a.u./angstrom)
                 X         Y         Z
 ----------------------------------------
     1 H    -0.000489 -0.001720  0.000421
     2 C    -0.003054 -0.001095  0.001177
     3 C     0.001562  0.004817 -0.001326
     4 C    -0.001301 -0.017481 -0.010906
     5 O     0.001191  0.011183  0.010545
     6 H     0.001682  0.000464  0.000722
     7 H     0.000914 -0.000144 -0.001431
     8 H     0.000569 -0.000473  0.001374
     9 Sn    0.000677  0.005002 -0.001777
    10 Cl   -0.000481 -0.001080  0.000942
    11 Cl   -0.001270  0.000527  0.000259
 ----------------------------------------
 Mulliken charges used for AMS results%charges...

 dE(predicted):    -0.28979E-03, dE(actual):    -0.38663E-03, Trust radius:    0.124231, all in a.u.
 
----------------------------------------------------------------------
Geometry Convergence after Step  30       (Hartree/Angstrom,Angstrom)
----------------------------------------------------------------------
current energy                               -2.02913061 Hartree
energy change                      -0.00038663     0.00011000    F
constrained gradient max            0.01747623     0.00100000    F
constrained gradient rms            0.00476209     0.00066667    F
gradient max                        0.01747623
gradient rms                        0.00476209
cart. step max                      0.16186693     0.01000000    F
cart. step rms                      0.04325675     0.00666667    F
 
 
--------
Geometry
--------
Formula: C3H4Cl2OSn
Atoms
  Index Symbol   x (angstrom)   y (angstrom)   z (angstrom)
      1      H     0.68413822    -1.17739775    -1.02492461
      2      C    -0.96067062    -0.43800534     0.08297648
      3      C     0.30319236    -0.39865896    -0.36591416
      4      C     1.26140701     0.65956585     0.01182704
      5      O     0.98444453     1.63677979     0.69500639
      6      H    -1.33593542     0.32567232     0.75894343
      7      H    -1.63731104    -1.23400573    -0.21462000
      8      H     2.29808284     0.52528564    -0.36268902
      9     Sn     1.61663913     4.38542916     0.99427038
     10     Cl     2.31855936     4.08951939     3.28767290
     11     Cl     3.75163332     4.20287405    -0.13187103
 
Total System Charge             0.00000
 
 *** GOStep31 ***

 Energy gradients wrt nuclear displacements
 ==========================================

     Atom      Cartesian (a.u./angstrom)
                 X         Y         Z
 ----------------------------------------
     1 H    -0.000539 -0.000361  0.000623
     2 C    -0.001578  0.000231  0.001562
     3 C     0.000378  0.001403 -0.002425
     4 C    -0.005322  0.000491  0.000228
     5 O     0.006061 -0.005938 -0.000696
     6 H     0.000735 -0.000102  0.000169
     7 H     0.000621 -0.000047 -0.000899
     8 H     0.000682 -0.000412  0.001816
     9 Sn   -0.000820  0.005056 -0.001987
    10 Cl    0.000203 -0.000728  0.001108
    11 Cl   -0.000422  0.000405  0.000500
 ----------------------------------------
 Mulliken charges used for AMS results%charges...

 dE(predicted):    -0.69388E-03, dE(actual):    -0.71133E-03, Trust radius:    0.248461, all in a.u.
 
----------------------------------------------------------------------
Geometry Convergence after Step  31       (Hartree/Angstrom,Angstrom)
----------------------------------------------------------------------
current energy                               -2.02984195 Hartree
energy change                      -0.00071133     0.00011000    F
[...]
     2     C       0.000470   0.040615  -0.052938
     3     C       0.012256   0.021594  -0.127284
     4     C       0.002952  -0.060427   0.181135
     5     O      -0.031472  -0.155278   0.636405
     6     H      -0.015004  -0.017189   0.290048
     7     H       0.006750   0.116941  -0.338055
     8     H       0.027997  -0.023054  -0.054162
     9    Sn       0.003391   0.010363  -0.058804
    10    Cl      -0.104743  -0.096300  -0.058145
    11    Cl       0.100648   0.126518  -0.014765
 
 Mode:    13      Frequency (cm-1):      136.7031     Intensity (km/mol):        9.3078
 Index  Atom      ---- Displacements (x/y/z) ----
     1     H      -0.228286  -0.300606  -0.075124
     2     C      -0.084541   0.110017   0.018555
     3     C      -0.051915  -0.170356  -0.039439
     4     C       0.183853  -0.276992  -0.045877
     5     O       0.332324  -0.203038  -0.036831
     6     H       0.110714   0.254268   0.061651
     7     H      -0.306445   0.212874   0.027707
     8     H       0.182131  -0.432921  -0.063403
     9    Sn      -0.030254   0.129720   0.029591
    10    Cl      -0.025947  -0.081434  -0.167409
    11    Cl      -0.031617  -0.147046   0.107122
 
 Mode:    14      Frequency (cm-1):      154.6715     Intensity (km/mol):        4.6305
 Index  Atom      ---- Displacements (x/y/z) ----
     1     H      -0.054434  -0.104136   0.455538
     2     C       0.005360   0.012904  -0.059353
     3     C      -0.019106  -0.035958   0.153626
     4     C       0.019100   0.036571  -0.173919
     5     O      -0.006779  -0.021230   0.086427
     6     H       0.053558   0.104641  -0.468288
     7     H      -0.017265  -0.028585   0.128432
     8     H       0.071587   0.142244  -0.658484
     9    Sn       0.000158  -0.000553   0.002417
    10    Cl      -0.005536  -0.001752  -0.002420
    11    Cl       0.004716   0.005430  -0.002424
 
 Mode:    15      Frequency (cm-1):      292.0589     Intensity (km/mol):       93.3602
 Index  Atom      ---- Displacements (x/y/z) ----
     1     H      -0.005649  -0.007735   0.001502
     2     C      -0.002227   0.001973  -0.006169
     3     C      -0.001496  -0.003426  -0.006982
     4     C       0.006065   0.003692  -0.041427
     5     O      -0.006240  -0.017042   0.047886
     6     H       0.003581   0.008456  -0.021200
     7     H      -0.008698   0.000963   0.008470
     8     H       0.017652   0.031721  -0.149788
     9    Sn      -0.000524   0.077898  -0.286223
    10    Cl       0.381520  -0.326921   0.477398
    11    Cl      -0.377870   0.065886   0.505478
 
 Mode:    16      Frequency (cm-1):      306.3089     Intensity (km/mol):       45.8484
 Index  Atom      ---- Displacements (x/y/z) ----
     1     H      -0.055370   0.127030   0.020175
     2     C      -0.109670  -0.247796  -0.067783
     3     C      -0.139125   0.070429  -0.000868
     4     C      -0.004081   0.019943   0.005562
     5     O       0.258365   0.159851   0.063155
     6     H      -0.405016  -0.462962  -0.147964
     7     H       0.210693  -0.402934  -0.066901
     8     H      -0.007107  -0.203419  -0.039335
     9    Sn      -0.091893   0.048482   0.013089
    10    Cl       0.133978  -0.117682   0.145730
    11    Cl       0.157109  -0.040491  -0.191103
 
 Mode:    17      Frequency (cm-1):      316.2781     Intensity (km/mol):       27.4217
 Index  Atom      ---- Displacements (x/y/z) ----
     1     H      -0.037915   0.173478   0.031155
     2     C      -0.099219  -0.237708  -0.064832
     3     C      -0.132582   0.109314   0.008176
     4     C      -0.004738   0.059164   0.013357
     5     O       0.269258   0.197035   0.075275
     6     H      -0.419718  -0.471305  -0.151013
     7     H       0.250726  -0.406846  -0.064593
     8     H      -0.004614  -0.176323  -0.039326
     9    Sn       0.048809  -0.040381  -0.012281
    10    Cl      -0.093845   0.075768  -0.105453
    11    Cl      -0.109404   0.021717   0.134438
 
 Mode:    18      Frequency (cm-1):      536.9123     Intensity (km/mol):       10.0652
 Index  Atom      ---- Displacements (x/y/z) ----
     1     H      -0.040063  -0.075501   0.342469
     2     C      -0.003773  -0.006352   0.027957
     3     C       0.015887   0.033492  -0.143098
     4     C       0.002158   0.001523  -0.005528
     5     O      -0.004522  -0.008860   0.034796
     6     H       0.048525   0.097183  -0.445664
     7     H      -0.077902  -0.155933   0.692333
     8     H      -0.036480  -0.076570   0.352216
     9    Sn       0.000049   0.000036  -0.000372
    10    Cl      -0.000335   0.000033  -0.000235
    11    Cl       0.000392   0.000135  -0.000125
 
 Mode:    19      Frequency (cm-1):      677.3499     Intensity (km/mol):       25.8862
 Index  Atom      ---- Displacements (x/y/z) ----
     1     H       0.240156  -0.102996   0.008862
     2     C       0.054905  -0.037602  -0.001914
     3     C       0.057911  -0.235948  -0.048841
     4     C      -0.207454   0.005736  -0.021469
     5     O       0.077927   0.186699   0.050727
     6     H       0.545595   0.328389   0.130656
     7     H      -0.502950   0.229166   0.003221
     8     H      -0.210449  -0.071849  -0.035165
     9    Sn      -0.001374  -0.001150  -0.000447
    10    Cl      -0.000216  -0.000173  -0.000690
    11    Cl      -0.000328  -0.000407   0.000704
 
 Mode:    20      Frequency (cm-1):      943.6767     Intensity (km/mol):       60.0849
 Index  Atom      ---- Displacements (x/y/z) ----
     1     H       0.171655   0.272459   0.074339
     2     C       0.146410   0.114013   0.042436
     3     C       0.032303   0.152261   0.036509
     4     C      -0.281424  -0.190473  -0.071741
     5     O       0.058270  -0.038450  -0.002827
     6     H      -0.102569  -0.079953  -0.035725
     7     H       0.566094  -0.078406   0.053536
     8     H      -0.291020  -0.498945  -0.148875
     9    Sn      -0.000506   0.001214   0.000178
    10    Cl       0.000256  -0.000796  -0.000126
    11    Cl       0.000154  -0.000698  -0.000029
 
 Mode:    21      Frequency (cm-1):      999.0644     Intensity (km/mol):       14.1456
 Index  Atom      ---- Displacements (x/y/z) ----
     1     H       0.085460   0.169554  -0.774214
     2     C       0.002232   0.005183  -0.023441
     3     C      -0.007798  -0.016505   0.069236
     4     C      -0.004325  -0.010135   0.048172
     5     O       0.001294   0.003762  -0.014312
     6     H       0.042897   0.084510  -0.382743
     7     H      -0.047437  -0.091632   0.409191
     8     H       0.016604   0.034125  -0.145503
     9    Sn       0.000002   0.000006  -0.000032
    10    Cl       0.000056  -0.000097   0.000065
    11    Cl      -0.000070   0.000052   0.000091
 
 Mode:    22      Frequency (cm-1):     1007.8217     Intensity (km/mol):       20.3064
 Index  Atom      ---- Displacements (x/y/z) ----
     1     H      -0.007054  -0.013972   0.065742
     2     C       0.018937   0.036299  -0.162415
     3     C      -0.006073  -0.011352   0.051895
     4     C       0.001508   0.003428  -0.015817
     5     O      -0.000375  -0.001122   0.004245
     6     H      -0.083671  -0.161092   0.723300
     7     H      -0.070998  -0.138252   0.618947
     8     H      -0.003288  -0.006663   0.028571
     9    Sn      -0.000003  -0.000008   0.000038
    10    Cl      -0.000022   0.000039  -0.000049
    11    Cl       0.000029  -0.000015  -0.000072
 
 Mode:    23      Frequency (cm-1):     1028.4968     Intensity (km/mol):        2.0856
 Index  Atom      ---- Displacements (x/y/z) ----
     1     H       0.037078   0.068311  -0.275317
     2     C       0.000057  -0.001675   0.003309
     3     C      -0.012684  -0.022119   0.108578
     4     C       0.022243   0.047177  -0.214700
     5     O      -0.004892  -0.012321   0.050125
     6     H       0.009692   0.011320  -0.037652
     7     H       0.011123   0.031350  -0.133961
     8     H      -0.096605  -0.198083   0.885969
     9    Sn       0.000017   0.000021  -0.000094
    10    Cl      -0.000116   0.000158   0.000014
    11    Cl       0.000109  -0.000107   0.000009
 
 Mode:    24      Frequency (cm-1):     1057.6879     Intensity (km/mol):        4.3419
 Index  Atom      ---- Displacements (x/y/z) ----
     1     H       0.389936   0.461720   0.145755
     2     C      -0.015106  -0.112728  -0.026950
     3     C      -0.032092   0.153089   0.029960
     4     C       0.015587  -0.009464   0.002292
     5     O       0.003495  -0.066834  -0.015281
     6     H       0.429059   0.224131   0.097876
     7     H      -0.529919   0.136804  -0.028043
     8     H       0.018223  -0.152004  -0.042230
     9    Sn       0.000064   0.000197   0.000050
    10    Cl       0.000087  -0.000040   0.000089
    11    Cl       0.000085   0.000005  -0.000086
 
 Mode:    25      Frequency (cm-1):     1291.0722     Intensity (km/mol):        3.0610
 Index  Atom      ---- Displacements (x/y/z) ----
     1     H       0.726437   0.383819   0.168282
     2     C      -0.100134   0.069459   0.003964
     3     C       0.062142  -0.085320  -0.011737
     4     C      -0.000973   0.002176   0.000603
     5     O       0.013591  -0.014882  -0.001928
     6     H      -0.449483  -0.176660  -0.091681
     7     H      -0.040618   0.026287   0.001458
     8     H       0.006406   0.157498   0.035400
     9    Sn       0.000082   0.000071   0.000024
    10    Cl      -0.000062   0.000009  -0.000043
    11    Cl      -0.000058  -0.000014   0.000033
 
 Mode:    26      Frequency (cm-1):     1402.8795     Intensity (km/mol):       44.1249
 Index  Atom      ---- Displacements (x/y/z) ----
     1     H       0.118802   0.137993   0.043955
     2     C      -0.021897   0.002578  -0.001920
     3     C      -0.090010  -0.020952  -0.014971
     4     C      -0.028887  -0.001718  -0.002947
     5     O       0.045474  -0.038180  -0.003848
     6     H       0.382542   0.286626   0.107692
     7     H       0.474163  -0.218058   0.006158
     8     H      -0.029090   0.646862   0.139593
     9    Sn       0.000050  -0.000101  -0.000005
    10    Cl       0.000021   0.000043   0.000138
    11    Cl       0.000048   0.000066  -0.000123
 
 Mode:    27      Frequency (cm-1):     1416.8707     Intensity (km/mol):       24.6063
 Index  Atom      ---- Displacements (x/y/z) ----
     1     H       0.237251   0.138237   0.057543
     2     C      -0.032194   0.023428   0.001534
     3     C      -0.062182  -0.070883  -0.022858
     4     C       0.085883   0.038414   0.017532
     5     O      -0.059039   0.041431   0.003105
     6     H       0.253309   0.222550   0.078698
     7     H       0.457807  -0.200591   0.008099
     8     H       0.097696  -0.703924  -0.145220
     9    Sn      -0.000061  -0.000056  -0.000028
    10    Cl       0.000001   0.000012  -0.000096
    11    Cl      -0.000020   0.000001   0.000099
 
 Mode:    28      Frequency (cm-1):     1600.8427     Intensity (km/mol):      280.7327
 Index  Atom      ---- Displacements (x/y/z) ----
     1     H      -0.119735  -0.243949  -0.066944
     2     C      -0.338194  -0.053119  -0.050958
     3     C       0.348491   0.131382   0.069298
     4     C       0.058084  -0.309435  -0.063678
     5     O      -0.080358   0.167994   0.029295
     6     H       0.288845   0.444554   0.133725
     7     H       0.240764  -0.361115  -0.052685
     8     H       0.037845   0.162948   0.039695
     9    Sn       0.000439   0.000629   0.000172
    10    Cl      -0.000554   0.000281  -0.000500
    11    Cl      -0.000566  -0.000020   0.000520
 
 Mode:    29      Frequency (cm-1):     1679.4975     Intensity (km/mol):      145.2895
 Index  Atom      ---- Displacements (x/y/z) ----
     1     H       0.208549   0.354515   0.102557
     2     C       0.220322   0.017897   0.029397
     3     C      -0.255946  -0.019372  -0.033543
     4     C       0.203078  -0.378435  -0.063073
     5     O      -0.131826   0.232725   0.038278
     6     H      -0.133462  -0.282050  -0.078073
     7     H      -0.202914   0.251103   0.032029
     8     H       0.203389   0.423151   0.114004
     9    Sn       0.000624   0.000435   0.000156
    10    Cl      -0.000750   0.000667  -0.000555
    11    Cl      -0.000735   0.000241   0.000665
 
 Mode:    30      Frequency (cm-1):     2973.0079     Intensity (km/mol):       18.1224
 Index  Atom      ---- Displacements (x/y/z) ----
     1     H      -0.037327   0.037060   0.004011
     2     C       0.000043   0.000421   0.000100
     3     C       0.004438  -0.001502   0.000157
     4     C      -0.084846  -0.000003  -0.009131
     5     O       0.000639   0.000602   0.000175
     6     H       0.002278  -0.000702   0.000092
     7     H      -0.003545  -0.005183  -0.001525
     8     H       0.989417  -0.018145   0.102902
     9    Sn      -0.000057  -0.000028  -0.000010
    10    Cl       0.000035  -0.000109   0.000016
    11    Cl       0.000043  -0.000072  -0.000057
 
 Mode:    31      Frequency (cm-1):     3108.8315     Intensity (km/mol):        2.2719
 Index  Atom      ---- Displacements (x/y/z) ----
     1     H       0.108839  -0.143935  -0.019745
     2     C      -0.064738  -0.004944  -0.008609
     3     C      -0.002564   0.012801   0.002573
     4     C      -0.001680   0.000874   0.000015
     5     O       0.000461  -0.000375  -0.000035
     6     H       0.419546  -0.557874  -0.075705
     7     H       0.274438   0.605254   0.166810
     8     H       0.011230  -0.001181   0.000963
     9    Sn      -0.000001  -0.000001  -0.000001
    10    Cl       0.000001  -0.000003  -0.000001
    11    Cl       0.000001  -0.000002   0.000000
 
 Mode:    32      Frequency (cm-1):     3131.3038     Intensity (km/mol):        5.0307
 Index  Atom      ---- Displacements (x/y/z) ----
     1     H       0.584732  -0.769299  -0.105176
     2     C       0.018047  -0.009782  -0.000089
     3     C      -0.054126   0.065558   0.008463
     4     C      -0.005374  -0.001851  -0.000993
     5     O       0.000119  -0.000090  -0.000013
     6     H      -0.124277   0.164624   0.022321
     7     H      -0.017595  -0.038641  -0.010701
     8     H       0.049351   0.004039   0.006219
     9    Sn      -0.000010  -0.000008  -0.000002
    10    Cl       0.000009  -0.000009   0.000010
    11    Cl       0.000010  -0.000003  -0.000012
 
 Mode:    33      Frequency (cm-1):     3206.3761     Intensity (km/mol):        0.8034
 Index  Atom      ---- Displacements (x/y/z) ----
     1     H       0.069816  -0.088903  -0.011893
     2     C      -0.008350   0.096804   0.020618
     3     C      -0.006824   0.008353   0.001084
     4     C      -0.000465  -0.000081  -0.000069
     5     O       0.000199  -0.000243  -0.000035
     6     H       0.416013  -0.527144  -0.069250
     7     H      -0.302321  -0.631661  -0.175951
     8     H      -0.000455   0.000619   0.000101
     9    Sn      -0.000001  -0.000002  -0.000001
    10    Cl       0.000002   0.000001   0.000002
    11    Cl       0.000002   0.000001  -0.000001

PES point character: Geometry corresponds to a transition state.
                     (Hint: Very small negative frequencies do not count towards being a
                     transition state, as they usually indicate noise on a very flat PES. See
                     the PESPointCharacter%NegativeFrequenciesTolerance keyword documentation.)




 ============================
 Statistical Thermal Analysis  ***  ideal gas assumed  ***
 ============================
  
 Pressure:                  1.000000 atm.
 Temperature:             298.150000 K



 Moments of Inertia [amu*bohr^2] and principal axis
 ==================================================

        1332.1077       3160.9780       3546.3084
 ------------------------------------------------
           0.4864         -0.0176         -0.8736
           0.8439         -0.2495          0.4749
           0.2263          0.9682          0.1065


 The rotational contribution to the molecular entropy includes
 a term, dependent on the symmetry number sigma. The results 
 reported below were computed using sigma = 1, determined from
 the point group symmetry of the input geometry (NOSYM). 
 If this is not the correct symmetry, try symmetrizing the molecule before
 running the calculation (note: linear molecules should be aligned along one
 of the Cartesian axes).
 Contributions from frequencies below 20 1/cm are not included in vibrational sums.
 Their contributions, if any, are reported separately.


     Temp                                                        Transl      Rotat     Vibrat     Total
     ----                                                        ------      -----     ------     -----

     298.15   Entropy (cal/mol-K):                               42.400     31.080     31.129    104.608
              Nuclear Internal Energy (kcal/mol):                 0.889      0.889     43.918     45.696
              Constant Volume Heat Capacity (cal/mol-K):          2.981      2.981     22.945     28.907
          (c) Constant Volume Heat Capacity (cal/mol-K):          2.981      2.981     19.433     25.395

       Summary of energy terms
                                                   hartree              eV         kcal/mol           kJ/mol
                                      --------------------     -----------       ----------      -----------
      Energy from Engine:               -2.034199966850766        -55.3534         -1276.48         -5340.79
      Nuclear Internal Energy:           0.072820455811772          1.9815            45.70           191.19
  (c) Nuclear Internal Energy:           0.071040498918751          1.9331            44.58           186.52
      Internal Energy U:                -1.961379511038995        -53.3719         -1230.78         -5149.60
      pV/n = RT:                         0.000944186013486          0.0257             0.59             2.48
      Enthalpy H:                       -1.960435325025509        -53.3462         -1230.19         -5147.12
      -T*S:                             -0.049702730420325         -1.3525           -31.19          -130.49
  (c) -T*S:                             -0.048077887279832         -1.3083           -30.17          -126.23
      Gibbs free energy:                -2.010138055445833        -54.6986         -1261.38         -5277.62
 
 
 
  (c) The properties marked with this symbol have been corrected using 'low vibrational frequency free rotor
      interpolation corrections'. For those terms all positive frequencies are used (also ones below 20 1/cm),
      but the contribution to the partition function of small vibrational frequencies is modified as described
      in the following paper:
      S. Grimme, 'Supramolecular Binding Thermodynamics by Dispersion-Corrected Density Functional Theory'
      (Chem. Eur. J. 2012, 18, 9955-9964)
      Configuration: Dampener Frequency          :   100.000 1/cm
                     Dampener Alpha              :     4.000
                     Averaging Moment of Inertia : 1.000E-44 kg m2

--------------
Atomic charges
--------------
  Index   Atom    Charge
      1      H   -0.1939
      2      C    0.5268
      3      C    0.1512
      4      C    0.7634
      5      O   -0.5446
      6      H   -0.1758
      7      H   -0.2035
      8      H   -0.2220
      9     Sn    0.7167
     10     Cl   -0.4101
     11     Cl   -0.4082


Dipole moment vector    (Debye):    -4.76126310   -3.59852043   -0.98966227
              magnitude (Debye):     6.04966173


ERROR: Geometry optimization failed! (Converged, but did not find a minimum on the PES.)


AMS application finished. Exiting.
NORMAL TERMINATION
     Total cpu time:   14011.56
  Total system time:      95.53
 Total elapsed time:   28366.34
 WARNING: total elapsed time is much higher than the (CPU+system) time. 
 Make sure the machine is not oversubscribed and has enough memory, SCM_TMPDIR p
 oints to a fast file system, and the network is fast enough.
