

 Parallel Execution: Process Information
 ==============================================================================
 Rank   Node Name                              NodeID   MyNodeRank  NodeMaster
    0   node115                                   0          0          0
    1   node115                                   0          1         -1
    2   node115                                   0          2         -1
    3   node115                                   0          3         -1
 ==============================================================================


May use up to 122928MB of RAM as shared memory on node 0

 *******************************************************************************
 *                                                                             *
 *  --------------------------------                                           *
 *   Amsterdam Modeling Suite (AMS)              2021.102                      *
 *  --------------------------------                                           *
 *                                               r95042 2021-06-07             *
 *                                                                             *
 *                                                                             *
 *                              =================                              *
 *                              |               |                              *
 *                              |     A M S     |                              *
 *                              |               |                              *
 *                              =================                              *
 *                                                                             *
 *                                                                             *
 *   Online information and documentation:  https://www.scm.com/support/       *
 *   E-mail:  support@scm.com   info@scm.com                                   *
 *                                                                             *
 *   Scientific publications using AMS results must be properly referenced     *
 *   See the User Manuals (or the web site) for recommended citations          *
 *   The terms and conditions of the End User License Agreement apply to       *
 *   the use of AMS, https://www.scm.com/license-terms/                        *
 *                                                                             *
 **********************  x86_64_linux_intel / intelmpi  ************************
 
 Licensed to: VU/FEW (+ SARA) / ALGEMEEN / Amsterdam / THE NETHERLANDS
 SCM User ID: u7668
  
 AMS 2021.102  RunTime: Jan23-2022 13:24:05  ShM Nodes: 1  Procs: 4

 AMS jobname: 29.achiral_catalyst.H_H_BF3.P2
 AMS jobid  : 1691367989

 Start   directory: /scistor/tc/yhk800/MasterProject/calculations/achiral_catalyst_H_H_BF3/29.achiral_catalyst.H_H_BF3.P2/
 Results directory: /scistor/tc/yhk800/MasterProject/calculations/achiral_catalyst_H_H_BF3/29.achiral_catalyst.H_H_BF3.P2/
 Scratch directory: /scratch/3979/amstmp_29.achiral_catalyst.H_H_BF3.P2_kid0.1691367989/


 Communication costs MPI_COMM_WORLD:      1.742 usec per message,   0.0162 usec per 8-byte item
 Communication costs for intra-node:      0.348 usec per message,   0.0066 usec per 8-byte item

 RNG seed: -2142014275 -2146999483 -1145560199 -2062486536 -126710798 -2035739304 1495350221 -1694196426



                      ************************************************************************
                      *  ADF 2021.102  RunTime: Jan23-2022 13:24:06  ShM Nodes: 1  Procs: 4  *
                      ************************************************************************
  
       ***************************
       *  GEOMETRY OPTIMIZATION  *
       ***************************

Optimization Method                    Quasi Newton
Optimization Coordinates               Delocalized Coordinates
Optimize lattice                       F
 
 ------------------------------------------------------
 Convergence criteria (Hartree,Angstrom)
 ------------------------------------------------------
 Maximum gradient               0.001000000000
 Maximum rms gradient           0.000666666667
 Maximum step allowed           0.010000000000
 Maximum rms step allowed       0.006666666667
 Maximum energy change allowe   0.000170000000
 Maximum stress energy allowe   0.000500000000
 
Initial model Hessian                  Automatic Hessian
 
------------------------------------
Quasi-Newton Optimizer Parameters
------------------------------------
Hessian Update Method                  BFGS
Maximum number of steps                  250
First GDIIS cycle                          0
Maximum GDIIS vectors                      0
Trust radius (bohr)                        0.200000
Trust radius varies                        T
Constraints converged at all steps         T
Use projector                              T
 
 Rigid motions settings for: old optimizer
 Atomic rotations (x,y,z):     T T T
 Atomic translations (x,y,z):  T T T
 Tolerance:                   1.000000000000000E-006
 
--------
Geometry
--------
Formula: C4H8BF3O
Atoms
  Index Symbol   x (angstrom)   y (angstrom)   z (angstrom)
      1      H     0.83345051    -1.35209109     1.20167740
      2      C    -0.83092072     0.03538951     0.93442801
      3      C     0.35139657    -0.78131674     0.40158875
      4      C     1.39689343     0.07225735    -0.26739819
      5      O     1.30011208     1.25282167    -0.44784372
      6      H    -1.19392452     0.69150371     0.13740680
      7      H     0.00939092    -1.50634328    -0.34451216
      8      H    -0.05768346     0.24518214     2.94899716
      9      C    -0.44138171     0.87842746     2.14736270
     10      H     0.32560687     1.60312788     1.87585802
     11      H    -1.31355949     1.41759590     2.51749654
     12      H    -1.62209815    -0.63358328     1.20166141
     13      H     2.25449427    -0.48063876    -0.58946446
     14      B     1.12240586     4.51122066    -0.93902243
     15      F     1.82901296     4.71347530     0.14705442
     16      F    -0.18568148     4.45052564    -0.86840319
     17      F     1.72388610     4.36966104    -2.09571852
 
Total System Charge             0.00000
 
 
----------------
ADF Engine Input
----------------
 
 NumericalQuality VeryGood
 SCF
 Converge 1.0e-6
 Iterations 99
 End
 SYMMETRY NOSYM
 XC
 GGA OLYP
 End
 basis
 core None
 type TZ2P
 End
 

 Title: *** (NO TITLE) ***

 Using automatic Hessian for delocalized coordinates.
 *** GOStep1 ***

 Energy gradients wrt nuclear displacements
 ==========================================

     Atom      Cartesian (a.u./angstrom)
                 X         Y         Z
 ----------------------------------------
     1 H    -0.004034  0.006736 -0.000913
     2 C    -0.028287 -0.011699  0.002271
     3 C     0.018899 -0.019301 -0.001510
     4 C     0.036229  0.024419 -0.021569
     5 O    -0.004518 -0.046487  0.014319
     6 H     0.002964  0.001408  0.000699
     7 H    -0.003210  0.008239  0.004259
     8 H    -0.000850  0.001193 -0.006586
     9 C     0.005368 -0.000556  0.005185
    10 H    -0.000291 -0.003379 -0.004542
    11 H     0.001975 -0.004487 -0.005746
    12 H     0.025593  0.019652 -0.006046
    13 H    -0.049732  0.023600  0.020039
    14 B    -0.001660  0.010763 -0.000321
    15 F    -0.013705 -0.007248 -0.021418
    16 F     0.026560 -0.002042 -0.001093
    17 F    -0.011302 -0.000811  0.022973
 ----------------------------------------
 Mulliken charges used for AMS results%charges...
 
----------------------------------------------------------------------
Geometry Convergence after Step   1       (Hartree/Angstrom,Angstrom)
----------------------------------------------------------------------
current energy                               -3.39404545 Hartree
energy change                      -3.39404545     0.00017000    F
constrained gradient max            0.04973260     0.00100000    F
constrained gradient rms            0.01626360     0.00066667    F
gradient max                        0.04973260
gradient rms                        0.01626360
cart. step max                      0.21162492     0.01000000    F
cart. step rms                      0.09006921     0.00666667    F
 
 
--------
Geometry
--------
Formula: C4H8BF3O
Atoms
  Index Symbol   x (angstrom)   y (angstrom)   z (angstrom)
      1      H     0.88483096    -1.32048213     1.14548648
      2      C    -0.84764660    -0.00323475     0.99770518
      3      C     0.36454978    -0.72344331     0.38517536
      4      C     1.40830221     0.12715194    -0.30976792
      5      O     1.33336466     1.32614778    -0.51418402
      6      H    -1.26624997     0.67083080     0.24360863
      7      H     0.03428015    -1.44255328    -0.37748780
      8      H    -0.12714567     0.13337742     3.04909980
      9      C    -0.54476439     0.78680424     2.27696077
     10      H     0.16516952     1.59227655     2.08748294
     11      H    -1.46019583     1.23246609     2.67494985
     12      H    -1.60504859    -0.74966320     1.22283622
     13      H     2.27917338    -0.44462859    -0.66319941
     14      B     1.22113688     4.56945959    -1.06358436
     15      F     1.95738441     4.78549109     0.01412741
     16      F    -0.09833219     4.54790643    -0.96890318
     17      F     1.80259132     4.39930842    -2.23913742
 
Total System Charge             0.00000
 
 *** GOStep2 ***

 Energy gradients wrt nuclear displacements
 ==========================================

     Atom      Cartesian (a.u./angstrom)
                 X         Y         Z
 ----------------------------------------
     1 H    -0.003550  0.004618  0.000746
     2 C    -0.013420 -0.008295  0.002898
     3 C     0.005880 -0.011579 -0.004957
     4 C     0.020741 -0.022030 -0.005973
     5 O    -0.002181  0.015375 -0.001906
     6 H     0.002893 -0.000100  0.000271
     7 H    -0.000888  0.004754  0.001439
     8 H    -0.000741  0.000384 -0.002815
     9 C    -0.000257  0.003528  0.005558
    10 H    -0.002243 -0.002678 -0.000948
    11 H     0.001308 -0.000840 -0.001202
    12 H     0.008320  0.008004  0.000690
    13 H    -0.015812  0.007971  0.006272
    14 B    -0.000668  0.006881 -0.000728
    15 F    -0.001945 -0.002463 -0.002922
    16 F     0.004010 -0.001839 -0.000034
    17 F    -0.001447 -0.001691  0.003611
 ----------------------------------------
 Mulliken charges used for AMS results%charges...

 dE(predicted):    -0.46832E-02, dE(actual):    -0.43367E-02, Trust radius:    0.400000, all in a.u.
 
----------------------------------------------------------------------
Geometry Convergence after Step   2       (Hartree/Angstrom,Angstrom)
----------------------------------------------------------------------
current energy                               -3.39838212 Hartree
energy change                      -0.00433666     0.00017000    F
constrained gradient max            0.02202865     0.00100000    F
constrained gradient rms            0.00682371     0.00066667    F
gradient max                        0.02202865
gradient rms                        0.00682371
cart. step max                      0.02518691     0.01000000    F
cart. step rms                      0.00807691     0.00666667    F
 
 
--------
Geometry
--------
Formula: C4H8BF3O
Atoms
  Index Symbol   x (angstrom)   y (angstrom)   z (angstrom)
      1      H     0.89102038    -1.32178889     1.13457838
      2      C    -0.84878755     0.00269720     0.99860322
      3      C     0.36070182    -0.71546861     0.38502977
      4      C     1.40200191     0.13403072    -0.31141269
      5      O     1.32995167     1.32618717    -0.51770197
      6      H    -1.27162649     0.68272785     0.25101820
      7      H     0.03599272    -1.43957481    -0.37910271
      8      H    -0.13304226     0.11878596     3.05839579
      9      C    -0.54439205     0.77903401     2.28620591
     10      H     0.17074366     1.58626026     2.11266985
     11      H    -1.45937899     1.22567984     2.68787039
     12      H    -1.61337036    -0.75199994     1.21000742
     13      H     2.29198969    -0.43790833    -0.65903467
     14      B     1.22326801     4.56022196    -1.07188641
     15      F     1.95152541     4.78900139     0.01185398
     16      F    -0.09985291     4.54999856    -0.98939350
     17      F     1.81465539     4.39933076    -2.24653241
 
Total System Charge             0.00000
 
 *** GOStep3 ***

 Energy gradients wrt nuclear displacements
 ==========================================

     Atom      Cartesian (a.u./angstrom)
                 X         Y         Z
 ----------------------------------------
     1 H    -0.000962  0.001523  0.000545
     2 C    -0.006040 -0.001431  0.000195
     3 C     0.002499 -0.004731 -0.001094
     4 C     0.004928 -0.001713 -0.004908
     5 O     0.000575 -0.002253  0.001223
     6 H     0.000961  0.000108 -0.000067
     7 H    -0.000181  0.001992  0.000121
     8 H    -0.000110  0.000033 -0.000566
     9 C     0.000692  0.002264  0.002431
    10 H    -0.000773 -0.000642  0.000057
    11 H     0.000271 -0.000355 -0.000295
    12 H     0.001908  0.000970  0.000516
    13 H    -0.003746  0.003179  0.001953
    14 B    -0.000175  0.000884  0.000022
    15 F     0.000567  0.000339  0.000694
    16 F    -0.000855  0.000082 -0.000000
    17 F     0.000441 -0.000249 -0.000827
 ----------------------------------------
 Mulliken charges used for AMS results%charges...

 dE(predicted):    -0.40163E-03, dE(actual):    -0.47557E-03, Trust radius:    0.400000, all in a.u.
 
----------------------------------------------------------------------
Geometry Convergence after Step   3       (Hartree/Angstrom,Angstrom)
----------------------------------------------------------------------
current energy                               -3.39885768 Hartree
energy change                      -0.00047557     0.00017000    F
constrained gradient max            0.00603948     0.00100000    F
constrained gradient rms            0.00190176     0.00066667    F
gradient max                        0.00603948
gradient rms                        0.00190176
cart. step max                      0.03392536     0.01000000    F
cart. step rms                      0.01327657     0.00666667    F
 
 
--------
Geometry
--------
Formula: C4H8BF3O
Atoms
  Index Symbol   x (angstrom)   y (angstrom)   z (angstrom)
      1      H     0.88358243    -1.33129198     1.12892611
      2      C    -0.84533791     0.01371512     0.99650331
      3      C     0.35919356    -0.70951171     0.38641252
      4      C     1.40854391     0.14127395    -0.29261968
      5      O     1.33390833     1.33149650    -0.50890250
      6      H    -1.25433415     0.71067060     0.25640160
      7      H     0.03714099    -1.42737205    -0.38659227
      8      H    -0.15218868     0.08542071     3.06690237
      9      C    -0.54225413     0.76365863     2.29843802
     10      H     0.19035164     1.56084326     2.14659520
     11      H    -1.45340786     1.22186821     2.69726666
     12      H    -1.62544569    -0.73473377     1.18528446
     13      H     2.29552003    -0.43772017    -0.65408777
     14      B     1.21759384     4.55825701    -1.08733162
     15      F     1.94068856     4.80015450    -0.00302749
     16      F    -0.10582288     4.54639906    -1.00999911
     17      F     1.81366805     4.39408724    -2.25900125
 
Total System Charge             0.00000
 
 *** GOStep4 ***

 Energy gradients wrt nuclear displacements
 ==========================================

     Atom      Cartesian (a.u./angstrom)
                 X         Y         Z
 ----------------------------------------
     1 H     0.000438  0.000286 -0.000043
     2 C    -0.001489  0.001370 -0.000817
     3 C    -0.000238 -0.002235 -0.001988
     4 C     0.002744  0.002344  0.005541
     5 O    -0.000645 -0.002270 -0.001508
     6 H    -0.000065  0.000111 -0.000089
     7 H    -0.000475 -0.000089  0.000136
     8 H     0.000099 -0.000087  0.000190
     9 C     0.000824  0.000859  0.000585
    10 H    -0.000077  0.000062  0.000155
    11 H    -0.000215 -0.000190  0.000008
    12 H    -0.000202 -0.000920  0.000106
    13 H    -0.000677 -0.000331 -0.002145
    14 B    -0.000042 -0.000607  0.000053
    15 F     0.000460  0.000817  0.000575
    16 F    -0.000746  0.000594 -0.000067
    17 F     0.000306  0.000286 -0.000692
 ----------------------------------------
 Mulliken charges used for AMS results%charges...

 dE(predicted):    -0.67301E-04, dE(actual):    -0.28765E-04, Trust radius:    0.400000, all in a.u.
 
----------------------------------------------------------------------
Geometry Convergence after Step   4       (Hartree/Angstrom,Angstrom)
----------------------------------------------------------------------
current energy                               -3.39888645 Hartree
energy change                      -0.00002876     0.00017000    T
constrained gradient max            0.00554242     0.00100000    F
constrained gradient rms            0.00122907     0.00066667    F
gradient max                        0.00554242
gradient rms                        0.00122907
cart. step max                      0.01661397     0.01000000    F
cart. step rms                      0.00623381     0.00666667    T
 
 
--------
Geometry
--------
Formula: C4H8BF3O
Atoms
  Index Symbol   x (angstrom)   y (angstrom)   z (angstrom)
      1      H     0.88530673    -1.32994710     1.12740923
      2      C    -0.84376848     0.01577152     0.99589737
      3      C     0.35639981    -0.71041275     0.38561376
      4      C     1.40005946     0.13772286    -0.30326024
      5      O     1.32743291     1.32935214    -0.51687731
      6      H    -1.25231695     0.71338008     0.25607885
      7      H     0.03339922    -1.43460094    -0.38185216
      8      H    -0.15189850     0.08543960     3.06645000
      9      C    -0.53638542     0.76483411     2.29598882
     10      H     0.20303883     1.55606204     2.14302586
     11      H    -1.44369896     1.23173775     2.69401700
     12      H    -1.62840299    -0.72885493     1.18508483
     13      H     2.30105336    -0.43877325    -0.64035369
     14      B     1.21388455     4.55745386    -1.08409708
     15      F     1.92407459     4.79549971     0.00915127
     16      F    -0.11002491     4.54355876    -1.02180153
     17      F     1.82324678     4.39899164    -2.24930645
 
Total System Charge             0.00000
 
 *** GOStep5 ***

 Energy gradients wrt nuclear displacements
 ==========================================

     Atom      Cartesian (a.u./angstrom)
                 X         Y         Z
 ----------------------------------------
     1 H     0.000273 -0.000700  0.000066
     2 C     0.001267  0.001918 -0.000687
     3 C    -0.000026 -0.000063  0.001119
     4 C    -0.003522 -0.000166 -0.000665
     5 O     0.000358  0.000874  0.000550
     6 H    -0.000375 -0.000021 -0.000073
     7 H     0.000149 -0.000411 -0.000202
     8 H     0.000146 -0.000105  0.000369
     9 C     0.000358 -0.000132 -0.000410
    10 H     0.000246  0.000314  0.000010
    11 H    -0.000340 -0.000030  0.000174
    12 H    -0.000947 -0.001203 -0.000043
    13 H     0.002418 -0.001383 -0.000096
    14 B     0.000065 -0.000530  0.000078
    15 F     0.000107  0.000702  0.000069
    16 F    -0.000200  0.000586 -0.000103
    17 F     0.000025  0.000350 -0.000157
 ----------------------------------------
 Mulliken charges used for AMS results%charges...

 dE(predicted):    -0.51079E-04, dE(actual):    -0.29616E-04, Trust radius:    0.400000, all in a.u.
 
----------------------------------------------------------------------
Geometry Convergence after Step   5       (Hartree/Angstrom,Angstrom)
----------------------------------------------------------------------
current energy                               -3.39891606 Hartree
energy change                      -0.00002962     0.00017000    T
constrained gradient max            0.00352030     0.00100000    F
constrained gradient rms            0.00081972     0.00066667    F
gradient max                        0.00352030
gradient rms                        0.00081972
cart. step max                      0.00585564     0.01000000    T
cart. step rms                      0.00230402     0.00666667    T
 
 
--------
Geometry
--------
Formula: C4H8BF3O
Atoms
  Index Symbol   x (angstrom)   y (angstrom)   z (angstrom)
      1      H     0.88438099    -1.32804524     1.12760429
      2      C    -0.84356330     0.01622711     0.99668760
      3      C     0.35768092    -0.70822332     0.38514048
      4      C     1.40359008     0.13899354    -0.30201940
      5      O     1.33045035     1.32955254    -0.51690033
      6      H    -1.24955059     0.71616896     0.25786401
      7      H     0.03392392    -1.42985347    -0.38379272
      8      H    -0.15647638     0.08062362     3.06818435
      9      C    -0.53856052     0.76240739     2.29905882
     10      H     0.20189486     1.55273006     2.14888150
     11      H    -1.44601287     1.22955293     2.69575628
     12      H    -1.62805032    -0.72728214     1.18377025
     13      H     2.29998180    -0.43766126    -0.64320152
     14      B     1.21396046     4.55787236    -1.08674903
     15      F     1.92597860     4.79538219     0.00529800
     16      F    -0.10968810     4.54147421    -1.02184859
     17      F     1.82146014     4.39729564    -2.25256545
 
Total System Charge             0.00000
 
 *** GOStep6 ***

 Energy gradients wrt nuclear displacements
 ==========================================

     Atom      Cartesian (a.u./angstrom)
                 X         Y         Z
 ----------------------------------------
     1 H    -0.000042 -0.000005  0.000055
     2 C    -0.000140  0.000407 -0.000066
     3 C     0.000191 -0.000235 -0.000120
     4 C    -0.000328  0.000827 -0.000491
     5 O     0.000055 -0.001851  0.000553
     6 H     0.000024 -0.000091 -0.000024
     7 H     0.000031  0.000080 -0.000016
     8 H     0.000031 -0.000025  0.000005
     9 C     0.000127  0.000178  0.000131
    10 H    -0.000075 -0.000024 -0.000053
    11 H    -0.000090 -0.000084  0.000043
    12 H    -0.000087 -0.000132  0.000103
    13 H     0.000305 -0.000125 -0.000006
    14 B    -0.000007  0.000391 -0.000061
    15 F     0.000043  0.000357 -0.000014
    16 F    -0.000030  0.000277 -0.000053
    17 F    -0.000009  0.000054  0.000012
 ----------------------------------------
 Mulliken charges used for AMS results%charges...

 dE(predicted):    -0.12962E-04, dE(actual):    -0.13590E-04, Trust radius:    0.400000, all in a.u.
 
----------------------------------------------------------------------
Geometry Convergence after Step   6       (Hartree/Angstrom,Angstrom)
----------------------------------------------------------------------
current energy                               -3.39892965 Hartree
energy change                      -0.00001359     0.00017000    T
constrained gradient max            0.00185011     0.00100000    F
constrained gradient rms            0.00033407     0.00066667    T
gradient max                        0.00185011
gradient rms                        0.00033407
cart. step max                      0.00631381     0.01000000    T
cart. step rms                      0.00274253     0.00666667    T
 
 
--------
Geometry
--------
Formula: C4H8BF3O
Atoms
  Index Symbol   x (angstrom)   y (angstrom)   z (angstrom)
      1      H     0.88310026    -1.32834281     1.12719283
      2      C    -0.84272242     0.01847217     0.99637034
      3      C     0.35762967    -0.70703216     0.38513035
      4      C     1.40477912     0.13946854    -0.30083025
      5      O     1.33161932     1.32991198    -0.51750871
      6      H    -1.24503073     0.72201617     0.25891677
      7      H     0.03343879    -1.42763911    -0.38463029
      8      H    -0.16177267     0.07443357     3.06996594
      9      C    -0.53779329     0.75996284     2.30123030
     10      H     0.20754097     1.54653126     2.15519531
     11      H    -1.44367325     1.23148089     2.69621994
     12      H    -1.63000947    -0.72281299     1.17953900
     13      H     2.30066300    -0.43775842    -0.64158019
     14      B     1.21195470     4.55709392    -1.08880646
     15      F     1.92156028     4.79552125     0.00460556
     16      F    -0.11179186     4.53869143    -1.02639790
     17      F     1.82190762     4.39721659    -2.25344401
 
Total System Charge             0.00000
 
 *** GOStep7 ***

 Energy gradients wrt nuclear displacements
 ==========================================

     Atom      Cartesian (a.u./angstrom)
                 X         Y         Z
 ----------------------------------------
     1 H    -0.000030  0.000001  0.000016
     2 C     0.000003  0.000078  0.000040
     3 C     0.000032 -0.000010 -0.000185
     4 C     0.000076  0.000297  0.000036
     5 O    -0.000093 -0.001339  0.000281
     6 H     0.000015 -0.000055 -0.000021
     7 H    -0.000006  0.000026  0.000020
     8 H     0.000021 -0.000001 -0.000030
     9 C     0.000043  0.000070  0.000008
    10 H    -0.000062 -0.000021 -0.000028
    11 H    -0.000030 -0.000067  0.000016
    12 H    -0.000014  0.000028  0.000036
    13 H     0.000046 -0.000092 -0.000076
    14 B    -0.000012  0.000474 -0.000071
    15 F     0.000043  0.000327 -0.000006
    16 F    -0.000031  0.000252 -0.000044
    17 F    -0.000001  0.000032  0.000009
 ----------------------------------------
 Mulliken charges used for AMS results%charges...

 dE(predicted):    -0.18342E-05, dE(actual):    -0.23121E-05, Trust radius:    0.400000, all in a.u.
 
----------------------------------------------------------------------
Geometry Convergence after Step   7       (Hartree/Angstrom,Angstrom)
----------------------------------------------------------------------
current energy                               -3.39893197 Hartree
energy change                      -0.00000231     0.00017000    T
constrained gradient max            0.00133804     0.00100000    F
constrained gradient rms            0.00021996     0.00066667    T
gradient max                        0.00133804
gradient rms                        0.00021996
cart. step max                      0.01538174     0.01000000    F
cart. step rms                      0.00700399     0.00666667    F
 
 
--------
Geometry
--------
Formula: C4H8BF3O
Atoms
  Index Symbol   x (angstrom)   y (angstrom)   z (angstrom)
      1      H     0.88039464    -1.32837529     1.12602393
      2      C    -0.84039650     0.02479130     0.99540310
      3      C     0.35736825    -0.70414458     0.38473547
      4      C     1.40717703     0.13972689    -0.30009571
      5      O     1.33468935     1.32967375    -0.52095238
      6      H    -1.23379899     0.73679722     0.26118367
      7      H     0.03163489    -1.42296706    -0.38619882
      8      H    -0.17498515     0.06084976     3.07427797
      9      C    -0.53514289     0.75529798     2.30601344
     10      H     0.22292271     1.53157621     2.16973814
     11      H    -1.43656371     1.23882590     2.69647550
     12      H    -1.63456905    -0.71088678     1.16972998
     13      H     2.30308058    -0.43866856    -0.63729195
     14      B     1.20599605     4.55368229    -1.09227964
     15      F     1.90741528     4.79359459     0.00607891
     16      F    -0.11806137     4.52945299    -1.03853894
     17      F     1.82423894     4.39798851    -2.25313415
 
Total System Charge             0.00000
 
 *** GOStep8 ***

 Energy gradients wrt nuclear displacements
 ==========================================

     Atom      Cartesian (a.u./angstrom)
                 X         Y         Z
 ----------------------------------------
     1 H    -0.000006 -0.000026 -0.000050
     2 C     0.000359 -0.000541  0.000226
     3 C    -0.000254  0.000561 -0.000059
     4 C     0.000485 -0.000460  0.000327
     5 O    -0.000235 -0.000832  0.000041
     6 H    -0.000012  0.000036 -0.000019
     7 H    -0.000013 -0.000073  0.000031
     8 H     0.000000  0.000038 -0.000058
     9 C    -0.000173 -0.000169 -0.000242
    10 H    -0.000009 -0.000006  0.000025
    11 H     0.000086  0.000005 -0.000011
    12 H     0.000083  0.000284 -0.000087
    13 H    -0.000311  0.000077 -0.000014
    14 B    -0.000011  0.000546 -0.000061
    15 F     0.000044  0.000301  0.000010
    16 F    -0.000057  0.000234 -0.000035
    17 F     0.000024  0.000026 -0.000023
 ----------------------------------------
 Mulliken charges used for AMS results%charges...

 dE(predicted):    -0.35964E-05, dE(actual):    -0.24385E-05, Trust radius:    0.400000, all in a.u.
 
----------------------------------------------------------------------
Geometry Convergence after Step   8       (Hartree/Angstrom,Angstrom)
----------------------------------------------------------------------
current energy                               -3.39893440 Hartree
energy change                      -0.00000244     0.00017000    T
constrained gradient max            0.00083267     0.00100000    T
constrained gradient rms            0.00024061     0.00066667    T
gradient max                        0.00083267
gradient rms                        0.00024061
cart. step max                      0.01005385     0.01000000    F
cart. step rms                      0.00409734     0.00666667    T
 
 
--------
Geometry
--------
Formula: C4H8BF3O
Atoms
  Index Symbol   x (angstrom)   y (angstrom)   z (angstrom)
      1      H     0.87905635    -1.32800793     1.12576208
      2      C    -0.83889888     0.02901921     0.99435425
      3      C     0.35730650    -0.70289947     0.38435489
      4      C     1.40870211     0.13875721    -0.30093837
      5      O     1.33735380     1.32841457    -0.52424523
      6      H    -1.22762933     0.74478193     0.26128616
      7      H     0.03027520    -1.42124857    -0.38653808
      8      H    -0.18191020     0.05637300     3.07613422
      9      C    -0.53292980     0.75493130     2.30736114
     10      H     0.23242826     1.52489772     2.17545720
     11      H    -1.43159657     1.24593678     2.69481328
     12      H    -1.63660171    -0.70363964     1.16508368
     13      H     2.30459870    -0.44070556    -0.63579535
     14      B     1.20145689     4.55003205    -1.09179620
     15      F     1.89736143     4.78984686     0.01012096
     16      F    -0.12277555     4.52144741    -1.04384427
     17      F     1.82520283     4.39927825    -2.25040184
 
Total System Charge             0.00000
 
 *** GOStep9 ***

 Energy gradients wrt nuclear displacements
 ==========================================

     Atom      Cartesian (a.u./angstrom)
                 X         Y         Z
 ----------------------------------------
     1 H     0.000016 -0.000032 -0.000069
     2 C     0.000377 -0.000653  0.000206
     3 C    -0.000308  0.000609  0.000093
     4 C     0.000564 -0.000774  0.000244
     5 O    -0.000237 -0.000596 -0.000013
     6 H    -0.000021  0.000094 -0.000010
     7 H    -0.000014 -0.000096  0.000008
     8 H    -0.000010  0.000039 -0.000034
     9 C    -0.000221 -0.000226 -0.000271
    10 H     0.000036  0.000012  0.000051
    11 H     0.000114  0.000052 -0.000018
    12 H     0.000089  0.000281 -0.000121
    13 H    -0.000379  0.000172  0.000049
    14 B    -0.000012  0.000495 -0.000037
    15 F     0.000070  0.000325  0.000052
    16 F    -0.000119  0.000249 -0.000037
    17 F     0.000055  0.000049 -0.000094
 ----------------------------------------
 Mulliken charges used for AMS results%charges...
 
----------------------------------------------------------------------
Geometry Convergence after Step   9       (Hartree/Angstrom,Angstrom)
----------------------------------------------------------------------
current energy                               -3.39893535 Hartree
energy change                      -0.00000094     0.00017000    T
constrained gradient max            0.00077420     0.00100000    T
constrained gradient rms            0.00025904     0.00066667    T
gradient max                        0.00077420
gradient rms                        0.00025904
cart. step max                      0.02820050     0.01000000    F
cart. step rms                      0.01082911     0.00666667    F
 
 
--------
Geometry
--------
Formula: C4H8BF3O
Atoms
  Index Symbol   x (angstrom)   y (angstrom)   z (angstrom)
      1      H     0.87606763    -1.32630715     1.12613479
      2      C    -0.83485012     0.04028625     0.99068883
      3      C     0.35737161    -0.70072697     0.38311699
      4      C     1.41291160     0.13385873    -0.30526005
      5      O     1.34598288     1.32270681    -0.53469583
      6      H    -1.21386292     0.76196041     0.25840239
      7      H     0.02641717    -1.41921872    -0.38604266
      8      H    -0.19532536     0.05452231     3.07843231
      9      C    -0.52605969     0.75985997     2.30682362
     10      H     0.25543249     1.51484198     2.18175798
     11      H    -1.41800720     1.26879517     2.68666528
     12      H    -1.63988402    -0.68553284     1.15666120
     13      H     2.30790939    -0.44961106    -0.63498679
     14      B     1.18811550     4.53743850    -1.08449706
     15      F     1.86916092     4.77438706     0.02732963
     16      F    -0.13632712     4.49592222    -1.05191667
     17      F     1.82634728     4.40403243    -2.23744542
 
Total System Charge             0.00000
 
 *** GOStep10 ***

 Energy gradients wrt nuclear displacements
 ==========================================

     Atom      Cartesian (a.u./angstrom)
                 X         Y         Z
 ----------------------------------------
     1 H     0.000059  0.000004 -0.000092
     2 C     0.000114 -0.000539  0.000011
     3 C    -0.000253  0.000311  0.000421
     4 C     0.000607 -0.001074 -0.000144
     5 O    -0.000168 -0.000328 -0.000026
     6 H    -0.000012  0.000188  0.000040
     7 H    -0.000025 -0.000089 -0.000060
     8 H    -0.000041  0.000015  0.000048
     9 C    -0.000233 -0.000242 -0.000153
    10 H     0.000146  0.000049  0.000081
    11 H     0.000129  0.000158 -0.000033
    12 H     0.000059  0.000107 -0.000129
    13 H    -0.000359  0.000344  0.000168
    14 B    -0.000020  0.000314  0.000061
    15 F     0.000091  0.000384  0.000110
    16 F    -0.000246  0.000282 -0.000041
    17 F     0.000153  0.000115 -0.000261
 ----------------------------------------
 Mulliken charges used for AMS results%charges...

 dE(predicted):    -0.54343E-05, dE(actual):    -0.19292E-05, Trust radius:    0.400000, all in a.u.
 
----------------------------------------------------------------------
Geometry Convergence after Step  10       (Hartree/Angstrom,Angstrom)
----------------------------------------------------------------------
current energy                               -3.39893728 Hartree
energy change                      -0.00000193     0.00017000    T
constrained gradient max            0.00107417     0.00100000    F
constrained gradient rms            0.00025887     0.00066667    T
gradient max                        0.00107417
gradient rms                        0.00025887
cart. step max                      0.02894085     0.01000000    F
cart. step rms                      0.01144901     0.00666667    F
 
 
--------
Geometry
--------
Formula: C4H8BF3O
Atoms
  Index Symbol   x (angstrom)   y (angstrom)   z (angstrom)
      1      H     0.87411828    -1.32343978     1.12820184
      2      C    -0.83083615     0.05083716     0.98586312
      3      C     0.35803095    -0.69971008     0.38193115
      4      C     1.41738723     0.12660503    -0.31142656
      5      O     1.35639751     1.31460373    -0.54667321
      6      H    -1.20397802     0.77302087     0.25123081
      7      H     0.02324614    -1.42033998    -0.38352055
      8      H    -0.20188925     0.06520654     3.07719997
      9      C    -0.51900310     0.77175951     2.30097562
     10      H     0.27325295     1.51568252     2.17678730
     11      H    -1.40599129     1.29441493     2.67388271
     12      H    -1.64038400    -0.66997675     1.15278292
     13      H     2.31011185    -0.46243000    -0.63780395
     14      B     1.17419927     4.52188552    -1.07003334
     15      F     1.84399926     4.75240757     0.04992110
     16      F    -0.15001301     4.46698137    -1.04857676
     17      F     1.82275142     4.40970695    -2.21957362
 
Total System Charge             0.00000
 
 *** GOStep11 ***

 Energy gradients wrt nuclear displacements
 ==========================================

     Atom      Cartesian (a.u./angstrom)
                 X         Y         Z
 ----------------------------------------
     1 H     0.000070  0.000068 -0.000086
     2 C    -0.000323 -0.000117 -0.000248
     3 C    -0.000042 -0.000277  0.000584
     4 C     0.000469 -0.000873 -0.000509
     5 O    -0.000039 -0.000307  0.000019
     6 H     0.000019  0.000190  0.000098
     7 H    -0.000046 -0.000028 -0.000104
     8 H    -0.000083 -0.000018  0.000116
     9 C    -0.000132 -0.000161  0.000123
    10 H     0.000214  0.000056  0.000068
    11 H     0.000086  0.000224 -0.000053
    12 H     0.000011 -0.000156 -0.000075
    13 H    -0.000170  0.000371  0.000190
    14 B    -0.000033  0.000159  0.000201
    15 F     0.000058  0.000414  0.000079
    16 F    -0.000266  0.000302 -0.000023
    17 F     0.000208  0.000152 -0.000381
 ----------------------------------------
 Mulliken charges used for AMS results%charges...

 dE(predicted):    -0.55966E-05, dE(actual):    -0.36450E-05, Trust radius:    0.400000, all in a.u.
 
----------------------------------------------------------------------
Geometry Convergence after Step  11       (Hartree/Angstrom,Angstrom)
----------------------------------------------------------------------
current energy                               -3.39894092 Hartree
energy change                      -0.00000364     0.00017000    T
constrained gradient max            0.00087367     0.00100000    T
constrained gradient rms            0.00024505     0.00066667    T
gradient max                        0.00087367
gradient rms                        0.00024505
cart. step max                      0.10661391     0.01000000    F
cart. step rms                      0.04317444     0.00666667    F
 
 
--------
Geometry
--------
Formula: C4H8BF3O
Atoms
  Index Symbol   x (angstrom)   y (angstrom)   z (angstrom)
      1      H     0.86660614    -1.31244677     1.13656141
      2      C    -0.81637384     0.08734008     0.96728796
      3      C     0.35983541    -0.69687274     0.37747865
      4      C     1.43269029     0.09769768    -0.33382942
      5      O     1.39425675     1.28209637    -0.58982470
      6      H    -1.17478806     0.80388040     0.22040086
      7      H     0.01155388    -1.42683859    -0.37270998
      8      H    -0.20707289     0.12143696     3.06481388
      9      C    -0.49184129     0.82331150     2.27199659
     10      H     0.32672918     1.53707150     2.14118052
     11      H    -1.36406777     1.38349118     2.62507868
     12      H    -1.63860196    -0.61681157     1.14568985
     13      H     2.31494553    -0.51341263    -0.65002657
     14      B     1.12399219     4.46266239    -1.00915290
     15      F     1.75295575     4.66438662     0.13886609
     16      F    -0.19716017     4.36036747    -1.02887609
     17      F     1.80774089     4.42985528    -2.14376627
 
Total System Charge             0.00000
 
 *** GOStep12 ***

 Energy gradients wrt nuclear displacements
 ==========================================

     Atom      Cartesian (a.u./angstrom)
                 X         Y         Z
 ----------------------------------------
     1 H     0.000075  0.000267 -0.000056
     2 C    -0.001444  0.001152 -0.000871
     3 C     0.000555 -0.001832  0.000699
     4 C    -0.000023  0.000227 -0.001238
     5 O     0.000196 -0.000541  0.000193
     6 H     0.000102  0.000077  0.000262
     7 H    -0.000081  0.000136 -0.000146
     8 H    -0.000210 -0.000096  0.000206
     9 C     0.000236  0.000066  0.000902
    10 H     0.000347  0.000019 -0.000005
    11 H    -0.000053  0.000335 -0.000128
    12 H    -0.000101 -0.000798  0.000123
    13 H     0.000458  0.000181  0.000143
    14 B    -0.000223 -0.000009  0.001436
    15 F    -0.000668  0.000225 -0.000822
    16 F     0.000290  0.000343  0.000200
    17 F     0.000544  0.000248 -0.000897
 ----------------------------------------
 Mulliken charges used for AMS results%charges...

 dE(predicted):    -0.18849E-04, dE(actual):    -0.87721E-05, Trust radius:    0.400000, all in a.u.
 
----------------------------------------------------------------------
Geometry Convergence after Step  12       (Hartree/Angstrom,Angstrom)
----------------------------------------------------------------------
current energy                               -3.39894969 Hartree
energy change                      -0.00000877     0.00017000    T
constrained gradient max            0.00183188     0.00100000    F
constrained gradient rms            0.00058274     0.00066667    T
gradient max                        0.00183188
gradient rms                        0.00058274
cart. step max                      0.11159448     0.01000000    F
cart. step rms                      0.04747597     0.00666667    F
 
 
--------
Geometry
--------
Formula: C4H8BF3O
Atoms
  Index Symbol   x (angstrom)   y (angstrom)   z (angstrom)
      1      H     0.85833890    -1.30019605     1.14653278
      2      C    -0.80100214     0.12376623     0.94609804
      3      C     0.36152880    -0.69430478     0.37322597
      4      C     1.44806045     0.06499743    -0.35602280
      5      O     1.43389884     1.24488518    -0.63341485
      6      H    -1.15007447     0.82704030     0.18263769
      7      H    -0.00017377    -1.43506440    -0.35955723
      8      H    -0.19282131     0.19756821     3.04290006
      9      C    -0.46243167     0.88549332     2.23280361
     10      H     0.37027676     1.57919910     2.08543995
     11      H    -1.32387300     1.47136799     2.57046697
     12      H    -1.63318345    -0.56373919     1.14345523
     13      H     2.31688786    -0.57046560    -0.66322877
     14      B     1.07171352     4.39708865    -0.93645840
     15      F     1.66300838     4.56286248     0.23602520
     16      F    -0.24333118     4.24877298    -0.99659858
     17      F     1.78457750     4.44794325    -2.05313633
 
Total System Charge             0.00000
 
 *** GOStep13 ***

 Energy gradients wrt nuclear displacements
 ==========================================

     Atom      Cartesian (a.u./angstrom)
                 X         Y         Z
 ----------------------------------------
     1 H     0.000063  0.000388 -0.000022
     2 C    -0.001938  0.001877 -0.001171
     3 C     0.000839 -0.002658  0.000471
     4 C    -0.000259  0.001221 -0.001417
     5 O     0.000113 -0.000936  0.000437
     6 H     0.000129 -0.000065  0.000338
     7 H    -0.000076  0.000258 -0.000117
     8 H    -0.000286 -0.000114  0.000184
     9 C     0.000444  0.000289  0.001316
    10 H     0.000335 -0.000050 -0.000078
    11 H    -0.000140  0.000339 -0.000164
    12 H    -0.000139 -0.001065  0.000272
    13 H     0.000858 -0.000157  0.000008
    14 B    -0.000801  0.000018  0.003181
    15 F    -0.001474 -0.000058 -0.002075
    16 F     0.001302  0.000334  0.000455
    17 F     0.001031  0.000379 -0.001616
 ----------------------------------------
 Mulliken charges used for AMS results%charges...

 dE(predicted):    -0.15927E-04, dE(actual):    -0.12141E-04, Trust radius:    0.800000, all in a.u.
 Residual max backtransformation error   0.1449E+03

 Delocalized step failed. Taking Cartesian step

 
----------------------------------------------------------------------
Geometry Convergence after Step  13       (Hartree/Angstrom,Angstrom)
----------------------------------------------------------------------
current energy                               -3.39896184 Hartree
energy change                      -0.00001214     0.00017000    T
constrained gradient max            0.00317122     0.00100000    F
constrained gradient rms            0.00098158     0.00066667    F
gradient max                        0.00317122
gradient rms                        0.00098158
cart. step max                      0.22427222     0.01000000    F
cart. step rms                      0.09918641     0.00666667    F
 
 
--------
Geometry
--------
Formula: C4H8BF3O
Atoms
  Index Symbol   x (angstrom)   y (angstrom)   z (angstrom)
      1      H     0.83944400    -1.27143353     1.16568423
      2      C    -0.76756614     0.20049411     0.90113085
      3      C     0.36385978    -0.68423934     0.36492443
      4      C     1.47715202     0.00024748    -0.39672270
      5      O     1.51183207     1.16799352    -0.71891498
      6      H    -1.09929276     0.87481042     0.10471117
      7      H    -0.02586122    -1.44414152    -0.33268190
      8      H    -0.14572528     0.35751901     2.98874183
      9      C    -0.39790927     1.01361928     2.14733239
     10      H     0.45474908     1.67297417     1.96318683
     11      H    -1.23948168     1.64120788     2.45916478
     12      H    -1.61979384    -0.44954589     1.13677556
     13      H     2.31672343    -0.68376619    -0.68284831
     14      B     0.96215131     4.25519479    -0.78471390
     15      F     1.47078596     4.33865295     0.43099422
     16      F    -0.33110893     4.02450076    -0.94040132
     17      F     1.73144149     4.47312718    -1.84519465
 
Total System Charge             0.00000
 
 *** GOStep14 ***

 Energy gradients wrt nuclear displacements
 ==========================================

     Atom      Cartesian (a.u./angstrom)
                 X         Y         Z
 ----------------------------------------
     1 H     0.000041  0.000486  0.000053
     2 C    -0.002005  0.002364 -0.001324
     3 C     0.000894 -0.003075 -0.000060
     4 C    -0.000146  0.002573 -0.001436
     5 O    -0.000482 -0.001317  0.000941
     6 H     0.000128 -0.000148  0.000301
     7 H    -0.000028  0.000386 -0.000006
     8 H    -0.000293 -0.000057  0.000105
     9 C     0.000407  0.000553  0.001453
    10 H     0.000524  0.000161 -0.000399
    11 H    -0.000226  0.000260 -0.000179
    12 H    -0.000149 -0.001121  0.000467
    13 H     0.001236 -0.000765 -0.000176
    14 B    -0.003438 -0.001037  0.009015
    15 F    -0.004091 -0.000912 -0.006674
    16 F     0.004571  0.000480  0.001887
    17 F     0.003057  0.001170 -0.003968
 ----------------------------------------
 Mulliken charges used for AMS results%charges...
 Rebuilding optimization coordinates

 dE(predicted):    -0.47761E-04, dE(actual):     0.12737E-03, Trust radius:    0.600000, all in a.u.
 
----------------------------------------------------------------------
Geometry Convergence after Step  14       (Hartree/Angstrom,Angstrom)
----------------------------------------------------------------------
current energy                               -3.39883446 Hartree
energy change                       0.00012737     0.00017000    T
constrained gradient max            0.00900148     0.00100000    F
constrained gradient rms            0.00220530     0.00066667    F
gradient max                        0.00900148
gradient rms                        0.00220530
cart. step max                      0.20191705     0.01000000    F
cart. step rms                      0.08930889     0.00666667    F
 
 
--------
Geometry
--------
Formula: C4H8BF3O
Atoms
  Index Symbol   x (angstrom)   y (angstrom)   z (angstrom)
      1      H     0.85587023    -1.29874027     1.14957761
      2      C    -0.80178130     0.12310028     0.94269104
      3      C     0.36035922    -0.69567584     0.37271943
      4      C     1.44864039     0.05707087    -0.35812732
      5      O     1.44793681     1.24067874    -0.63893544
      6      H    -1.16631749     0.80858804     0.17007913
      7      H    -0.00121476    -1.44083816    -0.35543600
      8      H    -0.14968895     0.23944479     3.02290913
      9      C    -0.45991556     0.90963443     2.21254704
     10      H     0.34526809     1.62872093     2.04004345
     11      H    -1.33330791     1.46883994     2.56413984
     12      H    -1.62591079    -0.56778504     1.15999577
     13      H     2.31001113    -0.58628668    -0.67170844
     14      B     1.07120940     4.38373309    -0.91108702
     15      F     1.66183288     4.53617929     0.26216317
     16      F    -0.24300655     4.22641781    -0.97598283
     17      F     1.78141520     4.45413290    -2.02442002
 
Total System Charge             0.00000
 
 *** GOStep15 ***

 Energy gradients wrt nuclear displacements
 ==========================================

     Atom      Cartesian (a.u./angstrom)
                 X         Y         Z
 ----------------------------------------
     1 H    -0.000129  0.000141  0.000190
     2 C    -0.000888  0.001474 -0.000672
     3 C     0.000611 -0.003180 -0.000290
     4 C    -0.002482 -0.008638  0.003557
     5 O     0.001444  0.010820 -0.003351
     6 H    -0.000043 -0.000299  0.000196
     7 H    -0.000080  0.000141  0.000186
     8 H    -0.000196 -0.000070 -0.000026
     9 C     0.000530  0.000442  0.000771
    10 H    -0.000029 -0.000181 -0.000036
    11 H    -0.000150  0.000063 -0.000072
    12 H    -0.000014 -0.000600  0.000259
    13 H     0.001338 -0.000629 -0.000674
    14 B     0.002622  0.000981  0.001641
    15 F    -0.001782 -0.000465 -0.004280
    16 F     0.001393  0.000051 -0.000412
    17 F    -0.002146 -0.000050  0.003012
 ----------------------------------------
 Mulliken charges used for AMS results%charges...

 dE(predicted):    -0.17627E-03, dE(actual):    -0.11247E-03, Trust radius:    0.600000, all in a.u.
 
----------------------------------------------------------------------
Geometry Convergence after Step  15       (Hartree/Angstrom,Angstrom)
----------------------------------------------------------------------
current energy                               -3.39894693 Hartree
energy change                      -0.00011247     0.00017000    T
constrained gradient max            0.01081547     0.00100000    F
constrained gradient rms            0.00238594     0.00066667    F
gradient max                        0.01081547
gradient rms                        0.00238594
cart. step max                      0.18166149     0.01000000    F
cart. step rms                      0.07537428     0.00666667    F
 
 
--------
Geometry
--------
Formula: C4H8BF3O
Atoms
  Index Symbol   x (angstrom)   y (angstrom)   z (angstrom)
      1      H     0.83550214    -1.27630429     1.15606355
      2      C    -0.77096789     0.19574001     0.90893125
      3      C     0.36171367    -0.67703527     0.36272930
      4      C     1.47634412     0.01282489    -0.38822985
      5      O     1.50690587     1.17763112    -0.70493017
      6      H    -1.10579209     0.87876926     0.12080801
      7      H    -0.02472652    -1.42988861    -0.34465273
      8      H    -0.13087048     0.32635679     2.99123930
      9      C    -0.40668428     0.99259073     2.16533168
     10      H     0.42908794     1.67407223     1.98633001
     11      H    -1.25848837     1.59460539     2.49860573
     12      H    -1.62245434    -0.45819566     1.13455158
     13      H     2.31633468    -0.66974538    -0.67582506
     14      B     0.97727422     4.26948102    -0.81282097
     15      F     1.48694251     4.36523416     0.40804432
     16      F    -0.31945191     4.04475632    -0.97200473
     17      F     1.75073077     4.46632239    -1.87300269
 
Total System Charge             0.00000
 
 *** GOStep16 ***

 Energy gradients wrt nuclear displacements
 ==========================================

     Atom      Cartesian (a.u./angstrom)
                 X         Y         Z
 ----------------------------------------
     1 H     0.000183  0.000216  0.000038
     2 C    -0.000221  0.001082 -0.000156
     3 C     0.000300  0.001102 -0.001334
     4 C     0.000979  0.012818 -0.003241
     5 O    -0.001694 -0.014022  0.004223
     6 H    -0.000104 -0.000354  0.000076
     7 H     0.000207  0.000146  0.000115
     8 H    -0.000179 -0.000028 -0.000019
     9 C     0.000231  0.000131  0.000384
    10 H     0.000000 -0.000142 -0.000172
    11 H    -0.000129  0.000024 -0.000071
    12 H    -0.000102 -0.000375  0.000271
    13 H     0.000414 -0.000464 -0.000267
    14 B    -0.002565 -0.000170  0.001737
    15 F     0.000605 -0.000263  0.002015
    16 F    -0.000369 -0.000473  0.000025
    17 F     0.002444  0.000772 -0.003626
 ----------------------------------------
 Mulliken charges used for AMS results%charges...

 dE(predicted):    -0.13188E-03, dE(actual):     0.62526E-04, Trust radius:    0.132418, all in a.u.
 
----------------------------------------------------------------------
Geometry Convergence after Step  16       (Hartree/Angstrom,Angstrom)
----------------------------------------------------------------------
current energy                               -3.39888440 Hartree
energy change                       0.00006253     0.00017000    T
constrained gradient max            0.01402997     0.00100000    F
constrained gradient rms            0.00291346     0.00066667    F
gradient max                        0.01402997
gradient rms                        0.00291346
cart. step max                      0.05267008     0.01000000    F
cart. step rms                      0.02213868     0.00666667    F
 
 
--------
Geometry
--------
Formula: C4H8BF3O
Atoms
  Index Symbol   x (angstrom)   y (angstrom)   z (angstrom)
      1      H     0.83737268    -1.28558383     1.15166842
      2      C    -0.77836978     0.17904938     0.91969532
      3      C     0.35998499    -0.68075668     0.36487220
      4      C     1.46956774     0.02628471    -0.37855696
      5      O     1.49191114     1.19705286    -0.68720921
      6      H    -1.11450883     0.87079796     0.13967041
      7      H    -0.02154907    -1.42776443    -0.35139831
      8      H    -0.14084481     0.28783423     3.00426477
      9      C    -0.41909181     0.96249292     2.18604356
     10      H     0.41381506     1.64995607     2.01610049
     11      H    -1.27377021     1.55679207     2.52558423
     12      H    -1.62702416    -0.48142896     1.13563489
     13      H     2.31589496    -0.64567922    -0.66988697
     14      B     1.00045289     4.30220516    -0.84899552
     15      F     1.52012111     4.41790424     0.36499948
     16      F    -0.30047198     4.09336075    -0.99397617
     17      F     1.76791008     4.46469790    -1.91734211
 
Total System Charge             0.00000
 
 *** GOStep17 ***

 Energy gradients wrt nuclear displacements
 ==========================================

     Atom      Cartesian (a.u./angstrom)
                 X         Y         Z
 ----------------------------------------
     1 H     0.000056  0.000163  0.000099
     2 C    -0.000443  0.000699 -0.000181
     3 C     0.000246 -0.000211 -0.000661
     4 C     0.000378  0.004150 -0.000884
     5 O    -0.000662 -0.004142  0.001118
     6 H    -0.000064 -0.000130  0.000045
     7 H     0.000078  0.000114  0.000127
     8 H    -0.000152 -0.000039 -0.000032
     9 C     0.000282  0.000164  0.000366
    10 H    -0.000035 -0.000176 -0.000025
    11 H    -0.000050  0.000030 -0.000100
    12 H     0.000074 -0.000278  0.000150
    13 H     0.000192 -0.000395 -0.000081
    14 B    -0.001043 -0.000138  0.000947
    15 F     0.000160 -0.000059  0.000512
    16 F     0.000022 -0.000221  0.000063
    17 F     0.000960  0.000469 -0.001462
 ----------------------------------------
 Mulliken charges used for AMS results%charges...

 dE(predicted):    -0.49691E-04, dE(actual):    -0.79141E-04, Trust radius:    0.264835, all in a.u.
 
----------------------------------------------------------------------
Geometry Convergence after Step  17       (Hartree/Angstrom,Angstrom)
----------------------------------------------------------------------
current energy                               -3.39896354 Hartree
energy change                      -0.00007914     0.00017000    T
constrained gradient max            0.00415000     0.00100000    F
constrained gradient rms            0.00093512     0.00066667    F
gradient max                        0.00415000
gradient rms                        0.00093512
cart. step max                      0.05224504     0.01000000    F
cart. step rms                      0.02231836     0.00666667    F
 
 
--------
Geometry
--------
Formula: C4H8BF3O
Atoms
  Index Symbol   x (angstrom)   y (angstrom)   z (angstrom)
      1      H     0.84003528    -1.29625736     1.14606620
      2      C    -0.78745827     0.15797192     0.93152132
      3      C     0.35749109    -0.68586027     0.36674811
      4      C     1.46076302     0.03945631    -0.36829245
      5      O     1.47462864     1.21614236    -0.66440412
      6      H    -1.13323702     0.85175410     0.15741641
      7      H    -0.01819897    -1.42745375    -0.35832985
      8      H    -0.13242443     0.26156817     3.01106579
      9      C    -0.43203721     0.93734588     2.20130229
     10      H     0.38536546     1.64288281     2.02962358
     11      H    -1.29506970     1.51138273     2.55425633
     12      H    -1.62890629    -0.51217710     1.14543097
     13      H     2.31319099    -0.62087467    -0.66718999
     14      B     1.02780983     4.33567419    -0.88091261
     15      F     1.55698977     4.46952834     0.32652574
     16      F    -0.27748911     4.14560580    -1.01386638
     17      F     1.78994696     4.46052565    -1.95579281
 
Total System Charge             0.00000
 
 *** GOStep18 ***

 Energy gradients wrt nuclear displacements
 ==========================================

     Atom      Cartesian (a.u./angstrom)
                 X         Y         Z
 ----------------------------------------
     1 H    -0.000004  0.000066  0.000085
     2 C    -0.000180  0.000297 -0.000074
     3 C     0.000104 -0.000664 -0.000287
     4 C    -0.000426 -0.002098  0.000954
     5 O     0.000113  0.002593 -0.000866
     6 H    -0.000047 -0.000059  0.000056
     7 H     0.000032  0.000025  0.000103
     8 H    -0.000072 -0.000029 -0.000044
     9 C     0.000129  0.000134  0.000138
    10 H     0.000002 -0.000056  0.000005
    11 H    -0.000006  0.000009 -0.000028
    12 H     0.000054 -0.000098  0.000050
    13 H     0.000253 -0.000259 -0.000096
    14 B     0.000893  0.000199 -0.000372
    15 F    -0.000019 -0.000031 -0.000411
    16 F    -0.000021 -0.000154 -0.000190
    17 F    -0.000805  0.000127  0.000976
 ----------------------------------------
 Mulliken charges used for AMS results%charges...

 dE(predicted):    -0.15626E-04, dE(actual):    -0.24006E-04, Trust radius:    0.264835, all in a.u.
 
----------------------------------------------------------------------
Geometry Convergence after Step  18       (Hartree/Angstrom,Angstrom)
----------------------------------------------------------------------
current energy                               -3.39898755 Hartree
energy change                      -0.00002401     0.00017000    T
constrained gradient max            0.00258779     0.00100000    F
constrained gradient rms            0.00057249     0.00066667    T
gradient max                        0.00258779
gradient rms                        0.00057249
cart. step max                      0.01323384     0.01000000    F
cart. step rms                      0.00621898     0.00666667    T
 
 
--------
Geometry
--------
Formula: C4H8BF3O
Atoms
  Index Symbol   x (angstrom)   y (angstrom)   z (angstrom)
      1      H     0.83974033    -1.29895929     1.14341657
      2      C    -0.78889121     0.15489461     0.93453885
      3      C     0.35688243    -0.68534244     0.36683830
      4      C     1.45952927     0.04366529    -0.36530073
      5      O     1.47107061     1.22059967    -0.65927714
      6      H    -1.13398110     0.85246382     0.16346671
      7      H    -0.01793867    -1.42422294    -0.36158787
      8      H    -0.13421541     0.24922788     3.01478078
      9      C    -0.43508997     0.92834304     2.20824809
     10      H     0.38112939     1.63620774     2.04015953
     11      H    -1.29903342     1.49923493     2.56405441
     12      H    -1.63055832    -0.51630644     1.14409523
     13      H     2.31369973    -0.61388533    -0.66464085
     14      B     1.03321278     4.34326739    -0.89176942
     15      F     1.56262693     4.48276219     0.31471299
     16      F    -0.27271912     4.15720520    -1.02288137
     17      F     1.79593578     4.45805979    -1.96768554
 
Total System Charge             0.00000
 
 *** GOStep19 ***

 Energy gradients wrt nuclear displacements
 ==========================================

     Atom      Cartesian (a.u./angstrom)
                 X         Y         Z
 ----------------------------------------
     1 H     0.000019  0.000019  0.000044
     2 C    -0.000002  0.000086  0.000000
     3 C     0.000010 -0.000241 -0.000189
     4 C    -0.000383 -0.001552  0.000814
     5 O     0.000156  0.001641 -0.000706
     6 H    -0.000041 -0.000039  0.000035
     7 H     0.000029 -0.000022  0.000071
     8 H    -0.000042 -0.000019 -0.000011
     9 C     0.000038  0.000028  0.000025
    10 H     0.000002 -0.000041  0.000019
    11 H     0.000012  0.000017 -0.000014
    12 H     0.000028 -0.000035  0.000015
    13 H     0.000134 -0.000037 -0.000089
    14 B     0.000684  0.000215 -0.000046
    15 F    -0.000276 -0.000073 -0.000619
    16 F     0.000163 -0.000100  0.000004
    17 F    -0.000527  0.000153  0.000646
 ----------------------------------------
 Mulliken charges used for AMS results%charges...

 dE(predicted):    -0.23102E-05, dE(actual):    -0.52550E-05, Trust radius:    0.264835, all in a.u.
 
----------------------------------------------------------------------
Geometry Convergence after Step  19       (Hartree/Angstrom,Angstrom)
----------------------------------------------------------------------
current energy                               -3.39899280 Hartree
energy change                      -0.00000526     0.00017000    T
constrained gradient max            0.00163636     0.00100000    F
constrained gradient rms            0.00040394     0.00066667    T
gradient max                        0.00163636
gradient rms                        0.00040394
cart. step max                      0.01322318     0.01000000    F
cart. step rms                      0.00531098     0.00666667    T
 
 
--------
Geometry
--------
Formula: C4H8BF3O
Atoms
  Index Symbol   x (angstrom)   y (angstrom)   z (angstrom)
      1      H     0.83870514    -1.30240445     1.14055787
      2      C    -0.79028532     0.15189849     0.93714366
      3      C     0.35607406    -0.68519530     0.36670199
      4      C     1.45847135     0.04708979    -0.36227127
      5      O     1.46751210     1.22405241    -0.65304201
      6      H    -1.13597064     0.85170707     0.16825956
      7      H    -0.01824245    -1.42093465    -0.36528585
      8      H    -0.12981820     0.24130382     3.01593251
      9      C    -0.43734748     0.92184152     2.21308065
     10      H     0.37410658     1.63532937     2.04552402
     11      H    -1.30358925     1.48601176     2.57397394
     12      H    -1.63148049    -0.52057506     1.14436846
     13      H     2.31393501    -0.60816621    -0.66234636
     14      B     1.03810556     4.34937045    -0.90017527
     15      F     1.56704977     4.49401683     0.30632652
     16      F    -0.26850789     4.16754041    -1.03114257
     17      F     1.80268218     4.45432888    -1.97643730
 
Total System Charge             0.00000
 
 *** GOStep20 ***

 Energy gradients wrt nuclear displacements
 ==========================================

     Atom      Cartesian (a.u./angstrom)
                 X         Y         Z
 ----------------------------------------
     1 H     0.000043 -0.000024  0.000002
     2 C     0.000157 -0.000103  0.000070
     3 C    -0.000047  0.000299 -0.000106
     4 C    -0.000060  0.000112  0.000238
     5 O    -0.000065 -0.000556 -0.000082
     6 H    -0.000026 -0.000004 -0.000013
     7 H     0.000027 -0.000034  0.000019
     8 H     0.000011 -0.000003  0.000010
     9 C    -0.000033 -0.000047 -0.000084
    10 H    -0.000011 -0.000011  0.000013
    11 H     0.000013 -0.000007  0.000007
    12 H     0.000004  0.000030 -0.000017
    13 H    -0.000049  0.000108 -0.000035
    14 B     0.000162  0.000182  0.000001
    15 F    -0.000060 -0.000015  0.000029
    16 F    -0.000093 -0.000120  0.000049
    17 F     0.000026  0.000195 -0.000101
 ----------------------------------------
 Mulliken charges used for AMS results%charges...

 dE(predicted):    -0.25508E-05, dE(actual):    -0.45217E-05, Trust radius:    0.264835, all in a.u.
 
---------------------------------------------------------
Geometry Convergence after Step  20       ** CONVERGED **
---------------------------------------------------------
current energy                               -3.39899732 Hartree
energy change                      -0.00000452     0.00017000    T
constrained gradient max            0.00056033     0.00100000    T
constrained gradient rms            0.00011777     0.00066667    T
gradient max                        0.00056033
gradient rms                        0.00011777
cart. step max                      0.00962470     0.01000000    T
cart. step rms                      0.00417159     0.00666667    T
 
Geometry optimization converged

Optimized geometry:
 
--------
Geometry
--------
Formula: C4H8BF3O
Atoms
  Index Symbol   x (angstrom)   y (angstrom)   z (angstrom)
      1      H     0.83870514    -1.30240445     1.14055787
      2      C    -0.79028532     0.15189849     0.93714366
      3      C     0.35607406    -0.68519530     0.36670199
      4      C     1.45847135     0.04708979    -0.36227127
      5      O     1.46751210     1.22405241    -0.65304201
      6      H    -1.13597064     0.85170707     0.16825956
      7      H    -0.01824245    -1.42093465    -0.36528585
      8      H    -0.12981820     0.24130382     3.01593251
      9      C    -0.43734748     0.92184152     2.21308065
     10      H     0.37410658     1.63532937     2.04552402
     11      H    -1.30358925     1.48601176     2.57397394
     12      H    -1.63148049    -0.52057506     1.14436846
     13      H     2.31393501    -0.60816621    -0.66234636
     14      B     1.03810556     4.34937045    -0.90017527
     15      F     1.56704977     4.49401683     0.30632652
     16      F    -0.26850789     4.16754041    -1.03114257
     17      F     1.80268218     4.45432888    -1.97643730
 
Total System Charge             0.00000
 
Performing a single point calculation on the final geometry ...

 *** adf ***



 ===========================
 A T T A C H E D   F I L E S
 ===========================
  
 Restart
 /scratch/3979/amstmp_29.achiral_catalyst.H_H_BF3.P2_kid0.1691367989/GOStep20.rk
 f*** GOStep20 ***



 ===============================
 M O D E L   P A R A M E T E R S
 ===============================
  
 DENSITY FUNCTIONAL POTENTIAL (scf)
    LDA:                               Exchange only                           == Not Default ==
    Gradient Corrections:              OPTX LYP                                == Not Default ==

 SPIN  (restricted / unrestr.)
    Molecule:                          Restricted                               
    Fragments:                         Restricted                               

 OTHER ASPECTS
    Relativistic Corrections:          scalar (ZORA,MAPA)                       

    Nuclear Charge Density Model:      Point Charge Nuclei                      
    Core Treatment:                    Frozen Orbital(s)                        

    Hyperfine or Zeeman Interaction:   ---                                      



 ===============
 G E O M E T R Y  ***  3D  Molecule  ***
 ===============
  

 ATOMS
 =====                            X Y Z                    CHARGE
                                (Angstrom)             Nucl     +Core       At.Mass
                       --------------------------    ----------------       -------
    1  H               0.8387   -1.3024    1.1406      1.00      1.00        1.0078
    2  C              -0.7903    0.1519    0.9371      6.00      6.00       12.0000
    3  C               0.3561   -0.6852    0.3667      6.00      6.00       12.0000
    4  C               1.4585    0.0471   -0.3623      6.00      6.00       12.0000
    5  O               1.4675    1.2241   -0.6530      8.00      8.00       15.9949
    6  H              -1.1360    0.8517    0.1683      1.00      1.00        1.0078
    7  H              -0.0182   -1.4209   -0.3653      1.00      1.00        1.0078
    8  H              -0.1298    0.2413    3.0159      1.00      1.00        1.0078
    9  C              -0.4373    0.9218    2.2131      6.00      6.00       12.0000
   10  H               0.3741    1.6353    2.0455      1.00      1.00        1.0078
   11  H              -1.3036    1.4860    2.5740      1.00      1.00        1.0078
   12  H              -1.6315   -0.5206    1.1444      1.00      1.00        1.0078
   13  H               2.3139   -0.6082   -0.6623      1.00      1.00        1.0078
   14  B               1.0381    4.3494   -0.9002      5.00      5.00       11.0093
   15  F               1.5670    4.4940    0.3063      9.00      9.00       18.9984
   16  F              -0.2685    4.1675   -1.0311      9.00      9.00       18.9984
   17  F               1.8027    4.4543   -1.9764      9.00      9.00       18.9984


 FRAGMENTS
 =========                                     Atoms in this Fragment     Cart. coord.s (Angstrom)
                                               -------------------------------------------------------
    1  H                                                 1  H            0.8387   -1.3024    1.1406
    2  H                                                 6  H           -1.1360    0.8517    0.1683
    3  H                                                 7  H           -0.0182   -1.4209   -0.3653
    4  H                                                 8  H           -0.1298    0.2413    3.0159
    5  H                                                10  H            0.3741    1.6353    2.0455
    6  H                                                11  H           -1.3036    1.4860    2.5740
    7  H                                                12  H           -1.6315   -0.5206    1.1444
    8  H                                                13  H            2.3139   -0.6082   -0.6623
    9  C                                                 2  C           -0.7903    0.1519    0.9371
   10  C                                                 3  C            0.3561   -0.6852    0.3667
   11  C                                                 4  C            1.4585    0.0471   -0.3623
   12  C                                                 9  C           -0.4373    0.9218    2.2131
   13  O                                                 5  O            1.4675    1.2241   -0.6530
   14  B                                                14  B            1.0381    4.3494   -0.9002
   15  F                                                15  F            1.5670    4.4940    0.3063
   16  F                                                16  F           -0.2685    4.1675   -1.0311
   17  F                                                17  F            1.8027    4.4543   -1.9764


 Interatomic Distance Matrix (Angstrom)
 --------------------------------------

   1)     0.000
   2)     2.193   0.000
   3)     1.101   1.530   0.000
   4)     2.113   2.599   1.511   0.000
   5)     3.162   2.962   2.433   1.212   0.000
   6)     3.080   1.096   2.151   2.768   2.755   0.000
   7)     1.737   2.183   1.103   2.082   3.047   2.588   0.000
   8)     2.615   2.183   2.848   3.738   4.121   3.081   3.769   0.000
   9)     2.780   1.531   2.573   3.315   3.455   2.162   3.509   1.096   0.000
  10)     3.109   2.187   2.864   3.082   2.941   2.533   3.912   1.772   1.093   0.000
  11)     3.797   2.173   3.513   4.280   4.262   2.494   4.329   1.767   1.095   1.765
          0.000
  12)     2.591   1.097   2.141   3.484   3.985   1.755   2.386   2.518   2.156   3.079
          2.485   0.000
  13)     2.431   3.574   2.213   1.119   2.018   3.837   2.488   4.497   4.264   4.016
          5.286   4.340   0.000
  14)     6.012   4.933   5.236   4.356   3.164   4.255   5.891   5.794   4.860   4.060
          5.075   5.918   5.125   0.000
  15)     5.901   4.981   5.319   4.498   3.409   4.538   6.160   5.320   4.518   3.552
          4.736   6.007   5.247   1.325   0.000
  16)     5.989   4.502   5.089   4.518   3.438   3.631   5.634   5.640   4.592   4.036
          4.611   5.345   5.442   1.326   2.294   0.000
  17)     6.617   5.807   5.831   4.706   3.507   5.120   6.358   6.812   5.920   5.115
          6.258   6.803   5.255   1.324   2.295   2.295   0.000

 Min. Distance =    1.0934
 Max. Distance =    6.8123



 =====================================
 S Y M M E T R Y ,   E L E C T R O N S
 =====================================
  
 Symmetry: NOSYM

 Irreducible Representations, including subspecies
 -------------------------------------------------
 A


 Configuration of Valence Electrons
 ==================================
 ( determined in the SCF procedure )

 Total:   72

 Net Charge: 0 (Nuclei minus Electrons)

 Aufbau principle for MO occupations will be applied through SCF cycle no.      49
 Thereafter, the program will assign electrons to MOs that are spatially
 similar to the occupied MOs in a "reference" cycle ("KeepOrbitals").
 The reference cycle is always the PREVIOUS cycle: it will evolve with
 the SCF procedure.
1
 ***************************************************************************************************



                                      ****************************************
                                      *  B U I L D : (Fragments, Functions)  *
                                      ****************************************
  



 =======
 S F O s  ***  (Symmetrized Fragment Orbitals)  ***
 =======
  
 SFOs are linear combinations of (valence) Fragment Orbitals (FOs), such that the SFOs transform as the
 irreducible representations of the (molecular) symmetry group. Each SFO is therefore characterized by
 an irrep of the molecule and by a few (or only one) generating FOs.
 The SFOs constitute a symmetry-adapted basis for the Fock matrix. The MO eigenvector coefficients in
 this basis provide a direct interpretation of the MOs in terms of Frontier Orbital Theory.

 The SFOs are combined with auxiliary Core Functions (CFs) to ensure orthogonalization on the (frozen)
 Core Orbitals (COs). The Core-orthogonalized SFOs (CSFOs) constitute the true Fock basis.

 The FOs, and hence also the (C)SFOs are combinations of the elementary basis functions (BAS). The basis
 functions that participate in the description of the SFOs depend on the irrep. The indices of the
 involved functions are printed below for each irrep.
 (The complete list of primitive basis functions is printed in another section)

 Total nr. of (C)SFOs (summation over all irreps) :   322

 NOTE: a (C)SFO that is defined as a combination of more than one FO is usually NOT normalized.



                                       === A ===
 Nr. of SFOs :  322
 Cartesian basis functions that participate in this irrep (total number =   366) :
      1     2     3     4     5     6     7     8     9    10
     11    12    13    14    15    16    17    18    19    20
     21    22    23    24    25    26    27    28    29    30
     31    32    33    34    35    36    37    38    39    40
     41    42    43    44    45    46    47    48    49    50
     51    52    53    54    55    56    57    58    59    60
     61    62    63    64    65    66    67    68    69    70
     71    72    73    74    75    76    77    78    79    80
     81    82    83    84    85    86    87    88    89    90
     91    92    93    94    95    96    97    98    99   100
    101   102   105   108   103   106   109   104   107   110
    111   112   113   114   115   116   117   118   119   120
    121   122   123   124   125   126   127   128   129   130
    131   132   135   138   133   136   139   134   137   140
    141   142   143   144   145   146   147   148   149   150
    151   152   153   154   155   156   157   158   159   160
    161   162   165   168   163   166   169   164   167   170
    171   172   173   174   175   176   177   178   179   180
    181   182   183   184   185   186   187   188   189   190
    191   192   195   198   193   196   199   194   197   200
    201   202   203   204   205   206   207   208   209   210
    211   212   213   214   215   216   217   218   219   220
    221   222   225   228   223   226   229   224   227   230
    231   232   233   234   235   236   237   238   239   240
    241   242   243   244   245   246   247   248   249   250
    251   252   255   258   253   256   259   254   257   260
    261   262   263   264   265   266   267   268   269   270
    271   272   273   274   275   276   277   278   279   280
    281   282   285   288   283   286   289   284   287   290
    291   292   293   294   295   296   297   298   299   300
    301   302   303   304   305   306   307   308   309   310
    311   312   315   318   313   316   319   314   317   320
    321   322   323   324   325   326   327   328   329   330
    331   332   333   334   335   336   337   338   339   340
    341   342   345   348   343   346   349   344   347   350
    351   352   353   354   355   356   357   358   359   360
    361   362   363   364   365   366

    SFO  (index         Fragment          Generating    Expansion in Fragment Orbitals
  indx  incl.CFs)   Occup   Orb.Energy   FragmentType  Coeff.   Orbital     on Fragment
 --------------------------------------------------------------------------------------
     1       1      1.000      -0.238 au  H             1.00      1 S               1
                        (      -6.484 eV)
     2       2       --         0.077 au  H             1.00      2 S               1
                        (       2.096 eV)
     3       3       --         1.521 au  H             1.00      3 S               1
                        (      41.380 eV)
     4       4       --         0.410 au  H             1.00      1 P:x             1
                        (      11.162 eV)
     5       5       --         0.410 au  H             1.00      1 P:y             1
                        (      11.162 eV)
     6       6       --         0.410 au  H             1.00      1 P:z             1
                        (      11.162 eV)
     7       7       --         2.567 au  H             1.00      1 D:z2            1
                        (      69.838 eV)
     8       8       --         2.567 au  H             1.00      1 D:x2-y2         1
                        (      69.838 eV)
     9       9       --         2.567 au  H             1.00      1 D:xy            1
                        (      69.838 eV)
    10      10       --         2.567 au  H             1.00      1 D:xz            1
                        (      69.838 eV)
    11      11       --         2.567 au  H             1.00      1 D:yz            1
                        (      69.838 eV)
    12      12      1.000      -0.238 au  H             1.00      1 S               2
                        (      -6.484 eV)
[...]
 Index  Atom      ---- Displacements (x/y/z) ----
     1     H      -0.016009   0.016603   0.012814
     2     C      -0.008859  -0.001941   0.002842
     3     C      -0.002592   0.006063  -0.003534
     4     C      -0.013025  -0.001988   0.006798
     5     O       0.003802  -0.011647  -0.002461
     6     H       0.087870   0.008999  -0.024818
     7     H       0.011279   0.003231  -0.006806
     8     H       0.006900  -0.000257  -0.003663
     9     C      -0.000661  -0.001098  -0.002894
    10     H      -0.006038   0.013443   0.026401
    11     H       0.011836   0.014110   0.002534
    12     H       0.035217  -0.040300   0.043398
    13     H       0.074385   0.149611  -0.067301
    14     B       0.797410   0.135591   0.382716
    15     F      -0.113331  -0.027253  -0.212206
    16     F      -0.291382  -0.042720  -0.038893
    17     F      -0.055597  -0.008226   0.030288
 
 Mode:    38      Frequency (cm-1):     1394.5990     Intensity (km/mol):      407.4172
 Index  Atom      ---- Displacements (x/y/z) ----
     1     H      -0.010269  -0.149855  -0.115658
     2     C       0.002180   0.008257   0.003716
     3     C      -0.011507   0.015335   0.006575
     4     C       0.005895  -0.001628  -0.000819
     5     O      -0.000898   0.004851  -0.003410
     6     H      -0.047488  -0.009713   0.007183
     7     H       0.086186  -0.128989   0.092801
     8     H       0.043861   0.001592  -0.019435
     9     C       0.000527   0.008131   0.004866
    10     H       0.053642  -0.054876  -0.007563
    11     H      -0.058298  -0.051255  -0.052873
    12     H       0.003892  -0.016625  -0.069074
    13     H      -0.009098  -0.023588   0.014027
    14     B      -0.371677  -0.030708   0.789050
    15     F      -0.060638  -0.017881  -0.189481
    16     F       0.103201   0.014109  -0.015784
    17     F       0.172098   0.021460  -0.250175
 
 Mode:    39      Frequency (cm-1):     1401.6051     Intensity (km/mol):       10.3771
 Index  Atom      ---- Displacements (x/y/z) ----
     1     H      -0.040135  -0.453584  -0.378177
     2     C       0.012747  -0.004939  -0.016607
     3     C      -0.047601   0.076341   0.022062
     4     C      -0.019620  -0.008132   0.016146
     5     O       0.014595  -0.022693  -0.003149
     6     H      -0.001042   0.043372   0.037433
     7     H       0.274399  -0.388962   0.297001
     8     H       0.083851   0.124635   0.058753
     9     C      -0.017822  -0.019377  -0.028050
    10     H      -0.004975   0.024692   0.178768
    11     H       0.094462   0.085614   0.085800
    12     H       0.027439   0.004059   0.049132
    13     H       0.194913   0.394746  -0.199996
    14     B      -0.000448   0.000456  -0.017393
    15     F       0.002028   0.000355   0.005115
    16     F       0.000828  -0.000034   0.000639
    17     F      -0.002582  -0.000429   0.004221
 
 Mode:    40      Frequency (cm-1):     1450.4370     Intensity (km/mol):        2.1453
 Index  Atom      ---- Displacements (x/y/z) ----
     1     H       0.012958   0.008408  -0.007655
     2     C      -0.061145  -0.002397  -0.036846
     3     C      -0.011033  -0.001426  -0.000577
     4     C       0.005976  -0.005843   0.000018
     5     O      -0.000961   0.008066  -0.001614
     6     H       0.587600   0.322226  -0.003685
     7     H      -0.005284  -0.004968  -0.005811
     8     H      -0.189111  -0.042277   0.034998
     9     C       0.008305  -0.001648  -0.002605
    10     H      -0.094869   0.080059  -0.119774
    11     H       0.051634   0.006384   0.117754
    12     H       0.354997  -0.329103   0.473443
    13     H      -0.011236  -0.032940   0.011920
    14     B      -0.009452  -0.001912   0.003008
    15     F       0.000530   0.000174   0.000289
    16     F       0.003072   0.000612   0.000126
    17     F       0.001765   0.000264  -0.002115
 
 Mode:    41      Frequency (cm-1):     1465.9212     Intensity (km/mol):        7.2842
 Index  Atom      ---- Displacements (x/y/z) ----
     1     H      -0.007162   0.041097   0.042267
     2     C      -0.032856  -0.004162   0.011421
     3     C       0.007743  -0.007203  -0.005153
     4     C      -0.000022   0.001478  -0.001268
     5     O      -0.000371   0.000088   0.000658
     6     H       0.141328   0.060686  -0.001615
     7     H      -0.030227   0.033791  -0.025190
     8     H       0.536842  -0.119428  -0.293607
     9     C      -0.033191  -0.023908   0.021809
    10     H      -0.045602   0.110918   0.387940
    11     H       0.055288   0.409712  -0.473019
    12     H       0.060969  -0.115754   0.025116
    13     H      -0.010864  -0.020456   0.009602
    14     B      -0.003427  -0.000322  -0.000508
    15     F       0.000359   0.000009   0.000515
    16     F       0.001204   0.000162   0.000100
    17     F       0.000412   0.000038  -0.000382
 
 Mode:    42      Frequency (cm-1):     1474.0587     Intensity (km/mol):        5.9134
 Index  Atom      ---- Displacements (x/y/z) ----
     1     H      -0.013826  -0.005939   0.000672
     2     C       0.031753  -0.022294   0.003549
     3     C      -0.003621   0.004715   0.002222
     4     C      -0.001415   0.002030  -0.001740
     5     O       0.000652  -0.003620   0.000777
     6     H      -0.122893  -0.024606   0.070369
     7     H       0.015224  -0.002643   0.001191
     8     H      -0.346105  -0.315024  -0.109694
     9     C       0.032164  -0.033872   0.013972
    10     H      -0.462542   0.490269  -0.158361
    11     H       0.297530   0.387410   0.049784
    12     H      -0.087901   0.096832  -0.075682
    13     H       0.009183   0.018998  -0.005729
    14     B      -0.002664  -0.000146   0.007101
    15     F      -0.000466  -0.000113  -0.001770
    16     F       0.000647   0.000089  -0.000279
    17     F       0.001358   0.000141  -0.002025
 
 Mode:    43      Frequency (cm-1):     1758.9892     Intensity (km/mol):      185.7619
 Index  Atom      ---- Displacements (x/y/z) ----
     1     H       0.189158   0.168512  -0.006555
     2     C       0.004102  -0.018786  -0.000219
     3     C      -0.002225   0.039789  -0.008669
     4     C      -0.043596  -0.666921   0.184790
     5     O       0.003968   0.450884  -0.111927
     6     H      -0.041207  -0.026974   0.029042
     7     H       0.048611   0.130924  -0.150757
     8     H       0.019241   0.000437  -0.007784
     9     C      -0.004131   0.000054  -0.002299
    10     H      -0.007993   0.006346   0.039297
    11     H       0.022386   0.028621   0.009807
    12     H      -0.082632   0.093377   0.007652
    13     H       0.333808   0.131103  -0.209270
    14     B      -0.002210   0.005642   0.000164
    15     F       0.000095  -0.001165  -0.000369
    16     F       0.001074  -0.000995   0.000086
    17     F       0.000194  -0.001004   0.000074
 
 Mode:    44      Frequency (cm-1):     2799.1989     Intensity (km/mol):      157.0640
 Index  Atom      ---- Displacements (x/y/z) ----
     1     H       0.030536  -0.025830   0.037063
     2     C      -0.000252   0.000484   0.000730
     3     C      -0.001088   0.003643  -0.000082
     4     C       0.065318  -0.043482  -0.024331
     5     O      -0.000401  -0.002741   0.000873
     6     H      -0.004296   0.003482  -0.004311
     7     H      -0.013560  -0.029118  -0.037808
     8     H       0.001034  -0.001288   0.001730
     9     C       0.000097   0.000001  -0.000234
    10     H      -0.000692  -0.000329   0.000706
    11     H      -0.001577   0.001149   0.000311
    12     H       0.001730  -0.002231  -0.001360
    13     H      -0.769840   0.565311   0.274761
    14     B       0.000179   0.000392  -0.000129
    15     F      -0.000023  -0.000057  -0.000008
    16     F      -0.000030  -0.000072   0.000014
    17     F      -0.000046  -0.000049   0.000060
 
 Mode:    45      Frequency (cm-1):     2956.0734     Intensity (km/mol):       26.3958
 Index  Atom      ---- Displacements (x/y/z) ----
     1     H      -0.208195   0.240766  -0.342269
     2     C       0.006747   0.005468  -0.000920
     3     C      -0.007991  -0.067623  -0.019719
     4     C       0.004112  -0.005088  -0.001979
     5     O      -0.000219   0.001229  -0.000172
     6     H      -0.001499   0.011085  -0.010251
     7     H       0.315414   0.567711   0.579277
     8     H       0.006261  -0.016567   0.017094
     9     C      -0.001172  -0.000232  -0.001126
    10     H       0.018934   0.017060  -0.004711
    11     H      -0.010111   0.005296   0.002143
    12     H      -0.085081  -0.073468   0.023273
    13     H      -0.052490   0.032106   0.020868
    14     B       0.000077   0.000001  -0.000063
    15     F      -0.000006  -0.000001   0.000011
    16     F      -0.000021  -0.000005   0.000007
    17     F      -0.000016   0.000001   0.000019
 
 Mode:    46      Frequency (cm-1):     2987.0102     Intensity (km/mol):        3.7949
 Index  Atom      ---- Displacements (x/y/z) ----
     1     H       0.358491  -0.475316   0.597787
     2     C       0.015955  -0.003203   0.008829
     3     C      -0.041414   0.015477  -0.071170
     4     C      -0.002934   0.001007  -0.000391
     5     O      -0.000075  -0.000266  -0.000213
     6     H      -0.063348   0.142885  -0.155059
     7     H       0.147918   0.295624   0.266671
     8     H      -0.029545   0.067085  -0.071322
     9     C       0.000033   0.001627   0.007898
    10     H      -0.045453  -0.038533   0.011750
    11     H       0.075567  -0.047806  -0.026780
    12     H      -0.125968  -0.105434   0.038140
    13     H       0.021237  -0.011695  -0.004882
    14     B      -0.000037  -0.000031  -0.000016
    15     F       0.000006   0.000004   0.000007
    16     F       0.000008   0.000004   0.000002
    17     F       0.000005   0.000005  -0.000001
 
 Mode:    47      Frequency (cm-1):     2993.0051     Intensity (km/mol):       24.2462
 Index  Atom      ---- Displacements (x/y/z) ----
     1     H      -0.055645   0.072325  -0.089366
     2     C      -0.002491   0.004335  -0.005967
     3     C       0.005590  -0.004388   0.008582
     4     C       0.000740  -0.000131  -0.000178
     5     O       0.000013  -0.000095  -0.000008
     6     H       0.029993  -0.060494   0.067364
     7     H      -0.011415  -0.019868  -0.016256
     8     H      -0.199556   0.456490  -0.513872
     9     C       0.008946   0.008340   0.049895
    10     H      -0.322179  -0.283543   0.083402
    11     H       0.415310  -0.265759  -0.156103
    12     H      -0.001998   0.001139  -0.000234
    13     H      -0.007046   0.003765   0.002370
    14     B       0.000019   0.000070   0.000002
    15     F      -0.000001  -0.000006  -0.000013
    16     F      -0.000002  -0.000009  -0.000005
    17     F      -0.000003  -0.000008   0.000002
 
 Mode:    48      Frequency (cm-1):     3003.1707     Intensity (km/mol):       27.5923
 Index  Atom      ---- Displacements (x/y/z) ----
     1     H      -0.075688   0.102154  -0.125778
     2     C       0.063949   0.015495   0.014885
     3     C       0.012176   0.003601   0.021268
     4     C      -0.000439  -0.000369   0.000725
     5     O      -0.000051   0.000228   0.000015
     6     H      -0.136570   0.323021  -0.341044
     7     H      -0.071281  -0.143432  -0.134697
     8     H      -0.001893  -0.005336   0.006243
     9     C      -0.009725   0.001074   0.002282
    10     H       0.041765   0.039848  -0.010256
    11     H       0.073731  -0.046603  -0.026490
    12     H      -0.617749  -0.508320   0.166778
    13     H       0.003152  -0.000426  -0.001391
    14     B       0.000041  -0.000031   0.000082
    15     F      -0.000009   0.000006  -0.000021
    16     F      -0.000019  -0.000007  -0.000006
    17     F       0.000001   0.000004  -0.000014
 
 Mode:    49      Frequency (cm-1):     3039.7454     Intensity (km/mol):        4.5999
 Index  Atom      ---- Displacements (x/y/z) ----
     1     H       0.049901  -0.061128   0.078917
     2     C       0.010896   0.063433  -0.050682
     3     C      -0.004251   0.005554  -0.006887
     4     C      -0.000184   0.000667  -0.000066
     5     O       0.000148  -0.000440   0.000119
     6     H       0.238520  -0.481404   0.523307
     7     H      -0.000383   0.003475   0.000639
     8     H      -0.068722   0.154338  -0.178937
     9     C       0.006045  -0.036235   0.011080
    10     H       0.200307   0.162104  -0.042133
    11     H      -0.201710   0.118613   0.085225
    12     H      -0.369239  -0.286918   0.085698
    13     H       0.000095  -0.000135  -0.000319
    14     B      -0.000077  -0.000053  -0.000048
    15     F       0.000009   0.000002   0.000026
    16     F       0.000027   0.000030   0.000002
    17     F       0.000008   0.000005   0.000001
 
 Mode:    50      Frequency (cm-1):     3062.9820     Intensity (km/mol):       36.6310
 Index  Atom      ---- Displacements (x/y/z) ----
     1     H       0.023119  -0.028565   0.032893
     2     C      -0.000975   0.026614  -0.023246
     3     C      -0.001678   0.001775  -0.003197
     4     C       0.000079   0.000602  -0.000190
     5     O       0.000068  -0.000379   0.000048
     6     H       0.112279  -0.228332   0.250372
     7     H       0.001243   0.004480   0.004583
     8     H       0.154814  -0.366545   0.432488
     9     C      -0.052747   0.063688  -0.017234
    10     H      -0.080614  -0.042553   0.009662
    11     H       0.557722  -0.349667  -0.233042
    12     H      -0.110614  -0.086311   0.024686
    13     H      -0.000288  -0.000247  -0.000013
    14     B      -0.000191  -0.000019   0.000066
    15     F       0.000023   0.000003  -0.000002
    16     F       0.000055   0.000021  -0.000012
    17     F       0.000031   0.000001  -0.000028
 
 Mode:    51      Frequency (cm-1):     3082.7047     Intensity (km/mol):       24.4340
 Index  Atom      ---- Displacements (x/y/z) ----
     1     H      -0.005359   0.005809  -0.007302
     2     C      -0.008785  -0.015602   0.010268
     3     C       0.000527  -0.000764   0.000293
     4     C       0.000190  -0.000608  -0.000007
     5     O      -0.000056   0.000347   0.000154
     6     H      -0.038552   0.076270  -0.085285
     7     H       0.001185   0.001997   0.001773
     8     H      -0.083212   0.142587  -0.164617
     9     C      -0.072174  -0.040060   0.035333
    10     H       0.631330   0.556374  -0.138418
    11     H       0.314594  -0.220840  -0.123427
    12     H       0.137651   0.110566  -0.031871
    13     H      -0.001234   0.001325  -0.000006
    14     B       0.000024   0.000042  -0.000106
    15     F      -0.000003  -0.000027   0.000038
    16     F      -0.000003  -0.000018   0.000017
    17     F      -0.000013  -0.000006   0.000024

PES point character: Geometry corresponds to a local minimum on the PES.




 ============================
 Statistical Thermal Analysis  ***  ideal gas assumed  ***
 ============================
  
 Pressure:                  1.000000 atm.
 Temperature:             298.150000 K



 Moments of Inertia [amu*bohr^2] and principal axis
 ==================================================

         827.3364       2785.8993       3131.3859
 ------------------------------------------------
          -0.2166         -0.6057         -0.7657
          -0.8999          0.4279         -0.0838
           0.3784          0.6709         -0.6378


 The rotational contribution to the molecular entropy includes
 a term, dependent on the symmetry number sigma. The results 
 reported below were computed using sigma = 1, determined from
 the point group symmetry of the input geometry (NOSYM). 
 If this is not the correct symmetry, try symmetrizing the molecule before
 running the calculation (note: linear molecules should be aligned along one
 of the Cartesian axes).
 Contributions from frequencies below 20 1/cm are not included in vibrational sums.
 Their contributions, if any, are reported separately.


     Temp                                                        Transl      Rotat     Vibrat     Total
     ----                                                        ------      -----     ------     -----

     298.15   Entropy (cal/mol-K):                               40.722     30.357     35.814    106.894
              Nuclear Internal Energy (kcal/mol):                 0.889      0.889     81.776     83.554
              Constant Volume Heat Capacity (cal/mol-K):          2.981      2.981     27.468     33.429
          (c) Constant Volume Heat Capacity (cal/mol-K):          2.981      2.981     25.059     31.021

 Contributions from frequencies below 20 1/cm
 Frequency (1/cm):                                    5.833    19.524
 Entropy (cal/mol-K):                                 9.082     6.682
 Nuclear Internal Energy (kcal/mol):                  0.593     0.593
 Constant Volume Heat Capacity (cal/mol-K):           1.987     1.986

       Summary of energy terms
                                                   hartree              eV         kcal/mol           kJ/mol
                                      --------------------     -----------       ----------      -----------
      Energy from Engine:               -3.398997324552278        -92.4914         -2132.90         -8924.07
      Nuclear Internal Energy:           0.133151527030547          3.6232            83.55           349.59
  (c) Nuclear Internal Energy:           0.131922721335321          3.5898            82.78           346.36
      Internal Energy U:                -3.265845797521730        -88.8682         -2049.35         -8574.48
      pV/n = RT:                         0.000944186013486          0.0257             0.59             2.48
      Enthalpy H:                       -3.264901611508244        -88.8425         -2048.76         -8572.00
      -T*S:                             -0.050788900804345         -1.3820           -31.87          -133.35
  (c) -T*S:                             -0.052790473345603         -1.4365           -33.13          -138.60
      Gibbs free energy:                -3.315690512312589        -90.2245         -2080.63         -8705.34
 
 
 
  (c) The properties marked with this symbol have been corrected using 'low vibrational frequency free rotor
      interpolation corrections'. For those terms all positive frequencies are used (also ones below 20 1/cm),
      but the contribution to the partition function of small vibrational frequencies is modified as described
      in the following paper:
      S. Grimme, 'Supramolecular Binding Thermodynamics by Dispersion-Corrected Density Functional Theory'
      (Chem. Eur. J. 2012, 18, 9955-9964)
      Configuration: Dampener Frequency          :   100.000 1/cm
                     Dampener Alpha              :     4.000
                     Averaging Moment of Inertia : 1.000E-44 kg m2

--------------
Atomic charges
--------------
  Index   Atom    Charge
      1      H   -0.1741
      2      C    0.4495
      3      C    0.3792
      4      C    0.6755
      5      O   -0.5158
      6      H   -0.1818
      7      H   -0.1698
      8      H   -0.2228
      9      C    0.6432
     10      H   -0.1811
     11      H   -0.2340
     12      H   -0.2086
     13      H   -0.2592
     14      B    1.5137
     15      F   -0.5033
     16      F   -0.5056
     17      F   -0.5051


Dipole moment vector    (Debye):    -0.69628002   -2.77012420    0.95730558
              magnitude (Debye):     3.01244551


Final PES point is a local minimum. Geometry optimization successful!


AMS application finished. Exiting.
NORMAL TERMINATION
     Total cpu time:   14742.94
  Total system time:     137.35
 Total elapsed time:   29919.86
 WARNING: total elapsed time is much higher than the (CPU+system) time. 
 Make sure the machine is not oversubscribed and has enough memory, SCM_TMPDIR p
 oints to a fast file system, and the network is fast enough.
