

 Parallel Execution: Process Information
 ==============================================================================
 Rank   Node Name                              NodeID   MyNodeRank  NodeMaster
    0   DESKTOP-1M8FOJT                           0          0          0
    1   DESKTOP-1M8FOJT                           0          1         -1
    2   DESKTOP-1M8FOJT                           0          2         -1
    3   DESKTOP-1M8FOJT                           0          3         -1
 ==============================================================================


May use up to 4096MB of RAM as shared memory on node 0

 *******************************************************************************
 *                                                                             *
 *  --------------------------------                                           *
 *   Amsterdam Modeling Suite (AMS)              2022.101                      *
 *  --------------------------------                                           *
 *                                               r100871 2022-01-28            *
 *                                                                             *
 *                                                                             *
 *                              =================                              *
 *                              |               |                              *
 *                              |     A M S     |                              *
 *                              |               |                              *
 *                              =================                              *
 *                                                                             *
 *                                                                             *
 *   Online information and documentation:  https://www.scm.com/support/       *
 *   E-mail:  support@scm.com   info@scm.com                                   *
 *                                                                             *
 *   Scientific publications using AMS results must be properly referenced     *
 *   See the User Manuals (or the web site) for recommended citations          *
 *   The terms and conditions of the End User License Agreement apply to       *
 *   the use of AMS, https://www.scm.com/license-terms/                        *
 *                                                                             *
 *********************  x86_64_windows_intel / intelmpi  ***********************
 
 Licensed to: Mr. Yuman Hordijk / SCM / Amsterdam / Netherlands 2022-03-04 15:44:10
 SCM User ID: u24430
  
 AMS 2022.101  RunTime: Apr14-2022 19:33:02  ShM Nodes: 1  Procs: 4

 AMS jobname: ams
 AMS jobid  : 1610954457

 Start   directory: D:/Users/Yuman/Desktop/MasterProject/tests/pespointcharacter/tmp..21148.0.noindex/
 Results directory: D:/Users/Yuman/Desktop/MasterProject/tests/pespointcharacter/sub_cat_complex.results/
 Scratch directory: Z:/SCMTMP/amstmp_ams_kid0.1610954457/


 Communication costs MPI_COMM_WORLD:     -9.742 usec per message,   0.0700 usec per 8-byte item
 Communication costs for intra-node:      1.897 usec per message,   0.0050 usec per 8-byte item

 RNG seed: 2139822766 -291098290 -382992279 -1581475205 -1917792927 1735586483 -2072764683 2032968553



                      ************************************************************************
                      *  ADF 2022.101  RunTime: Apr14-2022 19:33:02  ShM Nodes: 1  Procs: 4  *
                      ************************************************************************
  
       ***************************
       *  GEOMETRY OPTIMIZATION  *
       ***************************

Optimization Method                    Quasi Newton
Optimization Coordinates               Delocalized Coordinates
Optimize lattice                       F
 
 ------------------------------------------------------
 Convergence criteria (Hartree,Angstrom)
 ------------------------------------------------------
 Maximum gradient               0.001000000000
 Maximum rms gradient           0.000666666667
 Maximum step allowed           0.010000000000
 Maximum rms step allowed       0.006666666667
 Maximum energy change allowe   0.000150000000
 Maximum stress energy allowe   0.000500000000
 
Initial model Hessian                  Automatic Hessian
 
------------------------------------
Quasi-Newton Optimizer Parameters
------------------------------------
Hessian Update Method                  BFGS
Maximum number of steps                  250
First GDIIS cycle                          0
Maximum GDIIS vectors                      0
Trust radius (bohr)                        0.200000
Trust radius varies                        T
Constraints converged at all steps         T
Use projector                              T
 
 Rigid motions settings for: old optimizer
 Atomic rotations (x,y,z):     T T T
 Atomic translations (x,y,z):  T T T
 Tolerance:                   1.000000000000000E-006
 
--------
Geometry
--------
Formula: C4H6BF3O
Atoms
  Index Symbol   x (angstrom)   y (angstrom)   z (angstrom)
      1      H     1.32741200     2.45408300    -0.60495100       adf.R=1.20
      2      C     3.10476900     1.31572900    -0.66464200       adf.R=1.40
      3      C     1.77852600     1.47226700    -0.50473900       adf.R=1.82
      4      C     0.88319400     0.36110400    -0.19882000       adf.R=1.858
      5      O    -0.36519100     0.53028700    -0.05870300       adf.R=1.792
      6      H     3.59391000     0.35111200    -0.56739200       adf.R=1.70
      7      B    -1.20009400     1.92994500    -0.16882600       adf.R=1.80
      8      F    -2.49994300     1.53232800     0.07841200       adf.R=1.75
      9      F    -1.00281500     2.40450000    -1.46031600       adf.R=1.88
     10      F    -0.68224600     2.77005100     0.80985400       adf.R=2.75
     11      C     1.38703100    -1.04023900    -0.01650500       adf.R=2.27
     12      H     2.01398100    -1.08839700     0.88367900       adf.R=1.73
     13      H     2.00918800    -1.34746500    -0.86333800       adf.R=1.967
     14      H     0.54394900    -1.72328300     0.09546000       adf.R=2.10
     15      H     3.74384100     2.16560000    -0.88487300       adf.R=1.80
 
Total System Charge             0.00000
Bonding info available!
 
 
----------------
ADF Engine Input
----------------
 
 Solvation
 Surf Delley
 Solv name=Dichloromethane cav0=0.0 cav1=0.0067639
 Charged method=CONJ
 C-Mat POT
 SCF VAR ALL
 CSMRSP
 End
 

 Title: *** (NO TITLE) ***

 Using automatic Hessian for delocalized coordinates.
 *** GO1_GOStep1 ***

 SOLVATION
-------------------------------------------

  The Delley construction of COSMO surface surface is calculated

       Division Level for Surface Triangles (NDIV)                  3
       Final Division Level for Triangles (NFDIV)                   1
       Radius of the Solvent (RSOL)                           2.94000 angstr
  Dielectric Constant (EPSL)                                  8.90000

       COSMO equation is solved iteratively-               conjugate-gradient

       Maximun of Iterations for Charges (NCIX)                  1000
       Criterion for Charge convergence (CCNV)                1.0E-08

  COSMO charges included variationally in SCF

       COSMO included at every SCF cycle

  Geometry-dependent empirical factor                         0.00000

  C-Matrix calculated in cspmtx

  In cspmtx, C-Matrix calculated using fitted potential

-------------------------------------------



 -------------------------------------------
  COSMO surface
  Area             =          766.117
  Volume           =         1616.323
  Number of Points =         1367
 -------------------------------------------
 cosmo_calcen: 0.5 (esolb+esolc) (Hartrees) =   -0.019526

 Solvation energy (screening term,uncorrected) =    -12.252771 kcal/mol

 Solvation energy (dispersion and cavitation terms) =      1.288046 kcal/mol
 Solvation Energy Contributions (Hartrees)
          esola   esolb+esolc
     0.01952603   -0.03905206
 esol last cycle   -0.01952603
 cosmo_calcen: 0.5 (esolb+esolc) (Hartrees) =   -0.019526

 Solvation energy (screening term,uncorrected) =    -12.252770 kcal/mol

 Solvation energy (dispersion and cavitation terms) =      1.288046 kcal/mol
 Solvation Energy Contributions (Hartrees)
          esola   esolb+esolc
     0.01952603   -0.03905206
 esol last cycle   -0.01952603

 Energy gradients wrt nuclear displacements
 ==========================================

     Atom      Cartesian (a.u./angstrom)
                 X         Y         Z
 ----------------------------------------
     1 H     0.005896 -0.013304  0.001240
     2 C     0.018599  0.002453 -0.005211
     3 C     0.004795  0.023239 -0.003272
     4 C    -0.057331  0.022343  0.003999
     5 O     0.038256 -0.026517 -0.000505
     6 H    -0.004827  0.012291 -0.000498
     7 B    -0.011748  0.030519 -0.009005
     8 F     0.025652  0.008177 -0.004237
     9 F    -0.007613 -0.007755  0.024841
    10 F    -0.012802 -0.012695 -0.014037
    11 C     0.003654 -0.036602  0.004778
    12 H    -0.004343  0.000964 -0.009285
    13 H    -0.003703  0.003322  0.008839
    14 H     0.010162  0.004218 -0.000809
    15 H    -0.004647 -0.010653  0.003162
 ----------------------------------------
 Mulliken charges used for AMS results%charges...
 
----------------------------------------------------------------------
Geometry Convergence after Step   1       (Hartree/Angstrom,Angstrom)
----------------------------------------------------------------------
current energy                               -3.27845415 Hartree
energy change                      -3.27845415     0.00015000    F
constrained gradient max            0.05732446     0.00100000    F
constrained gradient rms            0.01654070     0.00066667    F
gradient max                        0.05732446
gradient rms                        0.01654070
cart. step max                      0.06395295     0.01000000    F
cart. step rms                      0.02177221     0.00666667    F
 
 
--------
Geometry
--------
Formula: C4H6BF3O
Atoms
  Index Symbol   x (angstrom)   y (angstrom)   z (angstrom)
      1      H     1.31623150     2.46441031    -0.56499688       adf.R=1.20
      2      C     3.09138770     1.30987017    -0.63677936       adf.R=1.40
      3      C     1.76972764     1.47309011    -0.48217474       adf.R=1.82
      4      C     0.89260661     0.36068068    -0.18844331       adf.R=1.858
      5      O    -0.36996782     0.53538920    -0.03991010       adf.R=1.792
      6      H     3.57311810     0.33033282    -0.57642310       adf.R=1.70
      7      B    -1.20111264     1.92180837    -0.17616107       adf.R=1.80
      8      F    -2.51285590     1.54464425     0.11387141       adf.R=1.75
      9      F    -1.00627215     2.34054705    -1.50163932       adf.R=1.88
     10      F    -0.62811646     2.79170957     0.76102877       adf.R=2.75
     11      C     1.39812572    -1.02606564    -0.02841698       adf.R=2.27
     12      H     2.03067760    -1.09102977     0.87374043       adf.R=1.73
     13      H     2.00823563    -1.32929024    -0.89250424       adf.R=1.967
     14      H     0.54183535    -1.70253054     0.08127548       adf.R=2.10
     15      H     3.73189113     2.16405568    -0.86816699       adf.R=1.80
 
Total System Charge             0.00000
Bonding info available!
 
 *** GO1_GOStep2 ***

 SOLVATION
-------------------------------------------

  The Delley construction of COSMO surface surface is calculated

       Division Level for Surface Triangles (NDIV)                  3
       Final Division Level for Triangles (NFDIV)                   1
       Radius of the Solvent (RSOL)                           2.94000 angstr
  Dielectric Constant (EPSL)                                  8.90000

       COSMO equation is solved iteratively-               conjugate-gradient

       Maximun of Iterations for Charges (NCIX)                  1000
       Criterion for Charge convergence (CCNV)                1.0E-08

  COSMO charges included variationally in SCF

       COSMO included at every SCF cycle

  Geometry-dependent empirical factor                         0.00000

  C-Matrix calculated in cspmtx

  In cspmtx, C-Matrix calculated using fitted potential

-------------------------------------------



 -------------------------------------------
  COSMO surface
  Area             =          763.637
  Volume           =         1612.093
  Number of Points =         1361
 -------------------------------------------
 cosmo_calcen: 0.5 (esolb+esolc) (Hartrees) =   -0.019804

 Solvation energy (screening term,uncorrected) =    -12.426957 kcal/mol

 Solvation energy (dispersion and cavitation terms) =      1.283877 kcal/mol
 Solvation Energy Contributions (Hartrees)
          esola   esolb+esolc
     0.01980361   -0.03960723
 esol last cycle   -0.01980361
 cosmo_calcen: 0.5 (esolb+esolc) (Hartrees) =   -0.019804

 Solvation energy (screening term,uncorrected) =    -12.426959 kcal/mol

 Solvation energy (dispersion and cavitation terms) =      1.283877 kcal/mol
 Solvation Energy Contributions (Hartrees)
          esola   esolb+esolc
     0.01980362   -0.03960724
 esol last cycle   -0.01980362

 Energy gradients wrt nuclear displacements
 ==========================================

     Atom      Cartesian (a.u./angstrom)
                 X         Y         Z
 ----------------------------------------
     1 H     0.000873 -0.003485  0.000115
     2 C     0.000583  0.000986  0.005692
     3 C     0.008781  0.008202 -0.003417
     4 C    -0.019248  0.005442  0.001249
     5 O     0.014460 -0.012390  0.002414
     6 H    -0.001883  0.002746 -0.002167
     7 B    -0.013936  0.027623 -0.006854
     8 F     0.005494 -0.000669 -0.000730
     9 F     0.000137 -0.004667  0.009508
    10 F    -0.001223 -0.007998 -0.004983
    11 C     0.006795 -0.018641  0.000998
    12 H    -0.001104  0.001393 -0.002752
    13 H    -0.000476  0.001856  0.002566
    14 H     0.002705  0.002957 -0.000619
    15 H    -0.001958 -0.003356 -0.001019
 ----------------------------------------
 Mulliken charges used for AMS results%charges...

 dE(predicted):    -0.17996E-02, dE(actual):    -0.21096E-02, Trust radius:    0.200000, all in a.u.
 
----------------------------------------------------------------------
Geometry Convergence after Step   2       (Hartree/Angstrom,Angstrom)
----------------------------------------------------------------------
current energy                               -3.28056374 Hartree
energy change                      -0.00210959     0.00015000    F
constrained gradient max            0.02760983     0.00100000    F
constrained gradient rms            0.00770931     0.00066667    F
gradient max                        0.02760983
gradient rms                        0.00770931
cart. step max                      0.05148557     0.01000000    F
cart. step rms                      0.01653276     0.00666667    F
 
 
--------
Geometry
--------
Formula: C4H6BF3O
Atoms
  Index Symbol   x (angstrom)   y (angstrom)   z (angstrom)
      1      H     1.30967702     2.46356005    -0.58739025       adf.R=1.20
      2      C     3.08950535     1.30753494    -0.66972042       adf.R=1.40
      3      C     1.76748875     1.46748047    -0.51010392       adf.R=1.82
      4      C     0.90733816     0.35948989    -0.20098684       adf.R=1.858
      5      O    -0.36344091     0.53316158    -0.04353413       adf.R=1.792
      6      H     3.58760326     0.33912458    -0.52493753       adf.R=1.70
      7      B    -1.19010298     1.90305667    -0.16662794       adf.R=1.80
      8      F    -2.51185396     1.53619834     0.13305496       adf.R=1.75
      9      F    -1.00984720     2.32975183    -1.50447666       adf.R=1.88
     10      F    -0.61388340     2.79642318     0.76167495       adf.R=2.75
     11      C     1.39277415    -1.01648334    -0.03478508       adf.R=2.27
     12      H     2.03617408    -1.09072657     0.86429362       adf.R=1.73
     13      H     1.97954467    -1.34579878    -0.91077430       adf.R=1.967
     14      H     0.52021273    -1.67693786     0.09471228       adf.R=2.10
     15      H     3.73432228     2.18178703    -0.82609874       adf.R=1.80
 
Total System Charge             0.00000
Bonding info available!
 
 *** GO1_GOStep3 ***

 SOLVATION
-------------------------------------------

  The Delley construction of COSMO surface surface is calculated

       Division Level for Surface Triangles (NDIV)                  3
       Final Division Level for Triangles (NFDIV)                   1
       Radius of the Solvent (RSOL)                           2.94000 angstr
  Dielectric Constant (EPSL)                                  8.90000

       COSMO equation is solved iteratively-               conjugate-gradient

       Maximun of Iterations for Charges (NCIX)                  1000
       Criterion for Charge convergence (CCNV)                1.0E-08

  COSMO charges included variationally in SCF

       COSMO included at every SCF cycle

  Geometry-dependent empirical factor                         0.00000

  C-Matrix calculated in cspmtx

  In cspmtx, C-Matrix calculated using fitted potential

-------------------------------------------



 -------------------------------------------
  COSMO surface
  Area             =          762.310
  Volume           =         1612.454
  Number of Points =         1363
 -------------------------------------------
 cosmo_calcen: 0.5 (esolb+esolc) (Hartrees) =   -0.020760

 Solvation energy (screening term,uncorrected) =    -13.027369 kcal/mol

 Solvation energy (dispersion and cavitation terms) =      1.281646 kcal/mol
 Solvation Energy Contributions (Hartrees)
          esola   esolb+esolc
     0.02076043   -0.04152087
 esol last cycle   -0.02076043
 cosmo_calcen: 0.5 (esolb+esolc) (Hartrees) =   -0.020760

 Solvation energy (screening term,uncorrected) =    -13.027374 kcal/mol

 Solvation energy (dispersion and cavitation terms) =      1.281646 kcal/mol
 Solvation Energy Contributions (Hartrees)
          esola   esolb+esolc
     0.02076044   -0.04152088
 esol last cycle   -0.02076044

 Energy gradients wrt nuclear displacements
 ==========================================

     Atom      Cartesian (a.u./angstrom)
                 X         Y         Z
 ----------------------------------------
     1 H    -0.001667  0.003204  0.001399
     2 C    -0.009075 -0.003985 -0.017080
     3 C     0.005755 -0.002545  0.001415
     4 C     0.005428 -0.002960  0.001837
     5 O     0.005760 -0.012592  0.000174
     6 H     0.001726 -0.001116  0.007063
     7 B    -0.010559  0.017992 -0.001899
     8 F    -0.004448 -0.002360  0.000709
     9 F     0.002150 -0.001418 -0.000810
    10 F     0.002638  0.000244  0.001261
    11 C     0.002351  0.000607 -0.000570
    12 H     0.000739  0.001148  0.002081
    13 H     0.000332  0.000254 -0.001940
    14 H    -0.002695  0.000425 -0.000282
    15 H     0.001565  0.003103  0.006644
 ----------------------------------------
 Mulliken charges used for AMS results%charges...

 dE(predicted):    -0.82894E-03, dE(actual):    -0.28641E-03, Trust radius:    0.200000, all in a.u.
 
----------------------------------------------------------------------
Geometry Convergence after Step   3       (Hartree/Angstrom,Angstrom)
----------------------------------------------------------------------
current energy                               -3.28085015 Hartree
energy change                      -0.00028641     0.00015000    F
constrained gradient max            0.01796215     0.00100000    F
constrained gradient rms            0.00536349     0.00066667    F
gradient max                        0.01796215
gradient rms                        0.00536349
cart. step max                      0.05262985     0.01000000    F
cart. step rms                      0.01546437     0.00666667    F
 
 
--------
Geometry
--------
Formula: C4H6BF3O
Atoms
  Index Symbol   x (angstrom)   y (angstrom)   z (angstrom)
      1      H     1.31112202     2.46594491    -0.57784159       adf.R=1.20
      2      C     3.10096186     1.32079466    -0.63456314       adf.R=1.40
      3      C     1.77406215     1.47190317    -0.48395701       adf.R=1.82
      4      C     0.91738874     0.36196810    -0.19563137       adf.R=1.858
      5      O    -0.35852710     0.53030421    -0.05407469       adf.R=1.792
      6      H     3.59834354     0.34176432    -0.56488361       adf.R=1.70
      7      B    -1.17789507     1.88507709    -0.16695135       adf.R=1.80
      8      F    -2.50732345     1.52082430     0.11290333       adf.R=1.75
      9      F    -0.99822233     2.34224888    -1.50165768       adf.R=1.88
     10      F    -0.62969755     2.78944388     0.77501689       adf.R=2.75
     11      C     1.38337382    -1.01137064    -0.02747425       adf.R=2.27
     12      H     2.01582869    -1.10261168     0.87961814       adf.R=1.73
     13      H     1.97309570    -1.35118588    -0.89945217       adf.R=1.967
     14      H     0.50156555    -1.66509462     0.09197709       adf.R=2.10
     15      H     3.73143542     2.18761132    -0.87872859       adf.R=1.80
 
Total System Charge             0.00000
Bonding info available!
 
 *** GO1_GOStep4 ***

 SOLVATION
-------------------------------------------

  The Delley construction of COSMO surface surface is calculated

       Division Level for Surface Triangles (NDIV)                  3
       Final Division Level for Triangles (NFDIV)                   1
       Radius of the Solvent (RSOL)                           2.94000 angstr
  Dielectric Constant (EPSL)                                  8.90000

       COSMO equation is solved iteratively-               conjugate-gradient

       Maximun of Iterations for Charges (NCIX)                  1000
       Criterion for Charge convergence (CCNV)                1.0E-08

  COSMO charges included variationally in SCF

       COSMO included at every SCF cycle

  Geometry-dependent empirical factor                         0.00000

  C-Matrix calculated in cspmtx

  In cspmtx, C-Matrix calculated using fitted potential

-------------------------------------------



 -------------------------------------------
  COSMO surface
  Area             =          764.148
  Volume           =         1615.808
  Number of Points =         1369
 -------------------------------------------
 cosmo_calcen: 0.5 (esolb+esolc) (Hartrees) =   -0.021686

 Solvation energy (screening term,uncorrected) =    -13.608367 kcal/mol

 Solvation energy (dispersion and cavitation terms) =      1.284736 kcal/mol
 Solvation Energy Contributions (Hartrees)
          esola   esolb+esolc
     0.02168631   -0.04337262
 esol last cycle   -0.02168631
 cosmo_calcen: 0.5 (esolb+esolc) (Hartrees) =   -0.021686

 Solvation energy (screening term,uncorrected) =    -13.608352 kcal/mol

 Solvation energy (dispersion and cavitation terms) =      1.284736 kcal/mol
 Solvation Energy Contributions (Hartrees)
          esola   esolb+esolc
     0.02168629   -0.04337257
 esol last cycle   -0.02168629

 Energy gradients wrt nuclear displacements
 ==========================================

     Atom      Cartesian (a.u./angstrom)
                 X         Y         Z
 ----------------------------------------
     1 H    -0.002468  0.004634 -0.000638
     2 C    -0.003961  0.000180  0.007291
     3 C    -0.001582 -0.006969  0.000581
     4 C     0.012430 -0.005218 -0.002735
     5 O     0.004996 -0.015105  0.000847
     6 H     0.002256 -0.004458 -0.001738
     7 B    -0.004977  0.008239  0.000629
     8 F    -0.005221 -0.000960  0.000405
     9 F     0.000705  0.001434 -0.004553
    10 F     0.001695  0.004798  0.003560
    11 C    -0.002585  0.011836 -0.000736
    12 H     0.000663 -0.000097  0.003818
    13 H     0.000293 -0.000439 -0.003499
    14 H    -0.004292 -0.001584  0.000198
    15 H     0.002047  0.003709 -0.003430
 ----------------------------------------
 Mulliken charges used for AMS results%charges...

 dE(predicted):    -0.80300E-03, dE(actual):    -0.54916E-03, Trust radius:    0.200000, all in a.u.
 
----------------------------------------------------------------------
Geometry Convergence after Step   4       (Hartree/Angstrom,Angstrom)
----------------------------------------------------------------------
current energy                               -3.28139931 Hartree
energy change                      -0.00054916     0.00015000    F
constrained gradient max            0.01511511     0.00100000    F
constrained gradient rms            0.00477952     0.00066667    F
gradient max                        0.01511511
gradient rms                        0.00477952
cart. step max                      0.02599432     0.01000000    F
cart. step rms                      0.00950903     0.00666667    F
 
 
--------
Geometry
--------
Formula: C4H6BF3O
Atoms
  Index Symbol   x (angstrom)   y (angstrom)   z (angstrom)
      1      H     1.31236433     2.46794417    -0.56539033       adf.R=1.20
      2      C     3.09520148     1.31830054    -0.63569877       adf.R=1.40
      3      C     1.76955670     1.47421776    -0.47888780       adf.R=1.82
      4      C     0.90716302     0.36465372    -0.18830124       adf.R=1.858
      5      O    -0.36536270     0.53762688    -0.04392905       adf.R=1.792
      6      H     3.58687930     0.33982705    -0.56505194       adf.R=1.70
      7      B    -1.17807196     1.88852935    -0.17375608       adf.R=1.80
      8      F    -2.50091401     1.53157573     0.12816070       adf.R=1.75
      9      F    -1.01123908     2.32355895    -1.51359577       adf.R=1.88
     10      F    -0.61422973     2.79676259     0.74902257       adf.R=2.75
     11      C     1.38503459    -1.01367695    -0.03163081       adf.R=2.27
     12      H     2.02649886    -1.10371791     0.86639611       adf.R=1.73
     13      H     1.97542802    -1.34222768    -0.90491147       adf.R=1.967
     14      H     0.51522415    -1.67826258     0.09023564       adf.R=2.10
     15      H     3.73197905     2.18251041    -0.85836177       adf.R=1.80
 
Total System Charge             0.00000
Bonding info available!
 
 *** GO1_GOStep5 ***

 SOLVATION
-------------------------------------------

  The Delley construction of COSMO surface surface is calculated

       Division Level for Surface Triangles (NDIV)                  3
       Final Division Level for Triangles (NFDIV)                   1
       Radius of the Solvent (RSOL)                           2.94000 angstr
  Dielectric Constant (EPSL)                                  8.90000

       COSMO equation is solved iteratively-               conjugate-gradient

       Maximun of Iterations for Charges (NCIX)                  1000
       Criterion for Charge convergence (CCNV)                1.0E-08

  COSMO charges included variationally in SCF

       COSMO included at every SCF cycle

  Geometry-dependent empirical factor                         0.00000

  C-Matrix calculated in cspmtx

  In cspmtx, C-Matrix calculated using fitted potential

-------------------------------------------



 -------------------------------------------
  COSMO surface
  Area             =          762.848
  Volume           =         1611.964
  Number of Points =         1362
 -------------------------------------------
 cosmo_calcen: 0.5 (esolb+esolc) (Hartrees) =   -0.021546

 Solvation energy (screening term,uncorrected) =    -13.520568 kcal/mol

 Solvation energy (dispersion and cavitation terms) =      1.282550 kcal/mol
 Solvation Energy Contributions (Hartrees)
          esola   esolb+esolc
     0.02154639   -0.04309279
 esol last cycle   -0.02154639
 cosmo_calcen: 0.5 (esolb+esolc) (Hartrees) =   -0.021546

 Solvation energy (screening term,uncorrected) =    -13.520565 kcal/mol

 Solvation energy (dispersion and cavitation terms) =      1.282550 kcal/mol
 Solvation Energy Contributions (Hartrees)
          esola   esolb+esolc
     0.02154639   -0.04309278
 esol last cycle   -0.02154639

 Energy gradients wrt nuclear displacements
 ==========================================

     Atom      Cartesian (a.u./angstrom)
                 X         Y         Z
 ----------------------------------------
     1 H    -0.000810  0.001150 -0.000605
     2 C    -0.000581  0.000236  0.002668
     3 C    -0.001180 -0.001902  0.000379
     4 C     0.002845 -0.000789  0.000492
     5 O     0.003346 -0.008813  0.001747
     6 H     0.000582 -0.001284 -0.000953
     7 B    -0.005007  0.009752 -0.001112
     8 F    -0.000137 -0.000532  0.000121
     9 F     0.000291  0.000277 -0.001096
    10 F     0.000419 -0.000412  0.000121
    11 C     0.000252  0.002886 -0.001332
    12 H     0.000037 -0.000223  0.000998
    13 H     0.000233 -0.000504 -0.000698
    14 H    -0.001030 -0.000722  0.000036
    15 H     0.000740  0.000880 -0.000767
 ----------------------------------------
 Mulliken charges used for AMS results%charges...

 dE(predicted):    -0.25451E-03, dE(actual):    -0.30737E-03, Trust radius:    0.200000, all in a.u.
 
----------------------------------------------------------------------
Geometry Convergence after Step   5       (Hartree/Angstrom,Angstrom)
----------------------------------------------------------------------
current energy                               -3.28170668 Hartree
energy change                      -0.00030737     0.00015000    F
constrained gradient max            0.00971820     0.00100000    F
constrained gradient rms            0.00239254     0.00066667    F
gradient max                        0.00971820
gradient rms                        0.00239254
cart. step max                      0.01827378     0.01000000    F
cart. step rms                      0.00813963     0.00666667    F
 
 
--------
Geometry
--------
Formula: C4H6BF3O
Atoms
  Index Symbol   x (angstrom)   y (angstrom)   z (angstrom)
      1      H     1.32078934     2.47051279    -0.57818313       adf.R=1.20
      2      C     3.09707404     1.31363598    -0.64173891       adf.R=1.40
      3      C     1.77135278     1.47524565    -0.49295690       adf.R=1.82
      4      C     0.90396599     0.36898086    -0.20140502       adf.R=1.858
      5      O    -0.36822048     0.54370810    -0.05692738       adf.R=1.792
      6      H     3.58498617     0.33651111    -0.54908854       adf.R=1.70
      7      B    -1.17871824     1.88178806    -0.16895415       adf.R=1.80
      8      F    -2.50246441     1.52025931     0.12254703       adf.R=1.75
      9      F    -1.01024669     2.33861981    -1.50128911       adf.R=1.88
     10      F    -0.62337215     2.78154414     0.76729635       adf.R=2.75
     11      C     1.38308055    -1.00866075    -0.03059887       adf.R=2.27
     12      H     2.02836811    -1.08903555     0.86452599       adf.R=1.73
     13      H     1.97314178    -1.34502428    -0.90024365       adf.R=1.967
     14      H     0.51675200    -1.67421605     0.10023456       adf.R=2.10
     15      H     3.73902322     2.17375281    -0.85891827       adf.R=1.80
 
Total System Charge             0.00000
Bonding info available!
 
 *** GO1_GOStep6 ***

 SOLVATION
-------------------------------------------

  The Delley construction of COSMO surface surface is calculated

       Division Level for Surface Triangles (NDIV)                  3
       Final Division Level for Triangles (NFDIV)                   1
       Radius of the Solvent (RSOL)                           2.94000 angstr
  Dielectric Constant (EPSL)                                  8.90000

       COSMO equation is solved iteratively-               conjugate-gradient

       Maximun of Iterations for Charges (NCIX)                  1000
       Criterion for Charge convergence (CCNV)                1.0E-08

  COSMO charges included variationally in SCF

       COSMO included at every SCF cycle

  Geometry-dependent empirical factor                         0.00000

  C-Matrix calculated in cspmtx

  In cspmtx, C-Matrix calculated using fitted potential

-------------------------------------------



 -------------------------------------------
  COSMO surface
  Area             =          763.335
  Volume           =         1613.224
  Number of Points =         1364
 -------------------------------------------
 cosmo_calcen: 0.5 (esolb+esolc) (Hartrees) =   -0.021885

 Solvation energy (screening term,uncorrected) =    -13.732960 kcal/mol

 Solvation energy (dispersion and cavitation terms) =      1.283369 kcal/mol
 Solvation Energy Contributions (Hartrees)
          esola   esolb+esolc
     0.02188486   -0.04376972
 esol last cycle   -0.02188486
 cosmo_calcen: 0.5 (esolb+esolc) (Hartrees) =   -0.021885

 Solvation energy (screening term,uncorrected) =    -13.732961 kcal/mol

 Solvation energy (dispersion and cavitation terms) =      1.283369 kcal/mol
 Solvation Energy Contributions (Hartrees)
          esola   esolb+esolc
     0.02188486   -0.04376973
 esol last cycle   -0.02188486

 Energy gradients wrt nuclear displacements
 ==========================================

     Atom      Cartesian (a.u./angstrom)
                 X         Y         Z
 ----------------------------------------
     1 H     0.000573 -0.000194  0.000746
     2 C     0.000153  0.000103 -0.000297
     3 C    -0.000099 -0.000494 -0.000253
     4 C     0.000644  0.000380 -0.001912
     5 O    -0.000156 -0.003716  0.000742
     6 H    -0.000057  0.000203  0.000657
     7 B    -0.003281  0.005842  0.000014
     8 F     0.001411 -0.000244 -0.000308
     9 F     0.000401 -0.000657  0.000644
    10 F    -0.000315 -0.001030 -0.000655
    11 C     0.000442  0.001221  0.000349
    12 H    -0.000065 -0.000574 -0.000189
    13 H     0.000110 -0.000182  0.000336
    14 H     0.000228 -0.000319 -0.000007
    15 H     0.000011 -0.000338  0.000134
 ----------------------------------------
 Mulliken charges used for AMS results%charges...

 dE(predicted):    -0.10349E-03, dE(actual):    -0.14760E-03, Trust radius:    0.200000, all in a.u.
 
----------------------------------------------------------------------
Geometry Convergence after Step   6       (Hartree/Angstrom,Angstrom)
----------------------------------------------------------------------
current energy                               -3.28185427 Hartree
energy change                      -0.00014760     0.00015000    T
constrained gradient max            0.00580896     0.00100000    F
constrained gradient rms            0.00126955     0.00066667    F
gradient max                        0.00580896
gradient rms                        0.00126955
cart. step max                      0.01526598     0.01000000    F
cart. step rms                      0.00615117     0.00666667    T
 
 
--------
Geometry
--------
Formula: C4H6BF3O
Atoms
  Index Symbol   x (angstrom)   y (angstrom)   z (angstrom)
      1      H     1.32248054     2.47331227    -0.57129738       adf.R=1.20
      2      C     3.09804406     1.31609001    -0.64184231       adf.R=1.40
      3      C     1.77354625     1.47873969    -0.48263799       adf.R=1.82
      4      C     0.90715938     0.37305065    -0.18864916       adf.R=1.858
      5      O    -0.36531131     0.54926084    -0.05027952       adf.R=1.792
      6      H     3.58482614     0.33775204    -0.55897471       adf.R=1.70
      7      B    -1.17310423     1.87176478    -0.17172375       adf.R=1.80
      8      F    -2.49903764     1.51682393     0.12460873       adf.R=1.75
      9      F    -1.01182570     2.32335383    -1.50871440       adf.R=1.88
     10      F    -0.62104251     2.78667870     0.75425029       adf.R=2.75
     11      C     1.37882809    -1.00783366    -0.03075214       adf.R=2.27
     12      H     2.03064842    -1.09803007     0.85855270       adf.R=1.73
     13      H     1.96062703    -1.34170482    -0.90697858       adf.R=1.967
     14      H     0.50974829    -1.66913374     0.10161523       adf.R=2.10
     15      H     3.73992520     2.17749754    -0.85287700       adf.R=1.80
 
Total System Charge             0.00000
Bonding info available!
 
 *** GO1_GOStep7 ***

 SOLVATION
-------------------------------------------

  The Delley construction of COSMO surface surface is calculated

       Division Level for Surface Triangles (NDIV)                  3
       Final Division Level for Triangles (NFDIV)                   1
       Radius of the Solvent (RSOL)                           2.94000 angstr
  Dielectric Constant (EPSL)                                  8.90000

       COSMO equation is solved iteratively-               conjugate-gradient

       Maximun of Iterations for Charges (NCIX)                  1000
       Criterion for Charge convergence (CCNV)                1.0E-08

  COSMO charges included variationally in SCF

       COSMO included at every SCF cycle

  Geometry-dependent empirical factor                         0.00000

  C-Matrix calculated in cspmtx

  In cspmtx, C-Matrix calculated using fitted potential

-------------------------------------------



 -------------------------------------------
  COSMO surface
  Area             =          762.756
  Volume           =         1611.756
  Number of Points =         1364
 -------------------------------------------
 cosmo_calcen: 0.5 (esolb+esolc) (Hartrees) =   -0.022281

 Solvation energy (screening term,uncorrected) =    -13.981368 kcal/mol

 Solvation energy (dispersion and cavitation terms) =      1.282396 kcal/mol
 Solvation Energy Contributions (Hartrees)
          esola   esolb+esolc
     0.02228073   -0.04456145
 esol last cycle   -0.02228073
 cosmo_calcen: 0.5 (esolb+esolc) (Hartrees) =   -0.022281

 Solvation energy (screening term,uncorrected) =    -13.981371 kcal/mol

 Solvation energy (dispersion and cavitation terms) =      1.282396 kcal/mol
 Solvation Energy Contributions (Hartrees)
          esola   esolb+esolc
     0.02228073   -0.04456146
 esol last cycle   -0.02228073

 Energy gradients wrt nuclear displacements
 ==========================================

     Atom      Cartesian (a.u./angstrom)
                 X         Y         Z
 ----------------------------------------
     1 H     0.000591 -0.000488 -0.000508
     2 C     0.000329  0.000101 -0.001563
     3 C    -0.000699 -0.000079  0.000302
     4 C     0.000789  0.000833  0.002583
     5 O    -0.001142  0.000577 -0.000426
     6 H    -0.000267  0.000380  0.000264
     7 B     0.000174 -0.000202  0.000134
     8 F     0.000938  0.000156 -0.000260
     9 F     0.000137  0.000023  0.000367
    10 F    -0.000252 -0.000895 -0.000830
    11 C    -0.000674  0.000888 -0.001398
    12 H    -0.000257 -0.000227 -0.000221
    13 H     0.000056 -0.000405  0.000455
    14 H     0.000377 -0.000304 -0.000050
    15 H    -0.000101 -0.000359  0.001153
 ----------------------------------------
 Mulliken charges used for AMS results%charges...

 dE(predicted):    -0.54685E-04, dE(actual):    -0.28417E-04, Trust radius:    0.200000, all in a.u.
 
----------------------------------------------------------------------
Geometry Convergence after Step   7       (Hartree/Angstrom,Angstrom)
----------------------------------------------------------------------
current energy                               -3.28188269 Hartree
energy change                      -0.00002842     0.00015000    T
constrained gradient max            0.00259775     0.00100000    F
constrained gradient rms            0.00070130     0.00066667    F
gradient max                        0.00259775
gradient rms                        0.00070130
cart. step max                      0.00705563     0.01000000    T
cart. step rms                      0.00200648     0.00666667    T
 
 
--------
Geometry
--------
Formula: C4H6BF3O
Atoms
  Index Symbol   x (angstrom)   y (angstrom)   z (angstrom)
      1      H     1.32141604     2.47289026    -0.56762235       adf.R=1.20
      2      C     3.09880017     1.31692445    -0.63862810       adf.R=1.40
      3      C     1.77355673     1.47800575    -0.48366799       adf.R=1.82
      4      C     0.90689916     0.37082362    -0.19570479       adf.R=1.858
      5      O    -0.36478196     0.54843269    -0.05341462       adf.R=1.792
      6      H     3.58659908     0.33871754    -0.55675412       adf.R=1.70
      7      B    -1.17307514     1.87246359    -0.17188834       adf.R=1.80
      8      F    -2.49870485     1.51815121     0.12832658       adf.R=1.75
      9      F    -1.01613489     2.32439035    -1.50947678       adf.R=1.88
     10      F    -0.61812721     2.78743976     0.75293793       adf.R=2.75
     11      C     1.37911215    -1.00925418    -0.03137001       adf.R=2.27
     12      H     2.03006755    -1.09511156     0.85918440       adf.R=1.73
     13      H     1.96131585    -1.34564091    -0.90652277       adf.R=1.967
     14      H     0.50912531    -1.66924646     0.10254924       adf.R=2.10
     15      H     3.73944401     2.17863590    -0.85364829       adf.R=1.80
 
Total System Charge             0.00000
Bonding info available!
 
 *** GO1_GOStep8 ***

 SOLVATION
-------------------------------------------

  The Delley construction of COSMO surface surface is calculated

       Division Level for Surface Triangles (NDIV)                  3
       Final Division Level for Triangles (NFDIV)                   1
       Radius of the Solvent (RSOL)                           2.94000 angstr
  Dielectric Constant (EPSL)                                  8.90000

       COSMO equation is solved iteratively-               conjugate-gradient

       Maximun of Iterations for Charges (NCIX)                  1000
       Criterion for Charge convergence (CCNV)                1.0E-08

  COSMO charges included variationally in SCF

       COSMO included at every SCF cycle

  Geometry-dependent empirical factor                         0.00000

  C-Matrix calculated in cspmtx

  In cspmtx, C-Matrix calculated using fitted potential

-------------------------------------------



 -------------------------------------------
  COSMO surface
  Area             =          763.101
  Volume           =         1612.552
  Number of Points =         1367
 -------------------------------------------
 cosmo_calcen: 0.5 (esolb+esolc) (Hartrees) =   -0.022264

 Solvation energy (screening term,uncorrected) =    -13.971128 kcal/mol

 Solvation energy (dispersion and cavitation terms) =      1.282977 kcal/mol
 Solvation Energy Contributions (Hartrees)
          esola   esolb+esolc
     0.02226441   -0.04452881
 esol last cycle   -0.02226441
 cosmo_calcen: 0.5 (esolb+esolc) (Hartrees) =   -0.022264

 Solvation energy (screening term,uncorrected) =    -13.971130 kcal/mol

 Solvation energy (dispersion and cavitation terms) =      1.282977 kcal/mol
 Solvation Energy Contributions (Hartrees)
          esola   esolb+esolc
     0.02226441   -0.04452882
 esol last cycle   -0.02226441

 Energy gradients wrt nuclear displacements
 ==========================================

     Atom      Cartesian (a.u./angstrom)
                 X         Y         Z
 ----------------------------------------
     1 H     0.000294 -0.000104  0.000003
     2 C     0.000342  0.000116 -0.000090
     3 C    -0.000735 -0.000061  0.000548
     4 C     0.000170 -0.000199 -0.000874
     5 O    -0.000125  0.000221  0.000440
     6 H    -0.000072  0.000120  0.000231
     7 B     0.000255 -0.000072  0.000200
     8 F     0.000315  0.000189 -0.000235
     9 F     0.000059  0.000179 -0.000033
    10 F    -0.000144 -0.000350 -0.000451
    11 C    -0.000299  0.000665 -0.000102
    12 H    -0.000108 -0.000275  0.000008
    13 H     0.000015 -0.000120  0.000176
    14 H     0.000083 -0.000126 -0.000041
    15 H    -0.000051 -0.000184  0.000221
 ----------------------------------------
 Mulliken charges used for AMS results%charges...

 dE(predicted):    -0.14752E-04, dE(actual):    -0.15649E-04, Trust radius:    0.200000, all in a.u.
 
---------------------------------------------------------
Geometry Convergence after Step   8       ** CONVERGED **
---------------------------------------------------------
current energy                               -3.28189834 Hartree
energy change                      -0.00001565     0.00015000    T
constrained gradient max            0.00086023     0.00100000    T
constrained gradient rms            0.00028055     0.00066667    T
gradient max                        0.00086023
gradient rms                        0.00028055
cart. step max                      0.00909768     0.01000000    T
cart. step rms                      0.00296310     0.00666667    T
 
Geometry optimization converged

Optimized geometry:
 
--------
Geometry
--------
Formula: C4H6BF3O
Atoms
  Index Symbol   x (angstrom)   y (angstrom)   z (angstrom)
      1      H     1.32141604     2.47289026    -0.56762235       adf.R=1.20
      2      C     3.09880017     1.31692445    -0.63862810       adf.R=1.40
      3      C     1.77355673     1.47800575    -0.48366799       adf.R=1.82
      4      C     0.90689916     0.37082362    -0.19570479       adf.R=1.858
      5      O    -0.36478196     0.54843269    -0.05341462       adf.R=1.792
      6      H     3.58659908     0.33871754    -0.55675412       adf.R=1.70
      7      B    -1.17307514     1.87246359    -0.17188834       adf.R=1.80
      8      F    -2.49870485     1.51815121     0.12832658       adf.R=1.75
      9      F    -1.01613489     2.32439035    -1.50947678       adf.R=1.88
     10      F    -0.61812721     2.78743976     0.75293793       adf.R=2.75
     11      C     1.37911215    -1.00925418    -0.03137001       adf.R=2.27
     12      H     2.03006755    -1.09511156     0.85918440       adf.R=1.73
     13      H     1.96131585    -1.34564091    -0.90652277       adf.R=1.967
     14      H     0.50912531    -1.66924646     0.10254924       adf.R=2.10
     15      H     3.73944401     2.17863590    -0.85364829       adf.R=1.80
 
Total System Charge             0.00000
Bonding info available!
 
Performing a single point calculation on the final geometry ...

 *** adf ***



 ===========================
 A T T A C H E D   F I L E S
 ===========================
  
 RestartZ:/SCMTMP/amstmp_ams_kid0.1610954457/GO1_GOStep8.rkf*** GO1_GOStep8 ***



 ===============================
 M O D E L   P A R A M E T E R S
 ===============================
  
 DENSITY FUNCTIONAL POTENTIAL (scf)
    LDA:                               VWN                                      
    Gradient Corrections:              ---                                      

 SPIN  (restricted / unrestr.)
    Molecule:                          Restricted                               
    Fragments:                         Restricted                               

 OTHER ASPECTS
    Relativistic Corrections:          scalar (ZORA,MAPA)                       

    Nuclear Charge Density Model:      Point Charge Nuclei                      
    Core Treatment:                    Frozen Orbital(s)                        

    Hyperfine or Zeeman Interaction:   ---                                      

 SOLVATION
-------------------------------------------

  The Delley construction of COSMO surface surface is calculated

       Division Level for Surface Triangles (NDIV)                  3
       Final Division Level for Triangles (NFDIV)                   1
       Radius of the Solvent (RSOL)                           2.94000 angstr
  Dielectric Constant (EPSL)                                  8.90000

       COSMO equation is solved iteratively-               conjugate-gradient

       Maximun of Iterations for Charges (NCIX)                  1000
       Criterion for Charge convergence (CCNV)                1.0E-08

  COSMO charges included variationally in SCF

       COSMO included at every SCF cycle

  Geometry-dependent empirical factor                         0.00000

  C-Matrix calculated in cspmtx

  In cspmtx, C-Matrix calculated using fitted potential

-------------------------------------------




 ===============
 G E O M E T R Y  ***  3D  Molecule  ***
 ===============
  

 ATOMS
 =====                            X Y Z                    CHARGE                     RADIUS
                                (Angstrom)             Nucl     +Core       At.Mass (Angstrom)
                       --------------------------    ----------------       ------- ----------
    1  H               1.3214    2.4729   -0.5676      1.00      1.00        1.0078    1.2000
    2  C               3.0988    1.3169   -0.6386      6.00      4.00       12.0000    1.4000
    3  C               1.7736    1.4780   -0.4837      6.00      4.00       12.0000    1.8200
    4  C               0.9069    0.3708   -0.1957      6.00      4.00       12.0000    1.8580
    5  O              -0.3648    0.5484   -0.0534      8.00      6.00       15.9949    1.7920
    6  H               3.5866    0.3387   -0.5568      1.00      1.00        1.0078    1.7000
    7  B              -1.1731    1.8725   -0.1719      5.00      3.00       11.0093    1.8000
    8  F              -2.4987    1.5182    0.1283      9.00      7.00       18.9984    1.7500
    9  F              -1.0161    2.3244   -1.5095      9.00      7.00       18.9984    1.8800
   10  F              -0.6181    2.7874    0.7529      9.00      7.00       18.9984    2.7500
   11  C               1.3791   -1.0093   -0.0314      6.00      4.00       12.0000    2.2700
   12  H               2.0301   -1.0951    0.8592      1.00      1.00        1.0078    1.7300
   13  H               1.9613   -1.3456   -0.9065      1.00      1.00        1.0078    1.9670
   14  H               0.5091   -1.6692    0.1025      1.00      1.00        1.0078    2.1000
   15  H               3.7394    2.1786   -0.8536      1.00      1.00        1.0078    1.8000


 FRAGMENTS
 =========                                     Atoms in this Fragment     Cart. coord.s (Angstrom)
                                               -------------------------------------------------------
    1  H-1                                               1  H            1.3214    2.4729   -0.5676
    2  C-1                                               2  C            3.0988    1.3169   -0.6386
    3  C-2                                               3  C            1.7736    1.4780   -0.4837
    4  C-3                                               4  C            0.9069    0.3708   -0.1957
    5  O                                                 5  O           -0.3648    0.5484   -0.0534
    6  H-2                                               6  H            3.5866    0.3387   -0.5568
    7  B                                                 7  B           -1.1731    1.8725   -0.1719
    8  F-1                                               8  F           -2.4987    1.5182    0.1283
    9  F-2                                               9  F           -1.0161    2.3244   -1.5095
   10  F-3                                              10  F           -0.6181    2.7874    0.7529
   11  C-4                                              11  C            1.3791   -1.0093   -0.0314
   12  H-3                                              12  H            2.0301   -1.0951    0.8592
   13  H-4                                              13  H            1.9613   -1.3456   -0.9065
   14  H-5                                              14  H            0.5091   -1.6692    0.1025
   15  H-6                                              15  H            3.7394    2.1786   -0.8536


 Interatomic Distance Matrix (Angstrom)
 --------------------------------------

   1)     0.000
   2)     2.121   0.000
   3)     1.096   1.344   0.000
   4)     2.175   2.428   1.435   0.000
   5)     2.610   3.596   2.371   1.292   0.000
   6)     3.112   1.096   2.143   2.704   3.989   0.000
   7)     2.596   4.333   2.989   2.565   1.556   5.015   0.000
   8)     3.999   5.653   4.316   3.608   2.351   6.236   1.405   0.000
   9)     2.525   4.325   3.090   3.040   2.387   5.103   1.421   2.352   0.000
  10)     2.367   4.233   2.994   3.011   2.393   5.039   1.414   2.353   2.343   0.000
  11)     3.524   2.956   2.559   1.468   2.338   2.639   3.852   4.631   4.363   4.361
          0.000
  12)     3.908   3.034   2.914   2.127   3.045   2.546   4.487   5.279   5.156   4.701
          1.106   0.000
  13)     3.887   2.908   2.861   2.136   3.119   2.367   4.552   5.400   4.764   5.147
          1.104   1.785   0.000
  14)     4.274   4.022   3.442   2.100   2.389   3.733   3.930   4.383   4.569   4.643
          1.100   1.793   1.798   0.000
  15)     2.453   1.095   2.120   3.424   4.488   1.870   4.969   6.349   4.803   4.684
          4.051   4.071   3.948   5.114   0.000

 Min. Distance =    1.0951
 Max. Distance =    6.3494



 =====================================
 S Y M M E T R Y ,   E L E C T R O N S
 =====================================
  
 Symmetry: NOSYM

 Irreducible Representations, including subspecies
 -------------------------------------------------
 A


 Configuration of Valence Electrons
 ==================================
 ( determined in the SCF procedure )

 Total:   52

 Net Charge: 0 (Nuclei minus Electrons)

 Aufbau principle for MO occupations will be applied through SCF cycle no.     150
 Thereafter, the program will assign electrons to MOs that are spatially
 similar to the occupied MOs in a "reference" cycle ("KeepOrbitals").
 The reference cycle is always the PREVIOUS cycle: it will evolve with
 the SCF procedure.
1
 ***************************************************************************************************



                                      ****************************************
                                      *  B U I L D : (Fragments, Functions)  *
                                      ****************************************
  



 =======
 S F O s  ***  (Symmetrized Fragment Orbitals)  ***
 =======
  
 SFOs are linear combinations of (valence) Fragment Orbitals (FOs), such that the SFOs transform as the
 irreducible representations of the (molecular) symmetry group. Each SFO is therefore characterized by
 an irrep of the molecule and by a few (or only one) generating FOs.
 The SFOs constitute a symmetry-adapted basis for the Fock matrix. The MO eigenvector coefficients in
 this basis provide a direct interpretation of the MOs in terms of Frontier Orbital Theory.

 The SFOs are combined with auxiliary Core Functions (CFs) to ensure orthogonalization on the (frozen)
 Core Orbitals (COs). The Core-orthogonalized SFOs (CSFOs) constitute the true Fock basis.

 The FOs, and hence also the (C)SFOs are combinations of the elementary basis functions (BAS). The basis
 functions that participate in the description of the SFOs depend on the irrep. The indices of the
 involved functions are printed below for each irrep.
 (The complete list of primitive basis functions is printed in another section)

 Total nr. of (C)SFOs (summation over all irreps) :    84

 NOTE: a (C)SFO that is defined as a combination of more than one FO is usually NOT normalized.



                                       === A ===
 Nr. of SFOs :   84
 Cartesian basis functions that participate in this irrep (total number =    93) :
      3    12    21    30    41    50    59    68    77     1
      2     4     5     6     9     7    10     8    11    13
     14    15    18    16    19    17    20    22    23    24
     27    25    28    26    29    31    32    33    36    34
     37    35    38    39    40    42    43    44    47    45
     48    46    49    51    52    53    56    54    57    55
     58    60    61    62    65    63    66    64    67    69
     70    71    74    72    75    73    76    78    79    80
     83    81    84    82    85    86    87    88    89    90
     91    92    93

    SFO  (index         Fragment          Generating    Expansion in Fragment Orbitals
  indx  incl.CFs)   Occup   Orb.Energy   FragmentType  Coeff.   Orbital     on Fragment
 --------------------------------------------------------------------------------------
     1      10      1.000      -0.234 au  H-1           1.00      1 S               1
                        (      -6.379 eV)
     2      11       --         0.403 au  H-1           1.00      2 S               1
                        (      10.963 eV)
     3      12      2.000      -0.508 au  C-1           1.00      1 S               2
                        (     -13.825 eV)
     4      13       --         0.468 au  C-1           1.00      2 S               2
                        (      12.744 eV)
     5      14      0.667      -0.206 au  C-1           1.00      1 P:x             2
                        (      -5.593 eV)
     6      15       --         0.432 au  C-1           1.00      2 P:x             2
                        (      11.759 eV)
     7      16      0.667      -0.206 au  C-1           1.00      1 P:y             2
                        (      -5.593 eV)
     8      17       --         0.432 au  C-1           1.00      2 P:y             2
                        (      11.759 eV)
     9      18      0.667      -0.206 au  C-1           1.00      1 P:z             2
                        (      -5.593 eV)
    10      19       --         0.432 au  C-1           1.00      2 P:z             2
                        (      11.759 eV)
    11      20      2.000      -0.508 au  C-2           1.00      1 S               3
                        (     -13.825 eV)
    12      21       --         0.468 au  C-2           1.00      2 S               3
                        (      12.744 eV)
    13      22      0.667      -0.206 au  C-2           1.00      1 P:x             3
                        (      -5.593 eV)
    14      23       --         0.432 au  C-2           1.00      2 P:x             3
                        (      11.759 eV)
    15      24      0.667      -0.206 au  C-2           1.00      1 P:y             3
                        (      -5.593 eV)
    16      25       --         0.432 au  C-2           1.00      2 P:y             3
                        (      11.759 eV)
    17      26      0.667      -0.206 au  C-2           1.00      1 P:z             3
                        (      -5.593 eV)
    18      27       --         0.432 au  C-2           1.00      2 P:z             3
                        (      11.759 eV)
    19      28      2.000      -0.508 au  C-3           1.00      1 S               4
                        (     -13.825 eV)
    20      29       --         0.468 au  C-3           1.00      2 S               4
                        (      12.744 eV)
    21      30      0.667      -0.206 au  C-3           1.00      1 P:x             4
                        (      -5.593 eV)
    22      31       --         0.432 au  C-3           1.00      2 P:x             4
                        (      11.759 eV)
    23      32      0.667      -0.206 au  C-3           1.00      1 P:y             4
                        (      -5.593 eV)
    24      33       --         0.432 au  C-3           1.00      2 P:y             4
                        (      11.759 eV)
    25      34      0.667      -0.206 au  C-3           1.00      1 P:z             4
                        (      -5.593 eV)
    26      35       --         0.432 au  C-3           1.00      2 P:z             4
                        (      11.759 eV)
    27      36      2.000      -0.881 au  O             1.00      1 S               5
                        (     -23.977 eV)
    28      37       --         1.010 au  O             1.00      2 S               5
                        (      27.493 eV)
    29      38      1.333      -0.347 au  O             1.00      1 P:x             5
                        (      -9.443 eV)
    30      39       --         0.803 au  O             1.00      2 P:x             5
                        (      21.860 eV)
    31      40      1.333      -0.347 au  O             1.00      1 P:y             5
                        (      -9.443 eV)
    32      41       --         0.803 au  O             1.00      2 P:y             5
                        (      21.860 eV)
    33      42      1.333      -0.347 au  O             1.00      1 P:z             5
                        (      -9.443 eV)
    34      43       --         0.803 au  O             1.00      2 P:z             5
                        (      21.860 eV)
    35      44      1.000      -0.234 au  H-2           1.00      1 S               6
                        (      -6.379 eV)
    36      45       --         0.403 au  H-2           1.00      2 S               6
                        (      10.963 eV)
    37      46      2.000      -0.350 au  B             1.00      1 S               7
                        (      -9.511 eV)
    38      47       --         0.275 au  B             1.00      2 S               7
                        (       7.473 eV)
    39      48      0.333      -0.140 au  B             1.00      1 P:x             7
                        (      -3.818 eV)
    40      49       --         0.257 au  B             1.00      2 P:x             7
                        (       6.994 eV)
    41      50      0.333      -0.140 au  B             1.00      1 P:y             7
                        (      -3.818 eV)
    42      51       --         0.257 au  B             1.00      2 P:y             7
                        (       6.994 eV)
    43      52      0.333      -0.140 au  B             1.00      1 P:z             7
                        (      -3.818 eV)
    44      53       --         0.257 au  B             1.00      2 P:z             7
                        (       6.994 eV)
    45      54      2.000      -1.098 au  F-1           1.00      1 S               8
                        (     -29.869 eV)
    46      55       --         1.328 au  F-1           1.00      2 S               8
                        (      36.124 eV)
    47      56      1.667      -0.425 au  F-1           1.00      1 P:x             8
                        (     -11.561 eV)
    48      57       --         1.068 au  F-1           1.00      2 P:x             8
                        (      29.067 eV)
    49      58      1.667      -0.425 au  F-1           1.00      1 P:y             8
                        (     -11.561 eV)
    50      59       --         1.068 au  F-1           1.00      2 P:y             8
                        (      29.067 eV)
    51      60      1.667      -0.425 au  F-1           1.00      1 P:z             8
                        (     -11.561 eV)
    52      61       --         1.068 au  F-1           1.00      2 P:z             8
                        (      29.067 eV)
    53      62      2.000      -1.098 au  F-2           1.00      1 S               9
                        (     -29.869 eV)
    54      63       --         1.328 au  F-2           1.00      2 S               9
                        (      36.124 eV)
    55      64      1.667      -0.425 au  F-2           1.00      1 P:x             9
                        (     -11.561 eV)
    56      65       --         1.068 au  F-2           1.00      2 P:x             9
                        (      29.067 eV)
    57      66      1.667      -0.425 au  F-2           1.00      1 P:y             9
                        (     -11.561 eV)
    58      67       --         1.068 au  F-2           1.00      2 P:y             9
                        (      29.067 eV)
    59      68      1.667      -0.425 au  F-2           1.00      1 P:z             9
                        (     -11.561 eV)
    60      69       --         1.068 au  F-2           1.00      2 P:z             9
                        (      29.067 eV)
    61      70      2.000      -1.098 au  F-3           1.00      1 S              10
                        (     -29.869 eV)
    62      71       --         1.328 au  F-3           1.00      2 S              10
                        (      36.124 eV)
    63      72      1.667      -0.425 au  F-3           1.00      1 P:x            10
                        (     -11.561 eV)
    64      73       --         1.068 au  F-3           1.00      2 P:x            10
                        (      29.067 eV)
    65      74      1.667      -0.425 au  F-3           1.00      1 P:y            10
                        (     -11.561 eV)
    66      75       --         1.068 au  F-3           1.00      2 P:y            10
                        (      29.067 eV)
    67      76      1.667      -0.425 au  F-3           1.00      1 P:z            10
                        (     -11.561 eV)
    68      77       --         1.068 au  F-3           1.00      2 P:z            10
                        (      29.067 eV)
    69      78      2.000      -0.508 au  C-4           1.00      1 S              11
                        (     -13.825 eV)
    70      79       --         0.468 au  C-4           1.00      2 S              11
                        (      12.744 eV)
    71      80      0.667      -0.206 au  C-4           1.00      1 P:x            11
                        (      -5.593 eV)
    72      81       --         0.432 au  C-4           1.00      2 P:x            11
                        (      11.759 eV)
    73      82      0.667      -0.206 au  C-4           1.00      1 P:y            11
                        (      -5.593 eV)
    74      83       --         0.432 au  C-4           1.00      2 P:y            11
                        (      11.759 eV)
    75      84      0.667      -0.206 au  C-4           1.00      1 P:z            11
                        (      -5.593 eV)
    76      85       --         0.432 au  C-4           1.00      2 P:z            11
                        (      11.759 eV)
    77      86      1.000      -0.234 au  H-3           1.00      1 S              12
                        (      -6.379 eV)
    78      87       --         0.403 au  H-3           1.00      2 S              12
                        (      10.963 eV)
    79      88      1.000      -0.234 au  H-4           1.00      1 S              13
                        (      -6.379 eV)
    80      89       --         0.403 au  H-4           1.00      2 S              13
                        (      10.963 eV)
    81      90      1.000      -0.234 au  H-5           1.00      1 S              14
                        (      -6.379 eV)
    82      91       --         0.403 au  H-5           1.00      2 S              14
                        (      10.963 eV)
    83      92      1.000      -0.234 au  H-6           1.00      1 S              15
                        (      -6.379 eV)
    84      93       --         0.403 au  H-6           1.00      2 S              15
                        (      10.963 eV)



 ================================
 (Slater-type)  F U N C T I O N S  ***  (Basis and Fit)  ***
 ================================
  

 Atom Type    1  (H)
 ==============

 Valence Basis Sets:   2
 -----------------------
   1 S    0.760000
   1 S    1.280000

 Atom Type    2  (C)
 ==============

 Valence Basis Sets:   5
 -----------------------
   1 S    5.400000
   2 S    1.240000
   2 S    1.980000
   2 P    0.960000
   2 P    2.200000

 Frozen Core Shells
 ------------------
    S:  1

 Atom Type    3  (C)
 ==============

 Valence Basis Sets:   5
 -----------------------
   1 S    5.400000
   2 S    1.240000
   2 S    1.980000
   2 P    0.960000
   2 P    2.200000

 Frozen Core Shells
 ------------------
    S:  1

 Atom Type    4  (C)
 ==============

 Valence Basis Sets:   5
 -----------------------
   1 S    5.400000
   2 S    1.240000
   2 S    1.980000
   2 P    0.960000
   2 P    2.200000

 Frozen Core Shells
 ------------------
    S:  1

 Atom Type    5  (O)
 ==============

 Valence Basis Sets:   5
 -----------------------
   1 S    7.360000
   2 S    1.700000
   2 S    2.820000
   2 P    1.300000
   2 P    3.060000

 Frozen Core Shells
 ------------------
    S:  1

 Atom Type    6  (H)
 ==============

 Valence Basis Sets:   2
 -----------------------
   1 S    0.760000
   1 S    1.280000

 Atom Type    7  (B)
 ==============

 Valence Basis Sets:   5
 -----------------------
   1 S    4.420000
   2 S    1.000000
   2 S    1.560000
   2 P    0.760000
   2 P    1.700000

 Frozen Core Shells
 ------------------
    S:  1

 Atom Type    8  (F)
 ==============

 Valence Basis Sets:   5
 -----------------------
   1 S    8.330000
   2 S    1.920000
   2 S    3.220000
   2 P    1.480000
   2 P    3.520000

 Frozen Core Shells
 ------------------
    S:  1

 Atom Type    9  (F)
 ==============

 Valence Basis Sets:   5
 -----------------------
   1 S    8.330000
   2 S    1.920000
   2 S    3.220000
   2 P    1.480000
   2 P    3.520000

 Frozen Core Shells
 ------------------
    S:  1

 Atom Type   10  (F)
 ==============

 Valence Basis Sets:   5
 -----------------------
   1 S    8.330000
   2 S    1.920000
   2 S    3.220000
   2 P    1.480000
   2 P    3.520000

 Frozen Core Shells
 ------------------
    S:  1

 Atom Type   11  (C)
 ==============

 Valence Basis Sets:   5
 -----------------------
   1 S    5.400000
   2 S    1.240000
   2 S    1.980000
   2 P    0.960000
   2 P    2.200000

 Frozen Core Shells
 ------------------
    S:  1

 Atom Type   12  (H)
 ==============

 Valence Basis Sets:   2
 -----------------------
   1 S    0.760000
   1 S    1.280000

 Atom Type   13  (H)
 ==============

 Valence Basis Sets:   2
 -----------------------
   1 S    0.760000
   1 S    1.280000

 Atom Type   14  (H)
 ==============

 Valence Basis Sets:   2
 -----------------------
   1 S    0.760000
   1 S    1.280000

 Atom Type   15  (H)
 ==============

 Valence Basis Sets:   2
 -----------------------
   1 S    0.760000
   1 S    1.280000


 BAS: List of all Elementary Cartesian Basis Functions
 =====================================================

 The numbering in the list below (to the right of the function characteristics) is referred
 to in print-outs of MO eigenvectors and Mulliken populations in the BAS representation
 (as contrasted to the SFO representation).

 Notes:
 1. The functions are characterized by a polynomial prefactor (powers of x,y,z and r) and
    an exponential decay factor alpha.
 2. Since the basis sets are specific for an atom TYPE, the individual functions occur on
    all atoms of that type.
 3. The word 'Core' in the left margin signals that it is a Core Function (CF) : not a
    degree of freedom in the valence set, but only used to ensure orthogonalization of
    the other valence basis functions on the frozen Core Orbitals.


 (power of) X  Y  Z  R     Alpha  on Atom
            ==========     =====     ==========

 H                                    1
                                  ---------------------------------------------------------------------------
            0  0  0  0     0.760      1
            0  0  0  0     1.280      2

 C                                    2
                                  ---------------------------------------------------------------------------
    Core    0  0  0  0     5.400      3
            0  0  0  1     1.240      4
            0  0  0  1     1.980      5
            1  0  0  0     0.960      6
            0  1  0  0     0.960      7
            0  0  1  0     0.960      8
            1  0  0  0     2.200      9
            0  1  0  0     2.200     10
            0  0  1  0     2.200     11

 C                                    3
                                  ---------------------------------------------------------------------------
    Core    0  0  0  0     5.400     12
            0  0  0  1     1.240     13
            0  0  0  1     1.980     14
            1  0  0  0     0.960     15
            0  1  0  0     0.960     16
            0  0  1  0     0.960     17
            1  0  0  0     2.200     18
            0  1  0  0     2.200     19
            0  0  1  0     2.200     20

 C                                    4
                                  ---------------------------------------------------------------------------
    Core    0  0  0  0     5.400     21
            0  0  0  1     1.240     22
            0  0  0  1     1.980     23
            1  0  0  0     0.960     24
            0  1  0  0     0.960     25
            0  0  1  0     0.960     26
            1  0  0  0     2.200     27
            0  1  0  0     2.200     28
            0  0  1  0     2.200     29

 O                                    5
                                  ---------------------------------------------------------------------------
    Core    0  0  0  0     7.360     30
            0  0  0  1     1.700     31
            0  0  0  1     2.820     32
            1  0  0  0     1.300     33
            0  1  0  0     1.300     34
            0  0  1  0     1.300     35
            1  0  0  0     3.060     36
            0  1  0  0     3.060     37
            0  0  1  0     3.060     38

 H                                    6
                                  ---------------------------------------------------------------------------
            0  0  0  0     0.760     39
            0  0  0  0     1.280     40

 B                                    7
                                  ---------------------------------------------------------------------------
    Core    0  0  0  0     4.420     41
            0  0  0  1     1.000     42
            0  0  0  1     1.560     43
            1  0  0  0     0.760     44
            0  1  0  0     0.760     45
            0  0  1  0     0.760     46
            1  0  0  0     1.700     47
            0  1  0  0     1.700     48
            0  0  1  0     1.700     49

 F                                    8
                                  ---------------------------------------------------------------------------
    Core    0  0  0  0     8.330     50
            0  0  0  1     1.920     51
            0  0  0  1     3.220     52
            1  0  0  0     1.480     53
            0  1  0  0     1.480     54
            0  0  1  0     1.480     55
            1  0  0  0     3.520     56
            0  1  0  0     3.520     57
            0  0  1  0     3.520     58

 F                                    9
                                  ---------------------------------------------------------------------------
    Core    0  0  0  0     8.330     59
            0  0  0  1     1.920     60
            0  0  0  1     3.220     61
            1  0  0  0     1.480     62
            0  1  0  0     1.480     63
            0  0  1  0     1.480     64
            1  0  0  0     3.520     65
            0  1  0  0     3.520     66
            0  0  1  0     3.520     67

 F                                   10
                                  ---------------------------------------------------------------------------
    Core    0  0  0  0     8.330     68
            0  0  0  1     1.920     69
            0  0  0  1     3.220     70
            1  0  0  0     1.480     71
            0  1  0  0     1.480     72
            0  0  1  0     1.480     73
            1  0  0  0     3.520     74
            0  1  0  0     3.520     75
            0  0  1  0     3.520     76

 C                                   11
                                  ---------------------------------------------------------------------------
    Core    0  0  0  0     5.400     77
            0  0  0  1     1.240     78
            0  0  0  1     1.980     79
            1  0  0  0     0.960     80
            0  1  0  0     0.960     81
            0  0  1  0     0.960     82
            1  0  0  0     2.200     83
            0  1  0  0     2.200     84
            0  0  1  0     2.200     85

 H                                   12
                                  ---------------------------------------------------------------------------
            0  0  0  0     0.760     86
            0  0  0  0     1.280     87

 H                                   13
                                  ---------------------------------------------------------------------------
            0  0  0  0     0.760     88
            0  0  0  0     1.280     89

 H                                   14
                                  ---------------------------------------------------------------------------
            0  0  0  0     0.760     90
            0  0  0  0     1.280     91

 H                                   15
                                  ---------------------------------------------------------------------------
            0  0  0  0     0.760     92
            0  0  0  0     1.280     93

 Total number of charge fitting functions (nprimf)      1038
 Total number of Cartesian basis functions (naos)         93
 Total number of Cartesian core functions  (ncos)          9

1
 ***************************************************************************************************



                                              ***********************
                                              *  T E C H N I C A L  *
                                              ***********************
  



 =============================================================
 P A R A L L E L I Z A T I O N  and  V E C T O R I Z A T I O N
 =============================================================
  
 Nr of parallel processes:                                4
 Maximum vector length in NumInt loops:                 128



 =====================
 S C F   U P D A T E S
 =====================
  
 Max. nr. of cycles:                               300
 Convergence criterion:                              0.0000010000
   secondary criterion:                              0.0010000000

 Mix parameter (when DIIS does not apply):           0.2000000000
 Mixed ADIIS+SDIIS will be used                  
    Max number of expansion vectors:                10
    Pure ADIIS when Max([F,P]) is above              0.1000000000
    Pure SDIIS when Max([F,P]) is below              0.0010000000
 Automatic ElectronSmearing (in case of problematic SCF convergence) disabled



 =================
 P R E C I S I O N  ***  (General: NumInt, NeglectFunctionTails, ...)  ***
 =================
  

 NumInt:           Target precision:                 4.0000000000
 -------           Initial precision:                4.0000000000
                   Min. precision (optimization):    4.0000000000

 Neglect Functions:          Basis functions:        0.1000000000E-05
 ------------------          Fit functions:          0.1000000000E-05



 ===========================
 L I N E A R   S C A L I N G
 ===========================
  

 Cut-off radii density fit:                        0.1000000000E-07
 Overlap cut-off criterion AO matrix elements:     0.1000000000E-05
 Cut-offs for Coulomb potential and fitted density:0.1000000000E-07
 Cut-off criterion for Coulomb multipole terms:    0.1000000000E-07
 Progressive Convergence parameter:                 0.000000000    

 Number of elements of the density matrix on this node (used, total):      1159      4371



 ===========================================
 Numerical Integration : Fuzzy Cells (Becke)
 ===========================================
  
 Becke grid quality: NORMAL         
  
 Lebedev angular grid order:             min:  11 max:  23
 Nr. of radial points:                   min:  46 max:  52

 Total nr. of points:      93575
 Nr. of blocks:              732
 Block length:               128
 Nr. of dummy points:        121


 Test of Precision of the Numerical Integration Grid
 ===================================================

 Integral of the Total Core Density:                  17.99999474557854
 Relative Error:                                      -2.919E-07


[...]
 cosmo_calcen: 0.5 (esolb+esolc) (Hartrees) =   -0.022267

 Solvation energy (screening term,uncorrected) =    -13.972488 kcal/mol

 Solvation energy (dispersion and cavitation terms) =      1.281472 kcal/mol
 Solvation Energy Contributions (Hartrees)
          esola   esolb+esolc
     0.02226657   -0.04453315
 esol last cycle   -0.02226657

 Energy gradients wrt nuclear displacements
 ==========================================

     Atom      Cartesian (a.u./angstrom)
                 X         Y         Z
 ----------------------------------------
     1 H     0.000297 -0.000105 -0.000001
     2 C     0.000336  0.000112 -0.000082
     3 C    -0.000711 -0.000059  0.000571
     4 C     0.000149 -0.000209 -0.000874
     5 O    -0.000116  0.000203  0.000430
     6 H    -0.000069  0.000120  0.000235
     7 B     0.000244 -0.000048  0.000203
     8 F     0.000304  0.000194 -0.000222
     9 F     0.000054  0.000183 -0.000048
    10 F    -0.000122 -0.000347 -0.000482
    11 C    -0.000309  0.000660 -0.000094
    12 H    -0.000107 -0.000278  0.000006
    13 H     0.000018 -0.000123  0.000171
    14 H     0.000081 -0.000127 -0.000035
    15 H    -0.000048 -0.000175  0.000221
 ----------------------------------------
 Mulliken charges used for AMS results%charges...
 Continuous PES requested. Disabling symmetry...
 *** SCANMODE_forward_Davidson_Matrix_Vector_2 ***

 SOLVATION
-------------------------------------------

  The Delley construction of COSMO surface surface is calculated

       Division Level for Surface Triangles (NDIV)                  3
       Final Division Level for Triangles (NFDIV)                   1
       Radius of the Solvent (RSOL)                           2.94000 angstr
  Dielectric Constant (EPSL)                                  8.90000

       COSMO equation is solved iteratively-               conjugate-gradient

       Maximun of Iterations for Charges (NCIX)                  1000
       Criterion for Charge convergence (CCNV)                1.0E-08

  COSMO charges included variationally in SCF

       COSMO included at every SCF cycle

  Geometry-dependent empirical factor                         0.00000

  C-Matrix calculated in cspmtx

  In cspmtx, C-Matrix calculated using fitted potential

-------------------------------------------



 -------------------------------------------
  COSMO surface
  Area             =          762.810
  Volume           =         1612.078
  Number of Points =         1365
 -------------------------------------------
 cosmo_calcen: 0.5 (esolb+esolc) (Hartrees) =   -0.022270

 Solvation energy (screening term,uncorrected) =    -13.974678 kcal/mol

 Solvation energy (dispersion and cavitation terms) =      1.282488 kcal/mol
 Solvation Energy Contributions (Hartrees)
          esola   esolb+esolc
     0.02227006   -0.04454013
 esol last cycle   -0.02227006
 cosmo_calcen: 0.5 (esolb+esolc) (Hartrees) =   -0.022270

 Solvation energy (screening term,uncorrected) =    -13.974681 kcal/mol

 Solvation energy (dispersion and cavitation terms) =      1.282488 kcal/mol
 Solvation Energy Contributions (Hartrees)
          esola   esolb+esolc
     0.02227007   -0.04454014
 esol last cycle   -0.02227007

 Energy gradients wrt nuclear displacements
 ==========================================

     Atom      Cartesian (a.u./angstrom)
                 X         Y         Z
 ----------------------------------------
     1 H     0.000278 -0.000086 -0.000002
     2 C     0.000363  0.000129 -0.000025
     3 C    -0.000773 -0.000080  0.000522
     4 C     0.000237 -0.000231 -0.000868
     5 O    -0.000193  0.000260  0.000400
     6 H    -0.000054  0.000087  0.000184
     7 B     0.000288 -0.000122  0.000199
     8 F     0.000275  0.000194 -0.000219
     9 F     0.000054  0.000183 -0.000062
    10 F    -0.000132 -0.000286 -0.000389
    11 C    -0.000330  0.000689 -0.000100
    12 H    -0.000082 -0.000267  0.000039
    13 H     0.000048 -0.000144  0.000149
    14 H     0.000078 -0.000139 -0.000047
    15 H    -0.000057 -0.000187  0.000219
 ----------------------------------------
 Mulliken charges used for AMS results%charges...
 Continuous PES requested. Disabling symmetry...
 *** SCANMODE_forward_Davidson_Matrix_Vector_3 ***

 SOLVATION
-------------------------------------------

  The Delley construction of COSMO surface surface is calculated

       Division Level for Surface Triangles (NDIV)                  3
       Final Division Level for Triangles (NFDIV)                   1
       Radius of the Solvent (RSOL)                           2.94000 angstr
  Dielectric Constant (EPSL)                                  8.90000

       COSMO equation is solved iteratively-               conjugate-gradient

       Maximun of Iterations for Charges (NCIX)                  1000
       Criterion for Charge convergence (CCNV)                1.0E-08

  COSMO charges included variationally in SCF

       COSMO included at every SCF cycle

  Geometry-dependent empirical factor                         0.00000

  C-Matrix calculated in cspmtx

  In cspmtx, C-Matrix calculated using fitted potential

-------------------------------------------



 -------------------------------------------
  COSMO surface
  Area             =          763.547
  Volume           =         1613.392
  Number of Points =         1367
 -------------------------------------------
 cosmo_calcen: 0.5 (esolb+esolc) (Hartrees) =   -0.022249

 Solvation energy (screening term,uncorrected) =    -13.961613 kcal/mol

 Solvation energy (dispersion and cavitation terms) =      1.283726 kcal/mol
 Solvation Energy Contributions (Hartrees)
          esola   esolb+esolc
     0.02224924   -0.04449849
 esol last cycle   -0.02224924
 cosmo_calcen: 0.5 (esolb+esolc) (Hartrees) =   -0.022249

 Solvation energy (screening term,uncorrected) =    -13.961617 kcal/mol

 Solvation energy (dispersion and cavitation terms) =      1.283726 kcal/mol
 Solvation Energy Contributions (Hartrees)
          esola   esolb+esolc
     0.02224925   -0.04449850
 esol last cycle   -0.02224925

 Energy gradients wrt nuclear displacements
 ==========================================

     Atom      Cartesian (a.u./angstrom)
                 X         Y         Z
 ----------------------------------------
     1 H     0.000289 -0.000089 -0.000008
     2 C     0.000358  0.000149 -0.000023
     3 C    -0.000736 -0.000054  0.000486
     4 C    -0.000005 -0.000147 -0.000904
     5 O    -0.000001  0.000139  0.000504
     6 H    -0.000081  0.000106  0.000227
     7 B     0.000211  0.000028  0.000268
     8 F     0.000398  0.000205 -0.000250
     9 F     0.000095  0.000138  0.000014
    10 F    -0.000169 -0.000457 -0.000558
    11 C    -0.000308  0.000706 -0.000158
    12 H    -0.000059 -0.000275  0.000051
    13 H     0.000027 -0.000140  0.000131
    14 H     0.000024 -0.000128 -0.000003
    15 H    -0.000040 -0.000181  0.000223
 ----------------------------------------
 Mulliken charges used for AMS results%charges...
 Continuous PES requested. Disabling symmetry...
 *** SCANMODE_forward_Davidson_Matrix_Vector_4 ***

 SOLVATION
-------------------------------------------

  The Delley construction of COSMO surface surface is calculated

       Division Level for Surface Triangles (NDIV)                  3
       Final Division Level for Triangles (NFDIV)                   1
       Radius of the Solvent (RSOL)                           2.94000 angstr
  Dielectric Constant (EPSL)                                  8.90000

       COSMO equation is solved iteratively-               conjugate-gradient

       Maximun of Iterations for Charges (NCIX)                  1000
       Criterion for Charge convergence (CCNV)                1.0E-08

  COSMO charges included variationally in SCF

       COSMO included at every SCF cycle

  Geometry-dependent empirical factor                         0.00000

  C-Matrix calculated in cspmtx

  In cspmtx, C-Matrix calculated using fitted potential

-------------------------------------------



 -------------------------------------------
  COSMO surface
  Area             =          762.396
  Volume           =         1610.899
  Number of Points =         1363
 -------------------------------------------
 cosmo_calcen: 0.5 (esolb+esolc) (Hartrees) =   -0.022241

 Solvation energy (screening term,uncorrected) =    -13.956285 kcal/mol

 Solvation energy (dispersion and cavitation terms) =      1.281790 kcal/mol
 Solvation Energy Contributions (Hartrees)
          esola   esolb+esolc
     0.02224075   -0.04448151
 esol last cycle   -0.02224075
 cosmo_calcen: 0.5 (esolb+esolc) (Hartrees) =   -0.022241

 Solvation energy (screening term,uncorrected) =    -13.956289 kcal/mol

 Solvation energy (dispersion and cavitation terms) =      1.281790 kcal/mol
 Solvation Energy Contributions (Hartrees)
          esola   esolb+esolc
     0.02224076   -0.04448152
 esol last cycle   -0.02224076

 Energy gradients wrt nuclear displacements
 ==========================================

     Atom      Cartesian (a.u./angstrom)
                 X         Y         Z
 ----------------------------------------
     1 H     0.000291 -0.000107 -0.000001
     2 C     0.000271  0.000171 -0.000115
     3 C    -0.000826 -0.000067  0.000556
     4 C     0.000324 -0.000259 -0.000864
     5 O    -0.000262  0.000223  0.000470
     6 H    -0.000062  0.000132  0.000252
     7 B     0.000264 -0.000147  0.000172
     8 F     0.000258  0.000276 -0.000208
     9 F     0.000188  0.000058 -0.000053
    10 F    -0.000088 -0.000219 -0.000370
    11 C    -0.000334  0.000698 -0.000144
    12 H    -0.000089 -0.000271  0.000043
    13 H     0.000070 -0.000134  0.000107
    14 H     0.000061 -0.000178 -0.000069
    15 H    -0.000065 -0.000177  0.000225
 ----------------------------------------
 Mulliken charges used for AMS results%charges...
 Continuous PES requested. Disabling symmetry...
 *** SCANMODE_forward_Davidson_Matrix_Vector_5 ***

 SOLVATION
-------------------------------------------

  The Delley construction of COSMO surface surface is calculated

       Division Level for Surface Triangles (NDIV)                  3
       Final Division Level for Triangles (NFDIV)                   1
       Radius of the Solvent (RSOL)                           2.94000 angstr
  Dielectric Constant (EPSL)                                  8.90000

       COSMO equation is solved iteratively-               conjugate-gradient

       Maximun of Iterations for Charges (NCIX)                  1000
       Criterion for Charge convergence (CCNV)                1.0E-08

  COSMO charges included variationally in SCF

       COSMO included at every SCF cycle

  Geometry-dependent empirical factor                         0.00000

  C-Matrix calculated in cspmtx

  In cspmtx, C-Matrix calculated using fitted potential

-------------------------------------------



 -------------------------------------------
  COSMO surface
  Area             =          762.907
  Volume           =         1611.885
  Number of Points =         1363
 -------------------------------------------
 cosmo_calcen: 0.5 (esolb+esolc) (Hartrees) =   -0.022226

 Solvation energy (screening term,uncorrected) =    -13.947081 kcal/mol

 Solvation energy (dispersion and cavitation terms) =      1.282649 kcal/mol
 Solvation Energy Contributions (Hartrees)
          esola   esolb+esolc
     0.02222609   -0.04445217
 esol last cycle   -0.02222609
 cosmo_calcen: 0.5 (esolb+esolc) (Hartrees) =   -0.022226

 Solvation energy (screening term,uncorrected) =    -13.947084 kcal/mol

 Solvation energy (dispersion and cavitation terms) =      1.282649 kcal/mol
 Solvation Energy Contributions (Hartrees)
          esola   esolb+esolc
     0.02222609   -0.04445218
 esol last cycle   -0.02222609

 Energy gradients wrt nuclear displacements
 ==========================================

     Atom      Cartesian (a.u./angstrom)
                 X         Y         Z
 ----------------------------------------
     1 H     0.000290 -0.000086  0.000014
     2 C     0.000275  0.000226 -0.000127
     3 C    -0.000818 -0.000017  0.000626
     4 C     0.000101 -0.000179 -0.000869
     5 O    -0.000132  0.000061  0.000371
     6 H    -0.000088  0.000109  0.000199
     7 B     0.000212 -0.000018  0.000208
     8 F     0.000361  0.000318 -0.000252
     9 F     0.000052  0.000224 -0.000045
    10 F     0.000070 -0.000639 -0.000532
    11 C    -0.000264  0.000696 -0.000009
    12 H    -0.000090 -0.000275  0.000033
    13 H     0.000009 -0.000118  0.000173
    14 H     0.000069 -0.000131 -0.000013
    15 H    -0.000048 -0.000171  0.000222
 ----------------------------------------
 Mulliken charges used for AMS results%charges...
 Continuous PES requested. Disabling symmetry...
 *** SCANMODE_forward_Davidson_Matrix_Vector_1 ***

 SOLVATION
-------------------------------------------

  The Delley construction of COSMO surface surface is calculated

       Division Level for Surface Triangles (NDIV)                  3
       Final Division Level for Triangles (NFDIV)                   1
       Radius of the Solvent (RSOL)                           2.94000 angstr
  Dielectric Constant (EPSL)                                  8.90000

       COSMO equation is solved iteratively-               conjugate-gradient

       Maximun of Iterations for Charges (NCIX)                  1000
       Criterion for Charge convergence (CCNV)                1.0E-08

  COSMO charges included variationally in SCF

       COSMO included at every SCF cycle

  Geometry-dependent empirical factor                         0.00000

  C-Matrix calculated in cspmtx

  In cspmtx, C-Matrix calculated using fitted potential

-------------------------------------------



 -------------------------------------------
  COSMO surface
  Area             =          763.377
  Volume           =         1613.187
  Number of Points =         1366
 -------------------------------------------
 cosmo_calcen: 0.5 (esolb+esolc) (Hartrees) =   -0.022515

 Solvation energy (screening term,uncorrected) =    -14.128067 kcal/mol

 Solvation energy (dispersion and cavitation terms) =      1.283441 kcal/mol
 Solvation Energy Contributions (Hartrees)
          esola   esolb+esolc
     0.02251451   -0.04502901
 esol last cycle   -0.02251451
 cosmo_calcen: 0.5 (esolb+esolc) (Hartrees) =   -0.022515

 Solvation energy (screening term,uncorrected) =    -14.128068 kcal/mol

 Solvation energy (dispersion and cavitation terms) =      1.283441 kcal/mol
 Solvation Energy Contributions (Hartrees)
          esola   esolb+esolc
     0.02251451   -0.04502901
 esol last cycle   -0.02251451

 Energy gradients wrt nuclear displacements
 ==========================================

     Atom      Cartesian (a.u./angstrom)
                 X         Y         Z
 ----------------------------------------
     1 H     0.000234 -0.000283 -0.000068
     2 C    -0.000093 -0.000360 -0.000961
     3 C    -0.001535 -0.000094  0.000985
     4 C     0.005132 -0.001605 -0.000215
     5 O    -0.004311  0.002602 -0.000312
     6 H     0.000295  0.000177  0.000618
     7 B     0.001504 -0.003645 -0.002017
     8 F    -0.002198 -0.000057  0.000334
     9 F    -0.000063  0.000501 -0.001395
    10 F     0.001176  0.003230  0.003038
    11 C    -0.000653  0.000740  0.000467
    12 H     0.000010 -0.000128 -0.000081
    13 H     0.000248 -0.000335 -0.000356
    14 H     0.000521 -0.000562 -0.000370
    15 H    -0.000267 -0.000181  0.000332
 ----------------------------------------
 Mulliken charges used for AMS results%charges...

 Summary of Davidson Procedure
 -----------------------------
 Number of iterations        :       10
 Number of MV multiplications:       18
 Number of precond operations:       16
 Number of restarts          :        2
 Approximate Frobenius norm  :     0.039857

Frequencies of lowest lying mode(s)
Id:      1[Re]  freq:   35.932554 cm^-1
Id:      2[Re]  freq:   45.787262 cm^-1
Scanning modes in range provided by user.


    =====================
     CALCULATION RESULTS
    =====================

Energy (hartree)            -3.28189834

Gradients (hartree/bohr)
  Index   Atom            d/dx            d/dy            d/dz
      1      H    0.0001557681   -0.0000551800    0.0000016163
      2      C    0.0001810025    0.0000616141   -0.0000478073
      3      C   -0.0003886882   -0.0000324355    0.0002897726
      4      C    0.0000900873   -0.0001050615   -0.0004625520
      5      O   -0.0000662666    0.0001171546    0.0002326092
      6      H   -0.0000378878    0.0000635416    0.0001222353
      7      B    0.0001347934   -0.0000378704    0.0001057171
      8      F    0.0001666401    0.0000997576   -0.0001241317
      9      F    0.0000310415    0.0000946343   -0.0000176809
     10      F   -0.0000763334   -0.0001850116   -0.0002384363
     11      C   -0.0001583065    0.0003518402   -0.0000541789
     12      H   -0.0000569959   -0.0001453708    0.0000043931
     13      H    0.0000081655   -0.0000633161    0.0000930901
     14      H    0.0000441063   -0.0000667870   -0.0000215859
     15      H   -0.0000271264   -0.0000975096    0.0001169391

 -----------------------
 Normal Mode Frequencies
 -----------------------

 Index   Frequency (cm-1)
     1            35.9326
     2            45.7873

 ------------
 Normal Modes
 ------------

 Number of removed rigid normal modes: 0
 
 Mode:     1      Frequency (cm-1):       35.9326
 Index  Atom      ---- Displacements (x/y/z) ----
     1     H       0.080848   0.048829   0.340255
     2     C       0.062838   0.021128   0.289402
     3     C       0.054264   0.025589   0.209420
     4     C       0.008191   0.000268  -0.023150
     5     O      -0.001325  -0.000512  -0.111324
     6     H       0.039214   0.001072   0.190077
     7     B      -0.011555  -0.000213  -0.040036
     8     F       0.041947   0.020491   0.223457
     9     F      -0.242836  -0.097967  -0.096342
    10     F       0.144073   0.071896  -0.199885
    11     C      -0.030852  -0.033649  -0.195451
    12     H      -0.003002  -0.169506  -0.231346
    13     H      -0.070041   0.059512  -0.259923
    14     H      -0.048389  -0.023167  -0.259908
    15     H       0.095166   0.040109   0.460225
 
 Mode:     2      Frequency (cm-1):       45.7873
 Index  Atom      ---- Displacements (x/y/z) ----
     1     H       0.068864   0.076386   0.502838
     2     C      -0.016526  -0.022103  -0.123896
     3     C       0.026247   0.029962   0.186211
     4     C       0.009076   0.012757   0.072009
     5     O       0.009698   0.014380   0.076866
     6     H      -0.067186  -0.075477  -0.462666
     7     B      -0.001252   0.000281   0.000628
     8     F      -0.008787  -0.005313  -0.040428
     9     F       0.054221  -0.058936  -0.011868
    10     F      -0.054192   0.051969  -0.016171
    11     C      -0.012802  -0.013231  -0.087273
    12     H       0.291204  -0.086143  -0.321994
    13     H      -0.329788  -0.013477  -0.304762
    14     H      -0.005845   0.027294   0.153021
    15     H      -0.003765  -0.016325  -0.062801

PES point character: Geometry corresponds to a local minimum on the PES.


--------------
Atomic charges
--------------
  Index   Atom    Charge
      1      H    0.3988
      2      C   -0.4550
      3      C   -0.3561
      4      C    0.3858
      5      O   -0.6007
      6      H    0.3416
      7      B    1.1769
      8      F   -0.4893
      9      F   -0.5009
     10      F   -0.4910
     11      C   -0.8787
     12      H    0.3743
     13      H    0.3608
     14      H    0.3756
     15      H    0.3577


Dipole moment vector    (Debye):    11.32333966   -5.12923540   -0.43073170
              magnitude (Debye):    12.43835225


Final PES point is a local minimum. Geometry optimization successful!


AMS application finished. Exiting.
NORMAL TERMINATION
     Total cpu time:     371.00
  Total system time:      19.73
 Total elapsed time:     413.97
