

 Parallel Execution: Process Information
 ==============================================================================
 Rank   Node Name                              NodeID   MyNodeRank  NodeMaster
    0   node120                                   0          0          0
    1   node120                                   0          1         -1
    2   node120                                   0          2         -1
    3   node120                                   0          3         -1
 ==============================================================================


May use up to 122928MB of RAM as shared memory on node 0

 *******************************************************************************
 *                                                                             *
 *  --------------------------------                                           *
 *   Amsterdam Modeling Suite (AMS)              2021.102                      *
 *  --------------------------------                                           *
 *                                               r95042 2021-06-07             *
 *                                                                             *
 *                                                                             *
 *                              =================                              *
 *                              |               |                              *
 *                              |     A M S     |                              *
 *                              |               |                              *
 *                              =================                              *
 *                                                                             *
 *                                                                             *
 *   Online information and documentation:  https://www.scm.com/support/       *
 *   E-mail:  support@scm.com   info@scm.com                                   *
 *                                                                             *
 *   Scientific publications using AMS results must be properly referenced     *
 *   See the User Manuals (or the web site) for recommended citations          *
 *   The terms and conditions of the End User License Agreement apply to       *
 *   the use of AMS, https://www.scm.com/license-terms/                        *
 *                                                                             *
 **********************  x86_64_linux_intel / intelmpi  ************************
 
 Licensed to: VU/FEW (+ SARA) / ALGEMEEN / Amsterdam / THE NETHERLANDS
 SCM User ID: u7668
  
 AMS 2021.102  RunTime: Jan28-2022 10:53:23  ShM Nodes: 1  Procs: 4

 AMS jobname: 50.achiral_catalyst.H_tBu_ZnCl2.Rsub_cat_complex
 AMS jobid  : 1894120794

 Start   directory: /scistor/tc/yhk800/MasterProject/calculations/achiral_catalyst_H_tBu_ZnCl2/50.achiral_catalyst.H_tBu_ZnCl2.Rsub_cat_complex/
 Results directory: /scistor/tc/yhk800/MasterProject/calculations/achiral_catalyst_H_tBu_ZnCl2/50.achiral_catalyst.H_tBu_ZnCl2.Rsub_cat_complex/
 Scratch directory: /scratch/5507/amstmp_50.achiral_catalyst.H_tBu_ZnCl2.Rsub_cat_complex_kid0.1894120794/


 Communication costs MPI_COMM_WORLD:      0.969 usec per message,   0.0104 usec per 8-byte item
 Communication costs for intra-node:      0.976 usec per message,   0.0049 usec per 8-byte item

 RNG seed: 974693746 1748329356 743383322 347733743 2113516555 -463673840 -2070555833 15018286



                      ************************************************************************
                      *  ADF 2021.102  RunTime: Jan28-2022 10:53:24  ShM Nodes: 1  Procs: 4  *
                      ************************************************************************
  
       ***************************
       *  GEOMETRY OPTIMIZATION  *
       ***************************

Optimization Method                    Quasi Newton
Optimization Coordinates               Delocalized Coordinates
Optimize lattice                       F
 
 ------------------------------------------------------
 Convergence criteria (Hartree,Angstrom)
 ------------------------------------------------------
 Maximum gradient               0.001000000000
 Maximum rms gradient           0.000666666667
 Maximum step allowed           0.010000000000
 Maximum rms step allowed       0.006666666667
 Maximum energy change allowe   0.000230000000
 Maximum stress energy allowe   0.000500000000
 
Initial model Hessian                  Automatic Hessian
 
------------------------------------
Quasi-Newton Optimizer Parameters
------------------------------------
Hessian Update Method                  BFGS
Maximum number of steps                  250
First GDIIS cycle                          0
Maximum GDIIS vectors                      0
Trust radius (bohr)                        0.200000
Trust radius varies                        T
Constraints converged at all steps         T
Use projector                              T
 
 Rigid motions settings for: old optimizer
 Atomic rotations (x,y,z):     T T T
 Atomic translations (x,y,z):  T T T
 Tolerance:                   1.000000000000000E-006
 
--------
Geometry
--------
Formula: C7H12Cl2OSn
Atoms
  Index Symbol   x (angstrom)   y (angstrom)   z (angstrom)
      1      H    -0.62056146    -0.03764738    -0.08023722
      2      C    -0.09659473    -2.02948020    -0.54883449
      3      C     0.18266548    -0.75219647    -0.26512258
      4      C     1.55928918    -0.22013974    -0.18291419
      5      O     1.86635738     0.93365884     0.07180470
      6      H     0.69695300    -2.74612423    -0.73626627
      7      C    -1.53512390    -3.98169459    -1.12156823
      8      C    -1.54987465    -2.53359044    -0.62266085
      9      C    -2.32371837    -1.63885453    -1.59566924
     10      C    -2.16108997    -2.45555144     0.77964353
     11      H    -2.14765732    -1.42687928     1.14159999
     12      H    -2.55099094    -4.37493076    -1.18722103
     13      H    -0.96277866    -4.61120054    -0.43929077
     14      H    -1.07715113    -4.03683810    -2.10978859
     15      H    -3.36175531    -1.96622602    -1.67465053
     16      H    -1.87118027    -1.67785219    -2.58715690
     17      H    -2.31140649    -0.60455404    -1.25008242
     18      H    -3.19455491    -2.80588288     0.76743983
     19      H    -1.59305862    -3.07453987     1.47502332
     20      H     2.32514145    -0.94333367    -0.37095895
     21     Sn     1.85103070     2.46611042     0.80757453
     22     Cl     2.20976082     2.91058035     3.11963972
     23     Cl     1.78879142     4.68377222    -0.05841484
 
Total System Charge             0.00000
 
 
----------------
ADF Engine Input
----------------
 
 NumericalQuality VeryGood
 SCF
 Converge 1.0e-6
 Iterations 99
 End
 SYMMETRY NOSYM
 XC
 GGA OLYP
 End
 basis
 core None
 type TZ2P
 End
 

 Title: *** (NO TITLE) ***

 Using automatic Hessian for delocalized coordinates.
 *** GOStep1 ***

 Energy gradients wrt nuclear displacements
 ==========================================

     Atom      Cartesian (a.u./angstrom)
                 X         Y         Z
 ----------------------------------------
     1 H    -0.004635  0.000567 -0.000665
     2 C     0.038106  0.036296  0.005566
     3 C    -0.083435 -0.079350 -0.019512
     4 C     0.132383  0.227313  0.044903
     5 O    -0.047763  0.244599  0.234195
     6 H    -0.004804  0.001597 -0.000120
     7 C     0.003315 -0.002625 -0.000796
     8 C    -0.033424 -0.000281  0.007055
     9 C     0.004499  0.000013  0.001592
    10 C     0.001145 -0.000544 -0.003776
    11 H     0.003029 -0.000793 -0.005368
    12 H     0.002217  0.004006  0.001162
    13 H    -0.001308  0.006035 -0.001415
    14 H    -0.000814  0.003871  0.004869
    15 H     0.004966 -0.000105  0.001064
    16 H     0.000926 -0.002206  0.005068
    17 H     0.005831 -0.002668  0.004407
    18 H     0.004823  0.001430 -0.000953
    19 H     0.000223  0.001290 -0.005773
    20 H    -0.031616  0.022351 -0.012038
    21 Sn    0.024435 -0.423435 -0.228631
    22 Cl   -0.015506 -0.001625 -0.064057
    23 Cl   -0.002591 -0.035738  0.033222
 ----------------------------------------
 Mulliken charges used for AMS results%charges...
 
----------------------------------------------------------------------
Geometry Convergence after Step   1       (Hartree/Angstrom,Angstrom)
----------------------------------------------------------------------
current energy                               -4.18680693 Hartree
energy change                      -4.18680693     0.00023000    F
constrained gradient max            0.42345396     0.00100000    F
constrained gradient rms            0.08046462     0.00066667    F
gradient max                        0.42345396
gradient rms                        0.08046462
cart. step max                      0.04795200     0.01000000    F
cart. step rms                      0.01701216     0.00666667    F
 
 
--------
Geometry
--------
Formula: C7H12Cl2OSn
Atoms
  Index Symbol   x (angstrom)   y (angstrom)   z (angstrom)
      1      H    -0.59523741    -0.00558018    -0.08457782
      2      C    -0.10692503    -2.01992425    -0.54965830
      3      C     0.19406119    -0.73404839    -0.26977424
      4      C     1.56441751    -0.23059625    -0.19692651
      5      O     1.89817185     0.92208324     0.04254231
      6      H     0.68576019    -2.73988043    -0.73452509
      7      C    -1.52745747    -3.98779269    -1.11766193
      8      C    -1.55593047    -2.53501493    -0.62397549
      9      C    -2.34325984    -1.65326092    -1.60525556
     10      C    -2.17204245    -2.45661414     0.78108324
     11      H    -2.17209915    -1.42708837     1.14273873
     12      H    -2.53982636    -4.39240146    -1.18298600
     13      H    -0.95004401    -4.61209961    -0.43286970
     14      H    -1.06836371    -4.04580494    -2.10653443
     15      H    -3.37819899    -1.99469338    -1.68167590
     16      H    -1.89238435    -1.69191228    -2.59863250
     17      H    -2.34795324    -0.61490258    -1.27101386
     18      H    -3.20300738    -2.81795985     0.76806049
     19      H    -1.60074798    -3.06697169     1.48306134
     20      H     2.32899448    -0.96820612    -0.38404562
     21     Sn     1.86643036     2.50494756     0.83337390
     22     Cl     2.22884249     2.91501899     3.16759172
     23     Cl     1.80929246     4.72930814    -0.04645028
 
Total System Charge             0.00000
 
 *** GOStep2 ***

 Energy gradients wrt nuclear displacements
 ==========================================

     Atom      Cartesian (a.u./angstrom)
                 X         Y         Z
 ----------------------------------------
     1 H    -0.002291  0.001055 -0.000404
     2 C     0.031148  0.017191  0.001523
     3 C    -0.058116 -0.049276 -0.011634
     4 C     0.101609  0.192653  0.034556
     5 O    -0.044139  0.157641  0.188410
     6 H    -0.004611  0.000544 -0.000404
     7 C     0.002784 -0.002481 -0.001188
     8 C    -0.030212 -0.002894  0.006220
     9 C     0.003101  0.000534  0.000830
    10 C     0.000668 -0.000249 -0.002796
    11 H     0.002516 -0.000555 -0.004026
    12 H     0.001290  0.002913  0.000830
    13 H    -0.000648  0.004674 -0.000876
    14 H    -0.000314  0.003101  0.003492
    15 H     0.003184  0.000124  0.000635
    16 H     0.001030 -0.001568  0.003724
    17 H     0.004581 -0.002302  0.003047
    18 H     0.003109  0.001148 -0.000405
    19 H     0.000527  0.000914 -0.004316
    20 H    -0.023184  0.017900 -0.012550
    21 Sn    0.024378 -0.305463 -0.179081
    22 Cl   -0.013683 -0.000844 -0.055765
    23 Cl   -0.002728 -0.034760  0.030177
 ----------------------------------------
 Mulliken charges used for AMS results%charges...

 dE(predicted):    -0.34510E-01, dE(actual):    -0.38316E-01, Trust radius:    0.400000, all in a.u.
 
----------------------------------------------------------------------
Geometry Convergence after Step   2       (Hartree/Angstrom,Angstrom)
----------------------------------------------------------------------
current energy                               -4.22512289 Hartree
energy change                      -0.03831596     0.00023000    F
constrained gradient max            0.30548393     0.00100000    F
constrained gradient rms            0.06040288     0.00066667    F
gradient max                        0.30548393
gradient rms                        0.06040288
cart. step max                      0.10197467     0.01000000    F
cart. step rms                      0.03073470     0.00666667    F
 
 
--------
Geometry
--------
Formula: C7H12Cl2OSn
Atoms
  Index Symbol   x (angstrom)   y (angstrom)   z (angstrom)
      1      H    -0.55839732     0.04206427    -0.10577128
      2      C    -0.12453913    -1.99979541    -0.55231318
      3      C     0.20835830    -0.70924496    -0.28751877
      4      C     1.56910502    -0.26482579    -0.23547752
      5      O     1.96472488     0.90115630    -0.03322758
      6      H     0.67143672    -2.72171154    -0.72930148
      7      C    -1.51195897    -3.99416937    -1.10342585
      8      C    -1.56011591    -2.53170974    -0.62461506
      9      C    -2.36909028    -1.67314184    -1.62070463
     10      C    -2.18465274    -2.44808142     0.78517308
     11      H    -2.20749825    -1.41648942     1.14366300
     12      H    -2.51923010    -4.41505889    -1.16529612
     13      H    -0.92765307    -4.60949699    -0.41302233
     14      H    -1.05252270    -4.06303059    -2.09364564
     15      H    -3.39825511    -2.03819088    -1.68936874
     16      H    -1.92312259    -1.71392019    -2.61805676
     17      H    -2.40093035    -0.62775186    -1.30711577
     18      H    -3.21092808    -2.82762629     0.76909773
     19      H    -1.61008099    -3.04247613     1.50077833
     20      H     2.32863334    -1.03239993    -0.41646814
     21     Sn     1.87473828     2.56266231     0.88324904
     22     Cl     2.24304286     2.88954108     3.26956639
     23     Cl     1.82142892     4.81030275    -0.02431019
 
Total System Charge             0.00000
 
 *** GOStep3 ***

 Energy gradients wrt nuclear displacements
 ==========================================

     Atom      Cartesian (a.u./angstrom)
                 X         Y         Z
 ----------------------------------------
     1 H    -0.000117  0.001019  0.000111
     2 C     0.019453  0.004503 -0.000972
     3 C    -0.016284 -0.018856 -0.004235
     4 C     0.026491  0.092725  0.016177
     5 O    -0.021055  0.110151  0.134503
     6 H    -0.003059 -0.000590 -0.000874
     7 C     0.002367 -0.002051 -0.001362
     8 C    -0.021385 -0.004545  0.004789
     9 C     0.001808  0.001393 -0.000351
    10 C     0.000364  0.000334 -0.001162
    11 H     0.001653 -0.000032 -0.001718
    12 H     0.000126  0.001288  0.000372
    13 H     0.000355  0.002111 -0.000128
    14 H     0.000427  0.001630  0.001266
    15 H     0.000738  0.000185  0.000186
    16 H     0.000994 -0.000474  0.001395
    17 H     0.002802 -0.000879  0.001240
    18 H     0.000662  0.000606  0.000119
    19 H     0.000825  0.000359 -0.001721
    20 H    -0.007836  0.007590 -0.013958
    21 Sn    0.023758 -0.172331 -0.118736
    22 Cl   -0.009929  0.000742 -0.036281
    23 Cl   -0.003156 -0.024877  0.021335
 ----------------------------------------
 Mulliken charges used for AMS results%charges...

 dE(predicted):    -0.47800E-01, dE(actual):    -0.52129E-01, Trust radius:    0.800000, all in a.u.
 
----------------------------------------------------------------------
Geometry Convergence after Step   3       (Hartree/Angstrom,Angstrom)
----------------------------------------------------------------------
current energy                               -4.27725168 Hartree
energy change                      -0.05212879     0.00023000    F
constrained gradient max            0.17234308     0.00100000    F
constrained gradient rms            0.03591603     0.00066667    F
gradient max                        0.17234308
gradient rms                        0.03591603
cart. step max                      0.19671746     0.01000000    F
cart. step rms                      0.06788346     0.00666667    F
 
 
--------
Geometry
--------
Formula: C7H12Cl2OSn
Atoms
  Index Symbol   x (angstrom)   y (angstrom)   z (angstrom)
      1      H    -0.54297252     0.12066747    -0.21584328
      2      C    -0.14948385    -1.95472498    -0.55592525
      3      C     0.20576610    -0.65615110    -0.35466054
      4      C     1.56563652    -0.27908746    -0.33916462
      5      O     2.00499519     0.91155034    -0.21862046
      6      H     0.66489034    -2.67058190    -0.68492790
      7      C    -1.47918817    -4.00522123    -1.04690874
      8      C    -1.55541267    -2.52145038    -0.62704877
      9      C    -2.39918655    -1.73105240    -1.66104497
     10      C    -2.21010120    -2.40886695     0.77619383
     11      H    -2.28270808    -1.36876355     1.10532436
     12      H    -2.47935822    -4.44606013    -1.09818761
     13      H    -0.89254251    -4.59076705    -0.33044212
     14      H    -1.01521320    -4.11376165    -2.03326882
     15      H    -3.41097509    -2.14702381    -1.71183854
     16      H    -1.95626182    -1.79144336    -2.66019504
     17      H    -2.48608757    -0.67443787    -1.39471612
     18      H    -3.22204446    -2.82734836     0.74682415
     19      H    -1.63631956    -2.96051912     1.52783205
     20      H     2.32044441    -1.08707610    -0.42354169
     21     Sn     1.80938014     2.61918203     1.00150439
     22     Cl     2.43976031     2.72713222     3.41612086
     23     Cl     1.82947516     4.93241082     0.11442333
 
Total System Charge             0.00000
 
 *** GOStep4 ***

 Energy gradients wrt nuclear displacements
 ==========================================

     Atom      Cartesian (a.u./angstrom)
                 X         Y         Z
 ----------------------------------------
     1 H    -0.001074 -0.000744  0.001615
     2 C     0.003029 -0.001191 -0.000504
     3 C     0.024389  0.008877  0.004416
     4 C    -0.048385 -0.015460 -0.003934
     5 O     0.006830  0.091862  0.075242
     6 H     0.000046 -0.000188 -0.000571
     7 C     0.000234 -0.000961 -0.000370
     8 C    -0.003165 -0.002435  0.001336
     9 C    -0.000169  0.001100 -0.001079
    10 C     0.000055  0.000680 -0.000424
    11 H     0.000329  0.000308  0.000390
    12 H    -0.000505 -0.000415 -0.000042
    13 H     0.000614 -0.000378  0.000470
    14 H     0.000466  0.000102 -0.000530
    15 H    -0.001004 -0.000067 -0.000007
    16 H     0.000380  0.000127 -0.000581
    17 H     0.000591  0.000514 -0.000141
    18 H    -0.000978 -0.000079  0.000025
    19 H     0.000486 -0.000262  0.000541
    20 H     0.005538 -0.003191 -0.007274
    21 Sn    0.026874 -0.077369 -0.069874
    22 Cl   -0.008275  0.001471 -0.005162
    23 Cl   -0.006307 -0.002301  0.006457
 ----------------------------------------
 Mulliken charges used for AMS results%charges...

 dE(predicted):    -0.35186E-01, dE(actual):    -0.45447E-01, Trust radius:    1.000000, all in a.u.
 
----------------------------------------------------------------------
Geometry Convergence after Step   4       (Hartree/Angstrom,Angstrom)
----------------------------------------------------------------------
current energy                               -4.32269876 Hartree
energy change                      -0.04544708     0.00023000    F
constrained gradient max            0.09185760     0.00100000    F
constrained gradient rms            0.02062320     0.00066667    F
gradient max                        0.09185760
gradient rms                        0.02062320
cart. step max                      0.21277329     0.01000000    F
cart. step rms                      0.03953213     0.00666667    F
 
 
--------
Geometry
--------
Formula: C7H12Cl2OSn
Atoms
  Index Symbol   x (angstrom)   y (angstrom)   z (angstrom)
      1      H    -0.56953765     0.14023214    -0.28445456
      2      C    -0.16427052    -1.94168541    -0.56195576
      3      C     0.18281157    -0.63829482    -0.38650296
      4      C     1.54592212    -0.26129229    -0.34727933
      5      O     1.96665411     0.93759181    -0.25873099
      6      H     0.66053031    -2.65143025    -0.65995414
      7      C    -1.46376914    -4.01608283    -1.02430744
      8      C    -1.55784445    -2.52506896    -0.63339238
      9      C    -2.40801492    -1.76525175    -1.68616406
     10      C    -2.22529333    -2.39529448     0.76429025
     11      H    -2.31675938    -1.35057356     1.07382909
     12      H    -2.45937732    -4.46724830    -1.07301249
     13      H    -0.87665939    -4.58327013    -0.29347942
     14      H    -0.99344505    -4.14037956    -2.00594097
     15      H    -3.41214546    -2.19941917    -1.73339235
     16      H    -1.96011877    -1.83661981    -2.68242857
     17      H    -2.51477202    -0.70547329    -1.43964126
     18      H    -3.23035897    -2.82963936     0.73298374
     19      H    -1.65097794    -2.92498124     1.53121570
     20      H     2.30906448    -1.06519808    -0.40382270
     21     Sn     1.72779792     2.64291703     1.08639787
     22     Cl     2.65253361     2.68875793     3.42516350
     23     Cl     1.88052290     4.96430983     0.19246773
 
Total System Charge             0.00000
 
 *** GOStep5 ***

 Energy gradients wrt nuclear displacements
 ==========================================

     Atom      Cartesian (a.u./angstrom)
                 X         Y         Z
 ----------------------------------------
     1 H    -0.001837 -0.001400  0.001272
     2 C    -0.002494 -0.002676 -0.001446
     3 C     0.024860  0.013285  0.004280
     4 C    -0.048018 -0.033789  0.001047
     5 O     0.005892  0.081492  0.052456
     6 H     0.000756  0.000234 -0.000807
     7 C     0.000239 -0.000671 -0.000116
     8 C     0.001471 -0.001413  0.001539
     9 C    -0.000314  0.001125 -0.001298
    10 C    -0.000190  0.000725 -0.000031
    11 H     0.000047  0.000382  0.000676
    12 H    -0.000444 -0.000431 -0.000041
    13 H     0.000525 -0.000662  0.000469
    14 H     0.000392 -0.000199 -0.000683
    15 H    -0.000908 -0.000190  0.000095
    16 H     0.000214  0.000149 -0.000759
    17 H     0.000260  0.000714 -0.000250
    18 H    -0.000957 -0.000080 -0.000018
    19 H     0.000306 -0.000273  0.000731
    20 H     0.006542 -0.003200 -0.006299
    21 Sn    0.027492 -0.062156 -0.060049
    22 Cl   -0.006591  0.001647  0.006717
    23 Cl   -0.007242  0.007385  0.002513
 ----------------------------------------
 Mulliken charges used for AMS results%charges...

 dE(predicted):    -0.19343E-01, dE(actual):    -0.12099E-01, Trust radius:    1.000000, all in a.u.
 
----------------------------------------------------------------------
Geometry Convergence after Step   5       (Hartree/Angstrom,Angstrom)
----------------------------------------------------------------------
current energy                               -4.33479800 Hartree
energy change                      -0.01209924     0.00023000    F
constrained gradient max            0.08148988     0.00100000    F
constrained gradient rms            0.01795793     0.00066667    F
gradient max                        0.08148988
gradient rms                        0.01795793
cart. step max                      0.21865841     0.01000000    F
cart. step rms                      0.04157946     0.00666667    F
 
 
--------
Geometry
--------
Formula: C7H12Cl2OSn
Atoms
  Index Symbol   x (angstrom)   y (angstrom)   z (angstrom)
      1      H    -0.60579972     0.15567338    -0.32550613
      2      C    -0.18035278    -1.92747663    -0.55974671
      3      C     0.15160841    -0.62012580    -0.40321999
      4      C     1.51942238    -0.22855777    -0.34822287
      5      O     1.92105599     0.96665688    -0.27778775
      6      H     0.65546948    -2.62807351    -0.63103229
      7      C    -1.44474669    -4.02431473    -1.00896913
      8      C    -1.56133327    -2.52970868    -0.63939966
      9      C    -2.41497789    -1.79754429    -1.70868440
     10      C    -2.24438546    -2.39213218     0.75106317
     11      H    -2.35594421    -1.34503687     1.04523402
     12      H    -2.43421857    -4.48802566    -1.06037761
     13      H    -0.85794786    -4.57449340    -0.26529427
     14      H    -0.96442194    -4.15678417    -1.98453574
     15      H    -3.41031160    -2.25046515    -1.75772699
     16      H    -1.95821102    -1.87426803    -2.70031697
     17      H    -2.54317177    -0.73691479    -1.47667116
     18      H    -3.24134104    -2.84357923     0.71431502
     19      H    -1.66996271    -2.90277782     1.53046027
     20      H     2.29130841    -1.02414510    -0.37998903
     21     Sn     1.61903700     2.67295209     1.18833308
     22     Cl     2.87119202     2.66367699     3.38435306
     23     Cl     1.98052553     4.96206992     0.24561061
 
Total System Charge             0.00000
 
 *** GOStep6 ***

 Energy gradients wrt nuclear displacements
 ==========================================

     Atom      Cartesian (a.u./angstrom)
                 X         Y         Z
 ----------------------------------------
     1 H    -0.001758 -0.001848  0.001426
     2 C    -0.006645 -0.003499 -0.001172
     3 C     0.019212  0.012738  0.003390
     4 C    -0.036271 -0.031867  0.003162
     5 O     0.001680  0.057410  0.031306
     6 H     0.001062  0.000455 -0.000743
     7 C     0.000162 -0.000358  0.000030
     8 C     0.004931 -0.000069  0.000862
     9 C    -0.000664  0.000788 -0.001530
    10 C    -0.000335  0.000698  0.000474
    11 H    -0.000033  0.000317  0.000632
    12 H    -0.000283 -0.000320 -0.000022
    13 H     0.000332 -0.000590  0.000340
    14 H     0.000235 -0.000292 -0.000562
    15 H    -0.000604 -0.000150  0.000153
    16 H     0.000047  0.000070 -0.000623
    17 H     0.000056  0.000615 -0.000248
    18 H    -0.000651 -0.000045 -0.000154
    19 H     0.000104 -0.000225  0.000610
    20 H     0.005890 -0.000111 -0.003537
    21 Sn    0.018886 -0.052432 -0.049287
    22 Cl   -0.000562  0.002325  0.016542
    23 Cl   -0.004789  0.016389 -0.001050
 ----------------------------------------
 Mulliken charges used for AMS results%charges...
 Rebuilding optimization coordinates

 dE(predicted):    -0.22499E-01, dE(actual):    -0.11768E-01, Trust radius:    1.000000, all in a.u.
 
----------------------------------------------------------------------
Geometry Convergence after Step   6       (Hartree/Angstrom,Angstrom)
----------------------------------------------------------------------
current energy                               -4.34656572 Hartree
energy change                      -0.01176771     0.00023000    F
constrained gradient max            0.05741238     0.00100000    F
constrained gradient rms            0.01394532     0.00066667    F
gradient max                        0.05741238
gradient rms                        0.01394532
cart. step max                      0.21476062     0.01000000    F
cart. step rms                      0.04858864     0.00666667    F
 
 
--------
Geometry
--------
Formula: C7H12Cl2OSn
Atoms
  Index Symbol   x (angstrom)   y (angstrom)   z (angstrom)
      1      H    -0.65319846     0.17456283    -0.35710024
      2      C    -0.19689387    -1.90667876    -0.55370813
      3      C     0.11258085    -0.59480998    -0.40935193
      4      C     1.48131354    -0.18317017    -0.33119678
      5      O     1.86258041     1.00927972    -0.26283690
      6      H     0.65198608    -2.59385851    -0.60161950
      7      C    -1.41790701    -4.02876080    -0.99879814
      8      C    -1.56394305    -2.53327931    -0.64452321
      9      C    -2.41976060    -1.82654433    -1.72848330
     10      C    -2.26515638    -2.39644241     0.73763491
     11      H    -2.40007914    -1.34911035     1.02057030
     12      H    -2.39881304    -4.50924139    -1.05661302
     13      H    -0.83052338    -4.56237103    -0.24384110
     14      H    -0.92500757    -4.16242941    -1.96778040
     15      H    -3.40496101    -2.29979805    -1.78348504
     16      H    -1.95150939    -1.90281898    -2.71461442
     17      H    -2.57174233    -0.76689950    -1.50680778
     18      H    -3.25236569    -2.86754827     0.69305299
     19      H    -1.69035388    -2.88936017     1.52787509
     20      H     2.26135421    -0.97105468    -0.34169021
     21     Sn     1.48224545     2.70531893     1.30817124
     22     Cl     3.08595264     2.63476781     3.26917015
     23     Cl     2.12669433     4.89685227     0.27786395
 
Total System Charge             0.00000
 
 *** GOStep7 ***

 Energy gradients wrt nuclear displacements
 ==========================================

     Atom      Cartesian (a.u./angstrom)
                 X         Y         Z
 ----------------------------------------
     1 H    -0.001505 -0.001863  0.001152
     2 C    -0.008421 -0.002873 -0.001120
     3 C     0.013498  0.010622  0.002486
     4 C    -0.024685 -0.026345  0.003628
     5 O    -0.001101  0.037340  0.014657
     6 H     0.001281  0.000598 -0.000967
     7 C     0.000180 -0.000185  0.000200
     8 C     0.006842  0.000837  0.000664
     9 C    -0.000701  0.000647 -0.001564
    10 C    -0.000613  0.000665  0.000842
    11 H    -0.000073  0.000228  0.000570
    12 H    -0.000128 -0.000205 -0.000003
    13 H     0.000193 -0.000533  0.000220
    14 H     0.000136 -0.000332 -0.000443
    15 H    -0.000302 -0.000126  0.000247
    16 H    -0.000044  0.000019 -0.000486
    17 H    -0.000034  0.000533 -0.000242
    18 H    -0.000402  0.000015 -0.000206
    19 H    -0.000039 -0.000185  0.000478
    20 H     0.004839  0.001232 -0.000786
    21 Sn   -0.001318 -0.046737 -0.036651
    22 Cl    0.009824  0.004065  0.021350
    23 Cl    0.002573  0.022584 -0.004025
 ----------------------------------------
 Mulliken charges used for AMS results%charges...

 dE(predicted):    -0.26790E-01, dE(actual):    -0.95132E-02, Trust radius:    1.000000, all in a.u.
 
----------------------------------------------------------------------
Geometry Convergence after Step   7       (Hartree/Angstrom,Angstrom)
----------------------------------------------------------------------
current energy                               -4.35607890 Hartree
energy change                      -0.00951318     0.00023000    F
constrained gradient max            0.04673412     0.00100000    F
constrained gradient rms            0.01078810     0.00066667    F
gradient max                        0.04673412
gradient rms                        0.01078810
cart. step max                      0.21001801     0.01000000    F
cart. step rms                      0.05918143     0.00666667    F
 
 
--------
Geometry
--------
Formula: C7H12Cl2OSn
Atoms
  Index Symbol   x (angstrom)   y (angstrom)   z (angstrom)
      1      H    -0.70317497     0.20084398    -0.39053747
      2      C    -0.21309382    -1.87772010    -0.54092742
      3      C     0.07106129    -0.56127777    -0.40870539
      4      C     1.43890917    -0.12793476    -0.29539950
      5      O     1.79940984     1.06187284    -0.22707921
      6      H     0.64971663    -2.54932543    -0.55755290
      7      C    -1.38371978    -4.02591180    -0.99194991
      8      C    -1.56349891    -2.53178837    -0.64850419
      9      C    -2.42062082    -1.84918499    -1.74624316
     10      C    -2.28644268    -2.40323651     0.72400670
     11      H    -2.44945439    -1.35771060     0.99832597
     12      H    -2.35436886    -4.52516285    -1.06008511
     13      H    -0.79684501    -4.54420276    -0.22622542
     14      H    -0.87564973    -4.15601054    -1.95344084
     15      H    -3.39314292    -2.34613506    -1.81146446
     16      H    -1.93826302    -1.91882291    -2.72588986
     17      H    -2.60100042    -0.79268496    -1.53114848
     18      H    -3.26130178    -2.89766978     0.66795474
     19      H    -1.71176187    -2.87865522     1.52478888
     20      H     2.22769730    -0.90716138    -0.28400243
     21     Sn     1.32066550     2.73408042     1.46221959
     22     Cl     3.29107901     2.59096467     3.05915214
     23     Cl     2.27629292     4.73943933     0.29459628
 
Total System Charge             0.00000
 
 *** GOStep8 ***

 Energy gradients wrt nuclear displacements
 ==========================================

     Atom      Cartesian (a.u./angstrom)
                 X         Y         Z
 ----------------------------------------
     1 H    -0.001020 -0.001854  0.000732
     2 C    -0.010130 -0.001937 -0.001674
     3 C     0.007175  0.008589  0.000805
     4 C    -0.013436 -0.018211  0.005945
     5 O    -0.000615  0.018746 -0.000709
     6 H     0.001604  0.000695 -0.001287
     7 C     0.000204 -0.000051  0.000441
     8 C     0.008957  0.001568  0.000949
     9 C    -0.000647  0.000795 -0.001694
    10 C    -0.000913  0.000778  0.001367
    11 H    -0.000152  0.000109  0.000530
    12 H     0.000037 -0.000069  0.000016
    13 H     0.000014 -0.000524  0.000104
    14 H     0.000005 -0.000401 -0.000352
    15 H     0.000070 -0.000175  0.000406
    16 H    -0.000168 -0.000054 -0.000381
    17 H    -0.000160  0.000433 -0.000234
    18 H    -0.000095  0.000069 -0.000323
    19 H    -0.000210 -0.000166  0.000343
    20 H     0.003968  0.002380  0.001350
    21 Sn   -0.034688 -0.040994 -0.017187
    22 Cl    0.024330  0.007124  0.017637
    23 Cl    0.015872  0.023151 -0.006785
 ----------------------------------------
 Mulliken charges used for AMS results%charges...

 dE(predicted):    -0.14605E-01, dE(actual):    -0.48412E-02, Trust radius:    1.000000, all in a.u.
 
----------------------------------------------------------------------
Geometry Convergence after Step   8       (Hartree/Angstrom,Angstrom)
----------------------------------------------------------------------
current energy                               -4.36092009 Hartree
energy change                      -0.00484119     0.00023000    F
constrained gradient max            0.04098801     0.00100000    F
constrained gradient rms            0.00950025     0.00066667    F
gradient max                        0.04098801
gradient rms                        0.00950025
cart. step max                      0.16781676     0.01000000    F
cart. step rms                      0.02952552     0.00666667    F
 
 
--------
Geometry
--------
Formula: C7H12Cl2OSn
Atoms
  Index Symbol   x (angstrom)   y (angstrom)   z (angstrom)
      1      H    -0.69692951     0.21502975    -0.45233177
      2      C    -0.20479723    -1.86941019    -0.53139634
      3      C     0.07368271    -0.55097075    -0.43633867
      4      C     1.44973449    -0.09918231    -0.32208559
      5      O     1.80989317     1.06627444    -0.23432819
      6      H     0.65428597    -2.54470821    -0.50385550
      7      C    -1.37834179    -4.01715663    -0.98146561
      8      C    -1.55839166    -2.52333808    -0.64226454
      9      C    -2.41282359    -1.84357447    -1.74068227
     10      C    -2.27959411    -2.39170286     0.72926070
     11      H    -2.44551846    -1.34494622     0.99566498
     12      H    -2.34869850    -4.51639883    -1.05019258
     13      H    -0.79249944    -4.53168551    -0.21315118
     14      H    -0.86809488    -4.14820293    -1.94113122
     15      H    -3.38349958    -2.34252751    -1.81153844
     16      H    -1.92531685    -1.91053556    -2.71747877
     17      H    -2.59631423    -0.78841641    -1.52360178
     18      H    -3.25181296    -2.89097266     0.67859315
     19      H    -1.70008906    -2.85967725     1.53040219
     20      H     2.23028798    -0.88342300    -0.30987545
     21     Sn     1.28527876     2.74893872     1.51578453
     22     Cl     3.25644764     2.42314792     3.06074869
     23     Cl     2.20560382     4.68004401     0.23315217
 
Total System Charge             0.00000
 
 *** GOStep9 ***

 Energy gradients wrt nuclear displacements
 ==========================================

     Atom      Cartesian (a.u./angstrom)
                 X         Y         Z
 ----------------------------------------
     1 H     0.000398 -0.000730  0.000619
     2 C    -0.006988 -0.002561 -0.001312
     3 C    -0.002225  0.001109  0.001850
     4 C     0.008000  0.030618  0.003624
     5 O    -0.009234 -0.029438 -0.005016
     6 H     0.000816  0.000357 -0.000378
     7 C    -0.000069 -0.000107  0.000559
     8 C     0.006741  0.000914 -0.000075
     9 C    -0.000822  0.000633 -0.001742
    10 C    -0.000978  0.000867  0.001547
    11 H     0.000008 -0.000158 -0.000033
    12 H     0.000245  0.000211  0.000066
    13 H    -0.000232  0.000152 -0.000141
    14 H    -0.000229  0.000038  0.000161
    15 H     0.000551 -0.000037  0.000353
    16 H    -0.000140 -0.000201  0.000260
    17 H     0.000220  0.000015  0.000135
    18 H     0.000512  0.000264 -0.000420
    19 H    -0.000170 -0.000073 -0.000356
    20 H     0.000144  0.006973  0.003074
    21 Sn   -0.030190 -0.029244 -0.009411
    22 Cl    0.022043  0.001035  0.017285
    23 Cl    0.011598  0.019364 -0.010649
 ----------------------------------------
 Mulliken charges used for AMS results%charges...

 dE(predicted):    -0.24475E-02, dE(actual):    -0.33281E-02, Trust radius:    1.000000, all in a.u.
 
----------------------------------------------------------------------
Geometry Convergence after Step   9       (Hartree/Angstrom,Angstrom)
----------------------------------------------------------------------
current energy                               -4.36424817 Hartree
energy change                      -0.00332808     0.00023000    F
constrained gradient max            0.03062564     0.00100000    F
constrained gradient rms            0.00887816     0.00066667    F
gradient max                        0.03062564
gradient rms                        0.00887816
cart. step max                      0.14492177     0.01000000    F
cart. step rms                      0.04488341     0.00666667    F
 
 
--------
Geometry
--------
Formula: C7H12Cl2OSn
Atoms
  Index Symbol   x (angstrom)   y (angstrom)   z (angstrom)
      1      H    -0.65551959     0.22740796    -0.58332721
      2      C    -0.19051591    -1.86614659    -0.51424087
      3      C     0.09765567    -0.54944133    -0.47572871
      4      C     1.47703894    -0.09914530    -0.28372369
      5      O     1.85255490     1.06490445    -0.20829466
      6      H     0.65539127    -2.55159638    -0.42432383
      7      C    -1.37860938    -3.99742234    -1.00658422
      8      C    -1.55438624    -2.51208455    -0.63259875
      9      C    -2.41474220    -1.80804901    -1.70720245
     10      C    -2.26073267    -2.41154706     0.74726963
     11      H    -2.42768356    -1.37014291     1.03275893
     12      H    -2.34991222    -4.49409232    -1.08087505
     13      H    -0.78808660    -4.52869058    -0.25369947
     14      H    -0.87374066    -4.10617583    -1.97163749
     15      H    -3.38438330    -2.30712821    -1.79058988
     16      H    -1.92932463    -1.84570358    -2.68643635
     17      H    -2.60152088    -0.76034779    -1.46030117
     18      H    -3.23089783    -2.91535717     0.70131193
     19      H    -1.66819935    -2.88966828     1.53260159
     20      H     2.23871697    -0.90325951    -0.24382806
     21     Sn     1.21481312     2.81506335     1.51692614
     22     Cl     3.12601921     2.30231033     3.03618176
     23     Cl     2.16855765     4.58291813     0.08823040
 
Total System Charge             0.00000
 
 *** GOStep10 ***

 Energy gradients wrt nuclear displacements
 ==========================================

     Atom      Cartesian (a.u./angstrom)
                 X         Y         Z
 ----------------------------------------
     1 H     0.001109  0.000817 -0.001524
     2 C     0.000066  0.000211 -0.001314
     3 C    -0.010954 -0.009151 -0.002608
     4 C     0.010503  0.026550  0.015350
     5 O    -0.000882 -0.016063 -0.009814
     6 H     0.000414  0.000466 -0.002966
     7 C    -0.000455  0.000260  0.000864
     8 C     0.001762 -0.000355  0.003106
     9 C    -0.000601  0.000386 -0.001510
    10 C    -0.002015  0.000045  0.000572
    11 H     0.000054 -0.000417 -0.000452
    12 H     0.000249  0.000245  0.000029
    13 H    -0.000272  0.000574 -0.000239
    14 H    -0.000239  0.000339  0.000406
    15 H     0.000523 -0.000119  0.000070
    16 H     0.000017 -0.000169  0.000534
    17 H     0.000749 -0.000386  0.000273
    18 H     0.000404  0.000392  0.000090
    19 H     0.000002  0.000028 -0.000829
    20 H    -0.001126  0.003490 -0.000700
    21 Sn   -0.020932 -0.014275 -0.001622
    22 Cl    0.015266 -0.003430  0.013181
    23 Cl    0.006359  0.010562 -0.010897
 ----------------------------------------
 Mulliken charges used for AMS results%charges...

 dE(predicted):    -0.19956E-02, dE(actual):    -0.25419E-02, Trust radius:    1.000000, all in a.u.
 
----------------------------------------------------------------------
Geometry Convergence after Step  10       (Hartree/Angstrom,Angstrom)
----------------------------------------------------------------------
current energy                               -4.36679006 Hartree
energy change                      -0.00254189     0.00023000    F
constrained gradient max            0.02655686     0.00100000    F
constrained gradient rms            0.00659850     0.00066667    F
gradient max                        0.02655686
gradient rms                        0.00659850
cart. step max                      0.21185254     0.01000000    F
cart. step rms                      0.05066228     0.00666667    F
 
 
--------
Geometry
--------
Formula: C7H12Cl2OSn
Atoms
  Index Symbol   x (angstrom)   y (angstrom)   z (angstrom)
      1      H    -0.61507317     0.23549436    -0.64664302
      2      C    -0.18262280    -1.85983335    -0.46932742
      3      C     0.12450192    -0.54796017    -0.49636348
      4      C     1.50970648    -0.11357467    -0.30961975
      5      O     1.90790310     1.04976884    -0.22129536
      6      H     0.64106100    -2.55105348    -0.27802847
      7      C    -1.36921477    -3.97108699    -1.04310225
      8      C    -1.55127505    -2.49950090    -0.61852326
      9      C    -2.41763120    -1.76346801    -1.66383085
     10      C    -2.24641626    -2.44717077     0.76803606
     11      H    -2.41883106    -1.41566409     1.08548288
     12      H    -2.33871605    -4.46894735    -1.13412801
     13      H    -0.77613095    -4.52575901    -0.30903356
     14      H    -0.86391566    -4.04536705    -2.01137149
     15      H    -3.38306457    -2.26718314    -1.76848694
     16      H    -1.93211998    -1.75695245    -2.64391049
     17      H    -2.61760288    -0.72832486    -1.37696103
     18      H    -3.21298599    -2.95792490     0.71554343
     19      H    -1.64426670    -2.94262129     1.53554341
     20      H     2.23748840    -0.94549737    -0.19821521
     21     Sn     1.15293662     2.86916744     1.42527144
     22     Cl     2.91416666     2.20748725     3.00970312
     23     Cl     2.20459560     4.52257742    -0.01885125
 
Total System Charge             0.00000
 
 *** GOStep11 ***

 Energy gradients wrt nuclear displacements
 ==========================================

     Atom      Cartesian (a.u./angstrom)
                 X         Y         Z
 ----------------------------------------
     1 H     0.000628  0.001944  0.001780
     2 C     0.005926  0.002245  0.000056
     3 C    -0.011146 -0.012698  0.001860
     4 C     0.007393  0.010947 -0.008915
     5 O     0.005777  0.006558 -0.000898
     6 H    -0.000366  0.000660  0.000892
     7 C    -0.001018  0.000556  0.000881
     8 C    -0.002660 -0.002495  0.000402
     9 C    -0.000962 -0.000010 -0.001466
    10 C    -0.000542  0.000694 -0.000754
    11 H     0.000108 -0.000213 -0.000339
    12 H     0.000279 -0.000063 -0.000042
    13 H    -0.000067  0.000427 -0.000062
    14 H    -0.000119  0.000205  0.000247
    15 H     0.000075  0.000084 -0.000216
    16 H     0.000081 -0.000086  0.000365
    17 H     0.000525 -0.000405  0.000070
    18 H     0.000359  0.000212 -0.000079
    19 H     0.000175  0.000141 -0.000550
    20 H    -0.003639 -0.002279  0.005383
    21 Sn   -0.006846 -0.004252  0.000706
    22 Cl    0.005457 -0.004384  0.007362
    23 Cl    0.000581  0.002213 -0.006683
 ----------------------------------------
 Mulliken charges used for AMS results%charges...

 dE(predicted):    -0.12468E-02, dE(actual):    -0.11883E-02, Trust radius:    1.000000, all in a.u.
 
----------------------------------------------------------------------
Geometry Convergence after Step  11       (Hartree/Angstrom,Angstrom)
----------------------------------------------------------------------
current energy                               -4.36797838 Hartree
energy change                      -0.00118831     0.00023000    F
constrained gradient max            0.01269557     0.00100000    F
constrained gradient rms            0.00372352     0.00066667    F
gradient max                        0.01269557
gradient rms                        0.00372352
cart. step max                      0.21246456     0.01000000    F
cart. step rms                      0.06854776     0.00666667    F
 
 
--------
Geometry
--------
Formula: C7H12Cl2OSn
Atoms
  Index Symbol   x (angstrom)   y (angstrom)   z (angstrom)
      1      H    -0.55767920     0.22052947    -0.71111449
      2      C    -0.17915066    -1.87396318    -0.43356454
      3      C     0.15623562    -0.56918196    -0.48773096
      4      C     1.53295719    -0.16041308    -0.23107483
      5      O     1.95276258     0.99783873    -0.17604716
      6      H     0.62285798    -2.57612878    -0.19539941
      7      C    -1.37550338    -3.94407567    -1.11733944
      8      C    -1.55266160    -2.49745881    -0.60967330
      9      C    -2.43025200    -1.70424065    -1.60084669
     10      C    -2.22842251    -2.52188263     0.78705710
     11      H    -2.39688924    -1.50925789     1.16299311
     12      H    -2.34685336    -4.43505512    -1.22657272
     13      H    -0.77643143    -4.54012404    -0.42118301
     14      H    -0.87951362    -3.96550864    -2.09323022
     15      H    -3.39568616    -2.20378246    -1.72534980
     16      H    -1.95546056    -1.63819546    -2.58420177
     17      H    -2.63261336    -0.68830704    -1.25256632
     18      H    -3.19570779    -3.03029052     0.72011491
     19      H    -1.61690763    -3.05756881     1.51978143
     20      H     2.24532481    -0.99936348    -0.07087700
     21     Sn     1.11668380     2.96288805     1.26213696
     22     Cl     2.70170210     2.32723600     3.00422712
     23     Cl     2.31370111     4.48291142    -0.18765046
 
Total System Charge             0.00000
 
 *** GOStep12 ***

 Energy gradients wrt nuclear displacements
 ==========================================

     Atom      Cartesian (a.u./angstrom)
                 X         Y         Z
 ----------------------------------------
     1 H     0.000210  0.001749  0.000051
     2 C     0.007840  0.002108  0.000326
     3 C    -0.006475 -0.007489  0.000122
     4 C     0.000713  0.006372  0.000704
     5 O     0.005624  0.006398 -0.003687
     6 H     0.000068  0.000463 -0.001197
     7 C    -0.000853  0.000904  0.001086
     8 C    -0.004906 -0.003614  0.002100
     9 C    -0.000533  0.000345 -0.001358
    10 C    -0.000400  0.000797 -0.001468
    11 H     0.000014 -0.000050 -0.000051
    12 H     0.000219 -0.000159 -0.000116
    13 H     0.000062  0.000083  0.000073
    14 H     0.000033 -0.000009 -0.000015
    15 H    -0.000171 -0.000009 -0.000121
    16 H     0.000137  0.000086  0.000148
    17 H     0.000271 -0.000268 -0.000289
    18 H     0.000054  0.000076  0.000081
    19 H     0.000180  0.000159 -0.000133
    20 H    -0.001272 -0.002603  0.002425
    21 Sn    0.002508 -0.000302  0.001246
    22 Cl   -0.000374 -0.003222  0.003178
    23 Cl   -0.002949 -0.001816 -0.003106
 ----------------------------------------
 Mulliken charges used for AMS results%charges...
 Rebuilding optimization coordinates

 dE(predicted):    -0.10879E-02, dE(actual):    -0.11581E-02, Trust radius:    1.000000, all in a.u.
 
----------------------------------------------------------------------
Geometry Convergence after Step  12       (Hartree/Angstrom,Angstrom)
----------------------------------------------------------------------
current energy                               -4.36913644 Hartree
energy change                      -0.00115806     0.00023000    F
constrained gradient max            0.00784350     0.00100000    F
constrained gradient rms            0.00244060     0.00066667    F
gradient max                        0.00784350
gradient rms                        0.00244060
cart. step max                      0.22440532     0.01000000    F
cart. step rms                      0.07407466     0.00666667    F
 
 
--------
Geometry
--------
Formula: C7H12Cl2OSn
Atoms
  Index Symbol   x (angstrom)   y (angstrom)   z (angstrom)
      1      H    -0.50476579     0.20140074    -0.75569952
      2      C    -0.17972468    -1.88739509    -0.39206332
      3      C     0.18351697    -0.59047023    -0.46992514
      4      C     1.54955707    -0.20122442    -0.15739820
      5      O     1.99291526     0.94949826    -0.12866464
      6      H     0.59952159    -2.59772653    -0.10648141
      7      C    -1.37822958    -3.90995953    -1.19534395
      8      C    -1.55394246    -2.49627592    -0.59924876
      9      C    -2.44316590    -1.64678132    -1.52999817
     10      C    -2.21354022    -2.60778497     0.80126576
     11      H    -2.38007614    -1.62032053     1.24028979
     12      H    -2.35035164    -4.39466372    -1.32548457
     13      H    -0.77264513    -4.54673603    -0.54197631
     14      H    -0.89086971    -3.87179248    -2.17518870
     15      H    -3.40739075    -2.14257038    -1.67740355
     16      H    -1.97850530    -1.51547177    -2.51181294
     17      H    -2.64934179    -0.65620685    -1.11615981
     18      H    -3.18058106    -3.11409069     0.71408246
     19      H    -1.59373614    -3.18547513     1.49436679
     20      H     2.24183575    -1.04296323     0.06716906
     21     Sn     1.08424944     3.04640127     1.06527009
     22     Cl     2.47729678     2.47861457     2.96823299
     23     Cl     2.47046613     4.42859943    -0.33593941
 
Total System Charge             0.00000
 
 *** GOStep13 ***

 Energy gradients wrt nuclear displacements
 ==========================================

     Atom      Cartesian (a.u./angstrom)
                 X         Y         Z
 ----------------------------------------
     1 H     0.000196  0.001222 -0.000838
     2 C     0.007626  0.001576  0.000460
     3 C    -0.001772 -0.003402  0.000423
     4 C    -0.005354  0.003609  0.002373
     5 O     0.005871  0.005296 -0.003965
     6 H     0.000475  0.000317 -0.002176
     7 C    -0.000940  0.001172  0.001283
     8 C    -0.005404 -0.004411  0.002437
     9 C    -0.000247  0.000682 -0.001320
    10 C    -0.000156  0.001040 -0.001751
    11 H    -0.000000  0.000036  0.000155
    12 H     0.000175 -0.000272 -0.000221
    13 H     0.000124 -0.000172  0.000159
    14 H     0.000114 -0.000140 -0.000234
    15 H    -0.000340 -0.000055  0.000024
    16 H     0.000211  0.000215  0.000051
    17 H    -0.000087 -0.000139 -0.000525
    18 H    -0.000135 -0.000109  0.000120
    19 H     0.000173  0.000122  0.000210
    20 H     0.000386 -0.002161  0.002037
    21 Sn    0.007180  0.001464  0.002468
    22 Cl   -0.003204 -0.002034 -0.000636
    23 Cl   -0.004890 -0.003857 -0.000532
 ----------------------------------------
 Mulliken charges used for AMS results%charges...

 dE(predicted):    -0.20397E-02, dE(actual):    -0.10218E-02, Trust radius:    1.000000, all in a.u.
 
----------------------------------------------------------------------
Geometry Convergence after Step  13       (Hartree/Angstrom,Angstrom)
----------------------------------------------------------------------
current energy                               -4.37015824 Hartree
energy change                      -0.00102180     0.00023000    F
constrained gradient max            0.00762968     0.00100000    F
constrained gradient rms            0.00239917     0.00066667    F
gradient max                        0.00762968
gradient rms                        0.00239917
cart. step max                      0.20732415     0.01000000    F
cart. step rms                      0.07448616     0.00666667    F
 
 
--------
Geometry
--------
Formula: C7H12Cl2OSn
Atoms
  Index Symbol   x (angstrom)   y (angstrom)   z (angstrom)
      1      H    -0.45739331     0.18152861    -0.78683264
      2      C    -0.18509726    -1.89798867    -0.34467570
      3      C     0.20454659    -0.60941612    -0.44342581
      4      C     1.55786035    -0.23558376    -0.07984565
      5      O     2.02500130     0.90630939    -0.07688593
      6      H     0.57015808    -2.61373788    -0.01143067
      7      C    -1.37494432    -3.86864216    -1.27179717
      8      C    -1.55668617    -2.49518357    -0.58753762
      9      C    -2.45718093    -1.59540428    -1.45638895
     10      C    -2.20490577    -2.69920782     0.80822805
     11      H    -2.37440039    -1.74240322     1.30997259
     12      H    -2.34550076    -4.34954482    -1.42671426
     13      H    -0.76251722    -4.54191079    -0.66271454
     14      H    -0.89321412    -3.76681093    -2.24996628
     15      H    -3.41798369    -2.08911366    -1.63094982
     16      H    -1.99994558    -1.39594262    -2.43033227
     17      H    -2.67133712    -0.63589373    -0.97772327
     18      H    -3.16959141    -3.20547446     0.69586507
     19      H    -1.57744975    -3.31557336     1.46019351
     20      H     2.22905528    -1.07670454     0.20491493
     21     Sn     1.07622505     3.11719939     0.85794594
     22     Cl     2.27100015     2.64026453     2.90003376
     23     Cl     2.63679368     4.36583993    -0.46804473
 
Total System Charge             0.00000
 
 *** GOStep14 ***

 Energy gradients wrt nuclear displacements
 ==========================================

     Atom      Cartesian (a.u./angstrom)
                 X         Y         Z
 ----------------------------------------
     1 H     0.000285  0.000604 -0.001548
     2 C     0.006956  0.001027  0.000702
     3 C     0.002798  0.000198  0.000771
     4 C    -0.011321  0.001493  0.003553
     5 O     0.006042  0.003965 -0.004004
     6 H     0.000809  0.000155 -0.002558
     7 C    -0.001137  0.001502  0.001484
     8 C    -0.005553 -0.004791  0.001912
     9 C    -0.000100  0.000807 -0.001173
    10 C     0.000355  0.001329 -0.001632
    11 H     0.000032  0.000111  0.000301
    12 H     0.000148 -0.000351 -0.000362
    13 H     0.000173 -0.000383  0.000225
    14 H     0.000178 -0.000249 -0.000454
    15 H    -0.000501 -0.000042  0.000196
    16 H     0.000358  0.000351  0.000024
    17 H    -0.000596 -0.000064 -0.000689
    18 H    -0.000278 -0.000343  0.000045
    19 H     0.000158  0.000052  0.000559
    20 H     0.002058 -0.001635  0.001649
    21 Sn    0.011284  0.002708  0.004103
    22 Cl   -0.004995 -0.001226 -0.004794
    23 Cl   -0.007154 -0.005217  0.001691
 ----------------------------------------
 Mulliken charges used for AMS results%charges...

 dE(predicted):    -0.13612E-02, dE(actual):    -0.82701E-03, Trust radius:    1.000000, all in a.u.
 
----------------------------------------------------------------------
Geometry Convergence after Step  14       (Hartree/Angstrom,Angstrom)
----------------------------------------------------------------------
current energy                               -4.37098524 Hartree
energy change                      -0.00082701     0.00023000    F
constrained gradient max            0.01132826     0.00100000    F
constrained gradient rms            0.00305536     0.00066667    F
gradient max                        0.01132826
gradient rms                        0.00305536
cart. step max                      0.21315375     0.01000000    F
cart. step rms                      0.07461507     0.00666667    F
 
 
--------
Geometry
--------
Formula: C7H12Cl2OSn
Atoms
  Index Symbol   x (angstrom)   y (angstrom)   z (angstrom)
      1      H    -0.42945016     0.16342662    -0.78069640
      2      C    -0.19858162    -1.90715540    -0.28660459
      3      C     0.21240446    -0.62559605    -0.39814575
      4      C     1.55703549    -0.26326429    -0.00369434
      5      O     2.04702933     0.86868386    -0.02919636
      6      H     0.53501227    -2.62672742     0.08532376
      7      C    -1.36272558    -3.82143195    -1.34495695
      8      C    -1.56171763    -2.49662244    -0.57282428
      9      C    -2.46990583    -1.55156147    -1.38155252
     10      C    -2.20994988    -2.79951848     0.80553209
     11      H    -2.38866197    -1.88009337     1.37022899
     12      H    -2.32845858    -4.30100110    -1.53170254
     13      H    -0.74365779    -4.52655389    -0.78026406
     14      H    -0.88146208    -3.65068988    -2.31367563
     15      H    -3.42551562    -2.04234946    -1.58942877
     16      H    -2.01545084    -1.28353799    -2.34032152
     17      H    -2.69400984    -0.62811993    -0.83994371
     18      H    -3.17027272    -3.30503753     0.65748574
     19      H    -1.57871660    -3.45342852     1.41602574
     20      H     2.21114474    -1.10035509     0.32796650
     21     Sn     1.09914003     3.16995423     0.64479219
     22     Cl     2.10860569     2.83065160     2.80417901
     23     Cl     2.81065745     4.30693341    -0.58663808
 
Total System Charge             0.00000
 
 *** GOStep15 ***

 Energy gradients wrt nuclear displacements
 ==========================================

     Atom      Cartesian (a.u./angstrom)
                 X         Y         Z
 ----------------------------------------
     1 H     0.000115 -0.000013 -0.001616
     2 C     0.004479  0.000458  0.001120
     3 C     0.006264  0.002843  0.000769
     4 C    -0.015416  0.000508  0.003771
     5 O     0.005485  0.001833 -0.003792
     6 H     0.000872 -0.000100 -0.002309
     7 C    -0.001269  0.001496  0.001556
     8 C    -0.004220 -0.004679  0.000410
     9 C     0.000284  0.000901 -0.000816
    10 C     0.000713  0.001599 -0.000928
    11 H     0.000025  0.000063  0.000358
    12 H     0.000144 -0.000354 -0.000443
    13 H     0.000186 -0.000510  0.000191
    14 H     0.000230 -0.000266 -0.000585
    15 H    -0.000487 -0.000102  0.000287
    16 H     0.000449  0.000413  0.000017
    17 H    -0.000860  0.000070 -0.000609
    18 H    -0.000327 -0.000508 -0.000097
    19 H     0.000100 -0.000058  0.000705
    20 H     0.003535 -0.000557  0.001250
    21 Sn    0.012567  0.002624  0.005078
    22 Cl   -0.004819 -0.000712 -0.007151
    23 Cl   -0.008049 -0.004950  0.002835
 ----------------------------------------
 Mulliken charges used for AMS results%charges...

 dE(predicted):    -0.19068E-02, dE(actual):    -0.82579E-03, Trust radius:    1.000000, all in a.u.
 Residual max backtransformation error   0.1272E-03
 
----------------------------------------------------------------------
Geometry Convergence after Step  15       (Hartree/Angstrom,Angstrom)
----------------------------------------------------------------------
current energy                               -4.37181104 Hartree
energy change                      -0.00082579     0.00023000    F
constrained gradient max            0.01542072     0.00100000    F
constrained gradient rms            0.00342805     0.00066667    F
gradient max                        0.01542072
gradient rms                        0.00342805
cart. step max                      0.21382833     0.01000000    F
cart. step rms                      0.07139428     0.00666667    F
 
 
--------
Geometry
--------
Formula: C7H12Cl2OSn
Atoms
  Index Symbol   x (angstrom)   y (angstrom)   z (angstrom)
      1      H    -0.40360207     0.14679053    -0.77581211
      2      C    -0.21026182    -1.91467801    -0.23829808
      3      C     0.21996283    -0.64033548    -0.36137967
      4      C     1.55641565    -0.28557863     0.06307718
      5      O     2.06592831     0.83666227     0.01984109
      6      H     0.50280156    -2.63667249     0.16787204
      7      C    -1.35008509    -3.77055146    -1.40882613
      8      C    -1.56572737    -2.49622464    -0.55806327
      9      C    -2.48555297    -1.51565810    -1.30706672
     10      C    -2.21052577    -2.89144683     0.79894907
     11      H    -2.39633267    -2.01110204     1.42084882
     12      H    -2.31087217    -4.24967497    -1.62096822
     13      H    -0.72053792    -4.50009241    -0.88871779
     14      H    -0.87395222    -3.53531721    -2.36632577
     15      H    -3.43727091    -2.00252210    -1.54000542
     16      H    -2.03919770    -1.18765393    -2.25089782
     17      H    -2.71488201    -0.62796092    -0.71025667
     18      H    -3.16717461    -3.39369007     0.61976357
     19      H    -1.57377207    -3.57808293     1.36610971
     20      H     2.18858098    -1.11719732     0.44514976
     21     Sn     1.12839487     3.20177745     0.43096386
     22     Cl     1.93042116     3.00745500     2.69048413
     23     Cl     2.98973471     4.23835976    -0.66455303
 
Total System Charge             0.00000
 
 *** GOStep16 ***

 Energy gradients wrt nuclear displacements
 ==========================================

     Atom      Cartesian (a.u./angstrom)
                 X         Y         Z
 ----------------------------------------
     1 H     0.000035 -0.000480 -0.001453
     2 C     0.002146 -0.000255  0.000297
     3 C     0.007506  0.003565  0.001051
     4 C    -0.016077  0.000692  0.001823
     5 O     0.004648 -0.000253 -0.002629
     6 H     0.000747 -0.000287 -0.001775
     7 C    -0.000992  0.001511  0.001646
     8 C    -0.002449 -0.003396 -0.000542
     9 C     0.000375  0.000724 -0.000384
    10 C     0.000643  0.001376 -0.000155
    11 H    -0.000007  0.000007  0.000272
    12 H     0.000084 -0.000223 -0.000403
    13 H     0.000160 -0.000504  0.000125
    14 H     0.000226 -0.000231 -0.000575
    15 H    -0.000420 -0.000104  0.000252
    16 H     0.000478  0.000398  0.000049
    17 H    -0.000946  0.000090 -0.000402
    18 H    -0.000325 -0.000546 -0.000143
    19 H     0.000026 -0.000129  0.000669
    20 H     0.003882  0.000641  0.001644
    21 Sn    0.011666  0.002086  0.005774
    22 Cl   -0.003442 -0.000560 -0.008393
    23 Cl   -0.007962 -0.004123  0.003253
 ----------------------------------------
 Mulliken charges used for AMS results%charges...

 dE(predicted):    -0.12135E-02, dE(actual):    -0.67610E-03, Trust radius:    1.000000, all in a.u.
 Residual max backtransformation error   0.1357E-03
 
----------------------------------------------------------------------
Geometry Convergence after Step  16       (Hartree/Angstrom,Angstrom)
----------------------------------------------------------------------
current energy                               -4.37248714 Hartree
energy change                      -0.00067610     0.00023000    F
constrained gradient max            0.01608398     0.00100000    F
constrained gradient rms            0.00333620     0.00066667    F
gradient max                        0.01608398
gradient rms                        0.00333620
cart. step max                      0.21537019     0.01000000    F
cart. step rms                      0.07171544     0.00666667    F
 
 
--------
Geometry
--------
Formula: C7H12Cl2OSn
Atoms
  Index Symbol   x (angstrom)   y (angstrom)   z (angstrom)
      1      H    -0.38763818     0.13371188    -0.75091520
      2      C    -0.22523540    -1.92042636    -0.18346358
      3      C     0.22190134    -0.65303135    -0.31613748
      4      C     1.55475987    -0.30476567     0.12635021
      5      O     2.08059303     0.80837934     0.06676114
      6      H     0.46832491    -2.64383211     0.25325893
      7      C    -1.33306429    -3.71357381    -1.46771684
      8      C    -1.57037529    -2.49594421    -0.54050745
      9      C    -2.50142860    -1.48534266    -1.23123611
     10      C    -2.21527138    -2.98463292     0.78601441
     11      H    -2.40974154    -2.14831620     1.46365085
     12      H    -2.28702052    -4.19328662    -1.70784060
     13      H    -0.69173953    -4.46303540    -0.99269415
     14      H    -0.86144476    -3.41195735    -2.40840471
     15      H    -3.44923589    -1.96722602    -1.48846938
     16      H    -2.06339986    -1.10092983    -2.15747924
     17      H    -2.73464452    -0.63490414    -0.58354630
     18      H    -3.16773973    -3.48076803     0.57210608
     19      H    -1.57409866    -3.70218046     1.30783091
     20      H     2.16962105    -1.13167791     0.54280831
     21     Sn     1.17591583     3.21594320     0.21559367
     22     Cl     1.75655893     3.18666661     2.55101468
     23     Cl     3.16689590     4.16773548    -0.72508965
 
Total System Charge             0.00000
 
 *** GOStep17 ***

 Energy gradients wrt nuclear displacements
 ==========================================

     Atom      Cartesian (a.u./angstrom)
                 X         Y         Z
 ----------------------------------------
     1 H    -0.000224 -0.000716 -0.000823
     2 C    -0.000536 -0.000566  0.000130
     3 C     0.007316  0.003200  0.000355
     4 C    -0.014392  0.001346  0.000543
     5 O     0.003211 -0.002288 -0.001658
     6 H     0.000368 -0.000366 -0.000859
     7 C    -0.000833  0.001169  0.001352
     8 C    -0.000151 -0.001638 -0.001628
     9 C     0.000443  0.000314 -0.000004
    10 C     0.000713  0.000927  0.000728
    11 H    -0.000040 -0.000022  0.000155
    12 H     0.000027 -0.000138 -0.000351
    13 H     0.000088 -0.000382  0.000059
    14 H     0.000172 -0.000166 -0.000457
    15 H    -0.000253 -0.000085  0.000137
    16 H     0.000402  0.000330  0.000056
    17 H    -0.000782  0.000062 -0.000109
    18 H    -0.000247 -0.000456 -0.000236
    19 H    -0.000045 -0.000162  0.000511
    20 H     0.003976  0.001778  0.001496
    21 Sn    0.009528  0.001091  0.005700
    22 Cl   -0.001642 -0.000469 -0.008178
    23 Cl   -0.007099 -0.002763  0.003083
 ----------------------------------------
 Mulliken charges used for AMS results%charges...

 dE(predicted):    -0.87650E-03, dE(actual):    -0.58725E-03, Trust radius:    1.000000, all in a.u.
 
----------------------------------------------------------------------
Geometry Convergence after Step  17       (Hartree/Angstrom,Angstrom)
----------------------------------------------------------------------
current energy                               -4.37307439 Hartree
energy change                      -0.00058725     0.00023000    F
constrained gradient max            0.01439566     0.00100000    F
constrained gradient rms            0.00292641     0.00066667    F
gradient max                        0.01439566
gradient rms                        0.00292641
cart. step max                      0.21489951     0.01000000    F
cart. step rms                      0.07075418     0.00666667    F
 
 
--------
Geometry
--------
Formula: C7H12Cl2OSn
Atoms
  Index Symbol   x (angstrom)   y (angstrom)   z (angstrom)
      1      H    -0.37194576     0.12415486    -0.72988950
      2      C    -0.23752716    -1.92404460    -0.13761005
      3      C     0.22346041    -0.66274636    -0.27668862
      4      C     1.55373023    -0.31990761     0.18370591
      5      O     2.09352955     0.78510410     0.11601806
      6      H     0.44104562    -2.64893341     0.31995793
      7      C    -1.31798942    -3.65403903    -1.51909366
      8      C    -1.57456201    -2.49438616    -0.52270670
      9      C    -2.52061027    -1.46117595    -1.15522987
     10      C    -2.21393940    -3.06996476     0.77116787
     11      H    -2.41360876    -2.27882412     1.49972854
     12      H    -2.26512835    -4.13581525    -1.78114409
     13      H    -0.66106984    -4.41705103    -1.08966174
     14      H    -0.85645587    -3.28989104    -2.44214409
     15      H    -3.46641103    -1.93843696    -1.42730655
     16      H    -2.09685172    -1.02818967    -2.06646360
     17      H    -2.75248862    -0.64571242    -0.46345128
     18      H    -3.16324945    -3.55841319     0.52885447
     19      H    -1.56579961    -3.81356465     1.24534732
     20      H     2.14607577    -1.14318703     0.63599209
     21     Sn     1.23719235     3.21445430     0.00069416
     22     Cl     1.55578283     3.34890223     2.38598878
     23     Cl     3.34931323     4.08827322    -0.74417687
 
Total System Charge             0.00000
 
 *** GOStep18 ***

 Energy gradients wrt nuclear displacements
 ==========================================

     Atom      Cartesian (a.u./angstrom)
                 X         Y         Z
 ----------------------------------------
     1 H    -0.000111 -0.000823 -0.000624
     2 C    -0.002291 -0.000704 -0.000483
     3 C     0.005271  0.001832  0.000374
     4 C    -0.010221  0.002297 -0.001636
     5 O     0.001823 -0.003679 -0.000204
     6 H     0.000125 -0.000442 -0.000422
     7 C    -0.000534  0.000764  0.000984
     8 C     0.001524  0.000422 -0.001655
     9 C     0.000334 -0.000241  0.000281
    10 C     0.000382  0.000114  0.001322
    11 H    -0.000041 -0.000005  0.000001
    12 H    -0.000025  0.000023 -0.000185
    13 H     0.000021 -0.000197 -0.000017
    14 H     0.000116 -0.000085 -0.000272
    15 H    -0.000061 -0.000022  0.000007
    16 H     0.000262  0.000197  0.000048
    17 H    -0.000535 -0.000002  0.000097
    18 H    -0.000154 -0.000292 -0.000213
    19 H    -0.000084 -0.000109  0.000236
    20 H     0.003064  0.002621  0.001774
    21 Sn    0.006544  0.000211  0.004996
    22 Cl    0.000149 -0.000492 -0.006885
    23 Cl   -0.005559 -0.001387  0.002478
 ----------------------------------------
 Mulliken charges used for AMS results%charges...

 dE(predicted):    -0.52822E-03, dE(actual):    -0.42318E-03, Trust radius:    1.000000, all in a.u.
 
----------------------------------------------------------------------
Geometry Convergence after Step  18       (Hartree/Angstrom,Angstrom)
----------------------------------------------------------------------
current energy                               -4.37349757 Hartree
energy change                      -0.00042318     0.00023000    F
constrained gradient max            0.01022697     0.00100000    F
constrained gradient rms            0.00225854     0.00066667    F
gradient max                        0.01022697
gradient rms                        0.00225854
cart. step max                      0.21312645     0.01000000    F
cart. step rms                      0.07185681     0.00666667    F
 
 
--------
Geometry
--------
Formula: C7H12Cl2OSn
Atoms
  Index Symbol   x (angstrom)   y (angstrom)   z (angstrom)
      1      H    -0.37333841     0.12386527    -0.67252750
      2      C    -0.25221102    -1.92624705    -0.08471975
      3      C     0.21735709    -0.66881485    -0.22348416
      4      C     1.55399887    -0.33431859     0.23440807
      5      O     2.10261555     0.76477857     0.15846184
      6      H     0.41408810    -2.65177047     0.38969393
      7      C    -1.29766495    -3.58966000    -1.56394816
      8      C    -1.57931760    -2.49331716    -0.50164943
      9      C    -2.53858614    -1.44094345    -1.07895153
     10      C    -2.21752452    -3.15446651     0.75044075
     11      H    -2.42355204    -2.41262196     1.52760382
     12      H    -2.23548859    -4.07530218    -1.85120753
     13      H    -0.62387285    -4.36115263    -1.17875128
     14      H    -0.84565788    -3.16210881    -2.46376608
     15      H    -3.48360125    -1.91232282    -1.36301194
     16      H    -2.12931836    -0.96484082    -1.97502863
     17      H    -2.76576714    -0.65891101    -0.34810779
     18      H    -3.16349578    -3.63182172     0.47682561
     19      H    -1.56427329    -3.92217345     1.17626537
     20      H     2.13733202    -1.16144333     0.68900239
     21     Sn     1.31508057     3.19661877    -0.21243229
     22     Cl     1.34917758     3.50672916     2.18575824
     23     Cl     3.52651273     4.00685052    -0.73898543
 
Total System Charge             0.00000
 
 *** GOStep19 ***

 Energy gradients wrt nuclear displacements
 ==========================================

     Atom      Cartesian (a.u./angstrom)
                 X         Y         Z
 ----------------------------------------
     1 H    -0.000395 -0.000428  0.000500
     2 C    -0.003383 -0.000385 -0.000905
     3 C     0.002193 -0.000201 -0.001290
     4 C    -0.004511  0.003194 -0.001158
     5 O     0.000077 -0.004723  0.000241
     6 H    -0.000477 -0.000112  0.000958
     7 C    -0.000011  0.000041  0.000050
     8 C     0.003021  0.001933 -0.001503
     9 C     0.000272 -0.000602  0.000585
    10 C    -0.000220 -0.000752  0.001545
    11 H    -0.000041  0.000034 -0.000142
    12 H    -0.000065  0.000101  0.000017
    13 H    -0.000053  0.000022 -0.000092
    14 H     0.000025 -0.000016 -0.000009
    15 H     0.000185  0.000025 -0.000174
    16 H    -0.000055  0.000019 -0.000024
    17 H     0.000015 -0.000019  0.000249
    18 H    -0.000011  0.000025 -0.000132
    19 H    -0.000094  0.000031 -0.000144
    20 H     0.002186  0.002804  0.000808
    21 Sn    0.002352 -0.001186  0.002725
    22 Cl    0.001496 -0.000159 -0.003661
    23 Cl   -0.002506  0.000354  0.001557
 ----------------------------------------
 Mulliken charges used for AMS results%charges...

 dE(predicted):    -0.35556E-03, dE(actual):    -0.37244E-03, Trust radius:    1.000000, all in a.u.
 
----------------------------------------------------------------------
Geometry Convergence after Step  19       (Hartree/Angstrom,Angstrom)
----------------------------------------------------------------------
current energy                               -4.37387001 Hartree
energy change                      -0.00037244     0.00023000    F
constrained gradient max            0.00470582     0.00100000    F
constrained gradient rms            0.00145564     0.00066667    F
gradient max                        0.00470582
gradient rms                        0.00145564
cart. step max                      0.21810792     0.01000000    F
cart. step rms                      0.05914759     0.00666667    F
 
 
--------
Geometry
--------
Formula: C7H12Cl2OSn
Atoms
  Index Symbol   x (angstrom)   y (angstrom)   z (angstrom)
      1      H    -0.35973294     0.11871360    -0.65541119
      2      C    -0.25428352    -1.93063043    -0.06036826
      3      C     0.22171271    -0.67602384    -0.19801421
      4      C     1.55705607    -0.34472278     0.27318928
      5      O     2.11045243     0.75190251     0.20106350
      6      H     0.40788539    -2.66026059     0.41346785
      7      C    -1.29524958    -3.54067229    -1.59697949
      8      C    -1.58099073    -2.49108535    -0.48772511
      9      C    -2.55239684    -1.42454223    -1.01636476
     10      C    -2.20606933    -3.20921625     0.73813997
     11      H    -2.40756995    -2.50329487     1.54931488
     12      H    -2.23018657    -4.02607089    -1.89394657
     13      H    -0.60814897    -4.31803843    -1.24933189
     14      H    -0.85760457    -3.07049893    -2.48222257
     15      H    -3.50052312    -1.88960770    -1.30016813
     16      H    -2.16000421    -0.91883222    -1.90363738
     17      H    -2.76846071    -0.66693434    -0.25702286
     18      H    -3.15295601    -3.67730005     0.45290119
     19      H    -1.54591894    -3.99223093     1.12336744
     20      H     2.11988038    -1.17182562     0.75206893
     21     Sn     1.39029268     3.17050177    -0.38063424
     22     Cl     1.13106966     3.60772171     1.98905508
     23     Cl     3.66423936     3.93955362    -0.67885296
 
Total System Charge             0.00000
 
 *** GOStep20 ***

 Energy gradients wrt nuclear displacements
 ==========================================

     Atom      Cartesian (a.u./angstrom)
                 X         Y         Z
 ----------------------------------------
     1 H     0.000094 -0.000325  0.000060
     2 C    -0.003193 -0.000205 -0.000688
     3 C    -0.000744 -0.001791 -0.000686
     4 C     0.000398  0.003085 -0.003018
     5 O    -0.000749 -0.003886  0.001488
     6 H    -0.000277 -0.000199  0.000478
     7 C     0.000581 -0.000266 -0.000596
     8 C     0.002576  0.002797 -0.000353
     9 C     0.000129 -0.000809  0.000588
    10 C    -0.000498 -0.001256  0.001232
    11 H     0.000007  0.000067 -0.000214
    12 H    -0.000085  0.000187  0.000177
    13 H    -0.000106  0.000173 -0.000096
    14 H    -0.000027  0.000017  0.000150
    15 H     0.000248  0.000122 -0.000179
    16 H    -0.000144 -0.000064 -0.000054
    17 H     0.000216 -0.000063  0.000249
    18 H     0.000100  0.000169 -0.000029
    19 H    -0.000072  0.000113 -0.000294
    20 H     0.000413  0.002544  0.001335
    21 Sn    0.000119 -0.001339  0.001249
    22 Cl    0.001572 -0.000083 -0.001566
    23 Cl   -0.000557  0.001012  0.000767
 ----------------------------------------
 Mulliken charges used for AMS results%charges...

 dE(predicted):    -0.24449E-03, dE(actual):    -0.19736E-03, Trust radius:    1.000000, all in a.u.
 
----------------------------------------------------------------------
Geometry Convergence after Step  20       (Hartree/Angstrom,Angstrom)
----------------------------------------------------------------------
current energy                               -4.37406736 Hartree
energy change                      -0.00019736     0.00023000    T
constrained gradient max            0.00387488     0.00100000    F
constrained gradient rms            0.00114843     0.00066667    F
gradient max                        0.00387488
gradient rms                        0.00114843
cart. step max                      0.21414618     0.01000000    F
cart. step rms                      0.04827051     0.00666667    F
 
 
--------
Geometry
--------
Formula: C7H12Cl2OSn
Atoms
  Index Symbol   x (angstrom)   y (angstrom)   z (angstrom)
      1      H    -0.35874039     0.12402615    -0.61181506
      2      C    -0.24945567    -1.93555574    -0.04988786
      3      C     0.22620328    -0.67988305    -0.17516316
      4      C     1.56715287    -0.35592171     0.29100797
      5      O     2.11871295     0.74227483     0.22794383
      6      H     0.41323261    -2.66954271     0.41621720
      7      C    -1.30102046    -3.51008181    -1.61670008
      8      C    -1.58033582    -2.48909153    -0.47813555
      9      C    -2.55768109    -1.41130550    -0.97332849
     10      C    -2.19421579    -3.23901823     0.73236296
     11      H    -2.38614998    -2.55565328     1.56502433
     12      H    -2.23655902    -3.99386556    -1.91452610
     13      H    -0.60553261    -4.29130198    -1.29553947
     14      H    -0.87621433    -3.01510500    -2.49442078
     15      H    -3.51209296    -1.86916955    -1.24766365
     16      H    -2.17973133    -0.89276541    -1.85936892
     17      H    -2.75720901    -0.66507634    -0.19845536
     18      H    -3.14485743    -3.69771975     0.44503488
     19      H    -1.53118130    -4.03303521     1.08916484
     20      H     2.12933669    -1.19325282     0.75246856
     21     Sn     1.45759476     3.14490025    -0.50491447
     22     Cl     0.91692348     3.66949466     1.80685855
     23     Cl     3.76431323     3.89325474    -0.57427568
 
Total System Charge             0.00000
 
 *** GOStep21 ***

 Energy gradients wrt nuclear displacements
[...]
     8     C       0.000022  -0.000551   0.000022
     9     C       0.000031  -0.000083   0.000006
    10     C      -0.000081  -0.000089   0.000060
    11     H      -0.000174  -0.000925  -0.001480
    12     H       0.001379   0.000010  -0.000368
    13     H      -0.001561   0.001999  -0.000079
    14     H      -0.000455  -0.000812   0.001458
    15     H       0.000199  -0.000525   0.000036
    16     H       0.000470   0.001007  -0.001065
    17     H       0.000248   0.001071   0.001065
    18     H       0.001305   0.000056   0.000631
    19     H      -0.001534   0.001986  -0.000359
    20     H       0.508039  -0.853021   0.080019
    21    Sn       0.000007  -0.000077   0.000003
    22    Cl      -0.000016   0.000009  -0.000039
    23    Cl      -0.000023   0.000011   0.000036
 
 Mode:    59      Frequency (cm-1):     2994.3303     Intensity (km/mol):       18.6267
 Index  Atom      ---- Displacements (x/y/z) ----
     1     H      -0.000021   0.000026  -0.000194
     2     C       0.000030  -0.000079   0.000010
     3     C       0.000017   0.000003   0.000026
     4     C      -0.000015   0.000009   0.000038
     5     O       0.000003   0.000002  -0.000007
     6     H      -0.000568   0.000841  -0.000360
     7     C      -0.003539  -0.022338  -0.024441
     8     C      -0.000078   0.000012   0.000806
     9     C      -0.000354   0.000318   0.001047
    10     C       0.008806   0.021618  -0.026202
    11     H       0.034922   0.224033   0.313472
    12     H       0.383847   0.115996   0.026899
    13     H      -0.249972   0.337885  -0.037625
    14     H      -0.092292  -0.191807   0.297019
    15     H       0.004382   0.001534   0.000647
    16     H      -0.000015   0.002917  -0.002990
    17     H      -0.000201  -0.008190  -0.009966
    18     H      -0.401200  -0.122394  -0.043677
    19     H       0.263047  -0.355320   0.036988
    20     H       0.000065  -0.000100  -0.000069
    21    Sn       0.000000  -0.000000  -0.000002
    22    Cl       0.000002   0.000001   0.000003
    23    Cl      -0.000002  -0.000001   0.000003
 
 Mode:    60      Frequency (cm-1):     2997.1386     Intensity (km/mol):       25.0368
 Index  Atom      ---- Displacements (x/y/z) ----
     1     H      -0.001599   0.001480  -0.000204
     2     C       0.000986  -0.002703   0.000207
     3     C       0.000685   0.000062   0.000065
     4     C      -0.000385   0.000211  -0.000048
     5     O       0.000085   0.000094   0.000006
     6     H      -0.020728   0.028942  -0.003235
     7     C       0.004086   0.020814   0.025432
     8     C       0.000440  -0.000399   0.000045
     9     C      -0.011252   0.012569  -0.001440
    10     C       0.008573   0.017865  -0.024235
    11     H       0.031571   0.203345   0.288324
    12     H      -0.381957  -0.116394  -0.027735
    13     H       0.239183  -0.323355   0.035598
    14     H       0.094015   0.193718  -0.304338
    15     H       0.198179   0.068632   0.017710
    16     H      -0.049355  -0.102362   0.160116
    17     H      -0.017334  -0.113798  -0.161025
    18     H      -0.358105  -0.110047  -0.038003
    19     H       0.225549  -0.304795   0.032083
    20     H       0.001819  -0.003091   0.000291
    21    Sn      -0.000001  -0.000005   0.000000
    22    Cl       0.000003   0.000005  -0.000002
    23    Cl       0.000003   0.000005   0.000003
 
 Mode:    61      Frequency (cm-1):     3007.1895     Intensity (km/mol):        9.5583
 Index  Atom      ---- Displacements (x/y/z) ----
     1     H       0.005669  -0.008335   0.000878
     2     C       0.001114  -0.003442   0.000250
     3     C      -0.000071   0.001027  -0.000048
     4     C      -0.000134  -0.000005  -0.000014
     5     O       0.000077   0.000111   0.000004
     6     H      -0.023601   0.034228  -0.003739
     7     C       0.000569   0.008589   0.009121
     8     C      -0.000219   0.000721  -0.000052
     9     C       0.029154  -0.036486   0.003734
    10     C       0.002337   0.007873  -0.009344
    11     H       0.011103   0.073952   0.106015
    12     H      -0.132265  -0.040414  -0.010258
    13     H       0.092652  -0.127123   0.011938
    14     H       0.032520   0.067216  -0.106972
    15     H      -0.510397  -0.174546  -0.045704
    16     H       0.130002   0.282871  -0.436527
    17     H       0.042833   0.315079   0.439124
    18     H      -0.130137  -0.040010  -0.013169
    19     H       0.091570  -0.125980   0.015017
    20     H      -0.000883   0.000678  -0.000111
    21    Sn       0.000003  -0.000006   0.000001
    22    Cl      -0.000008  -0.000000  -0.000003
    23    Cl      -0.000008  -0.000000   0.000002
 
 Mode:    62      Frequency (cm-1):     3068.3260     Intensity (km/mol):        2.4418
 Index  Atom      ---- Displacements (x/y/z) ----
     1     H      -0.012581   0.019383  -0.002003
     2     C      -0.045600   0.064226  -0.007135
     3     C      -0.001166  -0.004288   0.000048
     4     C      -0.001942   0.000822  -0.000224
     5     O       0.000444   0.000288   0.000036
     6     H       0.559460  -0.735928   0.085505
     7     C       0.017612  -0.011237   0.008222
     8     C       0.000932   0.001155   0.000045
     9     C      -0.002438  -0.004808  -0.000159
    10     C       0.020105  -0.012599  -0.004065
    11     H       0.012987   0.052416   0.079504
    12     H      -0.137775  -0.049633  -0.010968
    13     H      -0.099821   0.137232  -0.013338
    14     H       0.026866   0.044056  -0.073496
    15     H       0.021034   0.008144   0.001819
    16     H       0.008446   0.021253  -0.032474
    17     H       0.002038   0.024066   0.032941
    18     H      -0.145944  -0.052741  -0.014030
    19     H      -0.107477   0.148134  -0.017150
    20     H       0.014740  -0.016784   0.002064
    21    Sn      -0.000003  -0.000006  -0.000000
    22    Cl       0.000003   0.000006  -0.000005
    23    Cl       0.000001   0.000006   0.000005
 
 Mode:    63      Frequency (cm-1):     3071.3328     Intensity (km/mol):        0.0554
 Index  Atom      ---- Displacements (x/y/z) ----
     1     H       0.000197  -0.000348   0.000620
     2     C       0.000767  -0.001084   0.000153
     3     C       0.000028   0.000075  -0.000123
     4     C       0.000037  -0.000016  -0.000052
     5     O      -0.000008  -0.000003   0.000016
     6     H      -0.009616   0.012470  -0.000646
     7     C      -0.058151   0.026488  -0.012507
     8     C       0.000019  -0.000048  -0.000068
     9     C      -0.000015   0.000140   0.001044
    10     C       0.059816  -0.027765   0.000574
    11     H       0.024926   0.051940   0.085888
    12     H       0.434966   0.148063   0.032633
    13     H       0.298226  -0.420974   0.040162
    14     H      -0.039631  -0.042394   0.076065
    15     H      -0.000936  -0.000365  -0.000994
    16     H       0.000855   0.002332  -0.004561
    17     H       0.000005  -0.003422  -0.005653
    18     H      -0.435506  -0.149307  -0.044285
    19     H      -0.302863   0.428083  -0.048822
    20     H      -0.000254   0.000279   0.000038
    21    Sn       0.000000   0.000000   0.000000
    22    Cl      -0.000000  -0.000000   0.000000
    23    Cl      -0.000000   0.000000   0.000000
 
 Mode:    64      Frequency (cm-1):     3076.2746     Intensity (km/mol):       28.8290
 Index  Atom      ---- Displacements (x/y/z) ----
     1     H       0.010037  -0.013079   0.001502
     2     C       0.015218  -0.021168   0.002374
     3     C      -0.000230   0.001936  -0.000098
     4     C       0.000709  -0.000323   0.000083
     5     O      -0.000136  -0.000068  -0.000012
     6     H      -0.188881   0.244262  -0.028691
     7     C       0.055336  -0.012246   0.000685
     8     C       0.001435  -0.001337   0.000184
     9     C      -0.028661  -0.022611  -0.003330
    10     C       0.053855  -0.010270   0.011962
    11     H       0.004900  -0.051699  -0.068650
    12     H      -0.430203  -0.142242  -0.036414
    13     H      -0.228523   0.330571  -0.031213
    14     H      -0.005255  -0.039603   0.059352
    15     H       0.298754   0.097169   0.026592
    16     H       0.030167   0.079614  -0.130715
    17     H       0.005481   0.098890   0.142904
    18     H      -0.431352  -0.142495  -0.039651
    19     H      -0.219792   0.319357  -0.035217
    20     H      -0.005869   0.006728  -0.000824
    21    Sn       0.000004  -0.000001   0.000001
    22    Cl      -0.000009  -0.000003  -0.000002
    23    Cl      -0.000009  -0.000003   0.000001
 
 Mode:    65      Frequency (cm-1):     3079.0366     Intensity (km/mol):       14.0050
 Index  Atom      ---- Displacements (x/y/z) ----
     1     H      -0.000368   0.000164  -0.000137
     2     C       0.006316  -0.008845   0.000966
     3     C       0.000330   0.000418   0.000088
     4     C       0.000221  -0.000182   0.000020
     5     O      -0.000036   0.000004  -0.000006
     6     H      -0.079994   0.102913  -0.012669
     7     C       0.022280  -0.000081  -0.003327
     8     C       0.000717  -0.001074  -0.000385
     9     C       0.023219   0.020817   0.020751
    10     C      -0.009211  -0.064773  -0.047658
    11     H       0.062310   0.406271   0.599844
    12     H      -0.180471  -0.059144  -0.015103
    13     H      -0.071637   0.104935  -0.009706
    14     H      -0.014985  -0.041916   0.067483
    15     H      -0.271791  -0.086727  -0.019910
    16     H       0.007439   0.007161   0.002906
    17     H      -0.015893  -0.164165  -0.229247
    18     H       0.275820   0.070915   0.015991
    19     H      -0.230323   0.296857  -0.047352
    20     H      -0.001946   0.002393  -0.000273
    21    Sn       0.000001  -0.000001  -0.000001
    22    Cl      -0.000000   0.000001   0.000001
    23    Cl      -0.000002   0.000001   0.000004
 
 Mode:    66      Frequency (cm-1):     3079.5546     Intensity (km/mol):       13.9702
 Index  Atom      ---- Displacements (x/y/z) ----
     1     H       0.001032  -0.001037   0.000044
     2     C      -0.005966   0.008369  -0.000951
     3     C      -0.000382  -0.000314   0.000043
     4     C      -0.000197   0.000181  -0.000034
     5     O       0.000031  -0.000009   0.000001
     6     H       0.076032  -0.097589   0.011016
     7     C       0.017653   0.061133  -0.048836
     8     C      -0.000671   0.001002  -0.000598
     9     C      -0.029839  -0.022133   0.015101
    10     C      -0.019713   0.000400  -0.006618
    11     H       0.000818   0.038796   0.055225
    12     H      -0.261631  -0.067464  -0.032876
    13     H       0.234378  -0.299948   0.019321
    14     H      -0.181220  -0.363041   0.596603
    15     H       0.302410   0.097048   0.031394
    16     H       0.062797   0.151334  -0.236577
    17     H      -0.006261   0.011248   0.027254
    18     H       0.165964   0.054841   0.015591
    19     H       0.069192  -0.100989   0.011507
    20     H       0.001792  -0.002234   0.000260
    21    Sn      -0.000000   0.000001  -0.000001
    22    Cl       0.000000  -0.000001   0.000005
    23    Cl      -0.000001  -0.000001   0.000001
 
 Mode:    67      Frequency (cm-1):     3084.3167     Intensity (km/mol):       41.5424
 Index  Atom      ---- Displacements (x/y/z) ----
     1     H      -0.007032   0.008815  -0.001014
     2     C      -0.001547   0.002042  -0.000248
     3     C       0.000360  -0.001115   0.000068
     4     C      -0.000214  -0.000078  -0.000017
     5     O       0.000066   0.000074   0.000003
     6     H       0.015143  -0.020511   0.002362
     7     C       0.028058   0.023331  -0.021397
     8     C       0.001903   0.001387   0.000298
     9     C       0.052911   0.043238   0.012961
    10     C       0.023857   0.025465   0.025399
    11     H      -0.025721  -0.197327  -0.290123
    12     H      -0.283960  -0.087086  -0.031106
    13     H       0.026052  -0.022172  -0.002113
    14     H      -0.081873  -0.174025   0.285025
    15     H      -0.575921  -0.182737  -0.049777
    16     H      -0.044088  -0.120776   0.200564
    17     H      -0.014640  -0.216126  -0.305857
    18     H      -0.290069  -0.088095  -0.020152
    19     H       0.025783  -0.022777   0.008799
    20     H       0.001038  -0.000807   0.000143
    21    Sn      -0.000003  -0.000005   0.000000
    22    Cl       0.000005   0.000007  -0.000002
    23    Cl       0.000007   0.000009   0.000002
 
 Mode:    68      Frequency (cm-1):     3086.8008     Intensity (km/mol):       19.6866
 Index  Atom      ---- Displacements (x/y/z) ----
     1     H      -0.001106   0.001506  -0.000414
     2     C      -0.000140   0.000184   0.000113
     3     C       0.000063  -0.000160   0.000161
     4     C      -0.000020  -0.000012  -0.000029
     5     O       0.000005   0.000008   0.000013
     6     H       0.001278  -0.001697  -0.000216
     7     C       0.009758   0.014286  -0.012418
     8     C       0.000352   0.000064  -0.001712
     9     C       0.014471   0.001882  -0.087696
    10     C      -0.003570  -0.010923  -0.008966
    11     H       0.011662   0.076424   0.115310
    12     H      -0.102782  -0.028919  -0.011526
    13     H       0.034532  -0.041736   0.002424
    14     H      -0.048561  -0.097860   0.163472
    15     H      -0.056867  -0.019396  -0.026434
    16     H      -0.166872  -0.387962   0.568942
    17     H       0.050436   0.384713   0.506260
    18     H       0.057969   0.015050   0.004024
    19     H      -0.028928   0.036475  -0.005670
    20     H       0.000124  -0.000084  -0.000099
    21    Sn       0.000000  -0.000001  -0.000005
    22    Cl       0.000012   0.000008   0.000009
    23    Cl      -0.000012  -0.000006   0.000008
 
 Mode:    69      Frequency (cm-1):     3184.9635     Intensity (km/mol):        1.4444
 Index  Atom      ---- Displacements (x/y/z) ----
     1     H      -0.529890   0.838288  -0.085886
     2     C       0.003198   0.002317   0.000228
     3     C       0.044390  -0.074518   0.007375
     4     C      -0.001700  -0.001547  -0.000123
     5     O       0.000319   0.000284   0.000024
     6     H      -0.015493   0.026301  -0.002603
     7     C       0.000104  -0.000131   0.000040
     8     C       0.000277  -0.000218   0.000039
     9     C      -0.000625  -0.001031   0.000030
    10     C       0.000109  -0.000135  -0.000010
    11     H       0.000032   0.000248   0.000486
    12     H      -0.001104  -0.000383  -0.000174
    13     H      -0.000887   0.001231  -0.000157
    14     H       0.000131   0.000215  -0.000497
    15     H       0.005442   0.002739   0.000471
    16     H       0.003367   0.006926  -0.009740
    17     H       0.001291   0.006975   0.009007
    18     H      -0.001128  -0.000381  -0.000016
    19     H      -0.000917   0.001264  -0.000107
    20     H      -0.010249   0.011639  -0.001401
    21    Sn      -0.000005   0.000010  -0.000002
    22    Cl       0.000000  -0.000066   0.000039
    23    Cl       0.000003  -0.000068  -0.000033

PES point character: Geometry corresponds to a local minimum on the PES.




 ============================
 Statistical Thermal Analysis  ***  ideal gas assumed  ***
 ============================
  
 Pressure:                  1.000000 atm.
 Temperature:             298.150000 K



 Moments of Inertia [amu*bohr^2] and principal axis
 ==================================================

        1989.1445       8242.7320       8388.2559
 ------------------------------------------------
           0.5199         -0.0701         -0.8514
           0.8539          0.0135          0.5203
           0.0250          0.9975         -0.0668


 The rotational contribution to the molecular entropy includes
 a term, dependent on the symmetry number sigma. The results 
 reported below were computed using sigma = 1, determined from
 the point group symmetry of the input geometry (NOSYM). 
 If this is not the correct symmetry, try symmetrizing the molecule before
 running the calculation (note: linear molecules should be aligned along one
 of the Cartesian axes).
 Contributions from frequencies below 20 1/cm are not included in vibrational sums.
 Their contributions, if any, are reported separately.


     Temp                                                        Transl      Rotat     Vibrat     Total
     ----                                                        ------      -----     ------     -----

     298.15   Entropy (cal/mol-K):                               43.012     33.286     60.095    136.393
              Nuclear Internal Energy (kcal/mol):                 0.889      0.889    117.357    119.135
              Constant Volume Heat Capacity (cal/mol-K):          2.981      2.981     46.701     52.663
          (c) Constant Volume Heat Capacity (cal/mol-K):          2.981      2.981     40.594     46.556

       Summary of energy terms
                                                   hartree              eV         kcal/mol           kJ/mol
                                      --------------------     -----------       ----------      -----------
      Energy from Engine:               -4.379186168130047       -119.1637         -2747.98        -11497.55
      Nuclear Internal Energy:           0.189852901338448          5.1662           119.13           498.46
  (c) Nuclear Internal Energy:           0.186789224682567          5.0828           117.21           490.42
      Internal Energy U:                -4.189333266791600       -113.9976         -2628.85        -10999.09
      pV/n = RT:                         0.000944186013486          0.0257             0.59             2.48
      Enthalpy H:                       -4.188389080778114       -113.9719         -2628.25        -10996.61
      -T*S:                             -0.064804860180237         -1.7634           -40.67          -170.15
  (c) -T*S:                             -0.060948945853484         -1.6585           -38.25          -160.02
      Gibbs free energy:                -4.253193940958351       -115.7353         -2668.92        -11166.76
 
 
 
  (c) The properties marked with this symbol have been corrected using 'low vibrational frequency free rotor
      interpolation corrections'. For those terms all positive frequencies are used (also ones below 20 1/cm),
      but the contribution to the partition function of small vibrational frequencies is modified as described
      in the following paper:
      S. Grimme, 'Supramolecular Binding Thermodynamics by Dispersion-Corrected Density Functional Theory'
      (Chem. Eur. J. 2012, 18, 9955-9964)
      Configuration: Dampener Frequency          :   100.000 1/cm
                     Dampener Alpha              :     4.000
                     Averaging Moment of Inertia : 1.000E-44 kg m2

--------------
Atomic charges
--------------
  Index   Atom    Charge
      1      H   -0.1365
      2      C    0.3929
      3      C    0.1730
      4      C    0.7004
      5      O   -0.5650
      6      H   -0.2087
      7      C    0.7215
      8      C   -0.0467
      9      C    0.7287
     10      C    0.7220
     11      H   -0.2246
     12      H   -0.2251
     13      H   -0.2432
     14      H   -0.2246
     15      H   -0.2550
     16      H   -0.2316
     17      H   -0.2312
     18      H   -0.2254
     19      H   -0.2434
     20      H   -0.2673
     21     Sn    0.7312
     22     Cl   -0.4212
     23     Cl   -0.4204


Dipole moment vector    (Debye):     0.06298860   -6.05894145    0.17285807
              magnitude (Debye):     6.06173399


Final PES point is a local minimum. Geometry optimization successful!


AMS application finished. Exiting.
NORMAL TERMINATION
     Total cpu time:   67364.89
  Total system time:     276.59
 Total elapsed time:  135994.22
 WARNING: total elapsed time is much higher than the (CPU+system) time. 
 Make sure the machine is not oversubscribed and has enough memory, SCM_TMPDIR p
 oints to a fast file system, and the network is fast enough.
