

 Parallel Execution: Process Information
 ==============================================================================
 Rank   Node Name                              NodeID   MyNodeRank  NodeMaster
    0   node120                                   0          0          0
    1   node120                                   0          1         -1
    2   node120                                   0          2         -1
    3   node120                                   0          3         -1
 ==============================================================================


May use up to 122928MB of RAM as shared memory on node 0

 *******************************************************************************
 *                                                                             *
 *  --------------------------------                                           *
 *   Amsterdam Modeling Suite (AMS)              2021.102                      *
 *  --------------------------------                                           *
 *                                               r95042 2021-06-07             *
 *                                                                             *
 *                                                                             *
 *                              =================                              *
 *                              |               |                              *
 *                              |     A M S     |                              *
 *                              |               |                              *
 *                              =================                              *
 *                                                                             *
 *                                                                             *
 *   Online information and documentation:  https://www.scm.com/support/       *
 *   E-mail:  support@scm.com   info@scm.com                                   *
 *                                                                             *
 *   Scientific publications using AMS results must be properly referenced     *
 *   See the User Manuals (or the web site) for recommended citations          *
 *   The terms and conditions of the End User License Agreement apply to       *
 *   the use of AMS, https://www.scm.com/license-terms/                        *
 *                                                                             *
 **********************  x86_64_linux_intel / intelmpi  ************************
 
 Licensed to: VU/FEW (+ SARA) / ALGEMEEN / Amsterdam / THE NETHERLANDS
 SCM User ID: u7668
  
 AMS 2021.102  RunTime: Jan28-2022 10:53:23  ShM Nodes: 1  Procs: 4

 AMS jobname: 51.achiral_catalyst.H_tBu_ZnCl2.TS
 AMS jobid  : 38633009

 Start   directory: /scistor/tc/yhk800/MasterProject/calculations/achiral_catalyst_H_tBu_ZnCl2/51.achiral_catalyst.H_tBu_ZnCl2.TS/
 Results directory: /scistor/tc/yhk800/MasterProject/calculations/achiral_catalyst_H_tBu_ZnCl2/51.achiral_catalyst.H_tBu_ZnCl2.TS/
 Scratch directory: /scratch/5507/amstmp_51.achiral_catalyst.H_tBu_ZnCl2.TS_kid0.38633009/


 Communication costs MPI_COMM_WORLD:      1.827 usec per message,   0.0301 usec per 8-byte item
 Communication costs for intra-node:      0.946 usec per message,   0.0039 usec per 8-byte item

 RNG seed: 326280443 1637621384 -90147170 -1519300436 393809015 -16522438 1864324310 -1716611055



                      ************************************************************************
                      *  ADF 2021.102  RunTime: Jan28-2022 10:53:23  ShM Nodes: 1  Procs: 4  *
                      ************************************************************************
  
       *****************************
       *  TRANSITION STATE SEARCH  *
       *****************************

Optimization Method                    Quasi Newton
Optimization Coordinates               Delocalized Coordinates
Optimize lattice                       F
 
 ------------------------------------------------------
 Convergence criteria (Hartree,Angstrom)
 ------------------------------------------------------
 Maximum gradient               0.001000000000
 Maximum rms gradient           0.000666666667
 Maximum step allowed           0.010000000000
 Maximum rms step allowed       0.006666666667
 Maximum energy change allowe   0.000270000000
 Maximum stress energy allowe   0.000500000000
 
Initial model Hessian                  Automatic Hessian
 
------------------------------------
Quasi-Newton Optimizer Parameters
------------------------------------
Hessian Update Method                  Bofill
Maximum number of steps                  250
First GDIIS cycle                          0
Maximum GDIIS vectors                      0
Trust radius (bohr)                        0.200000
Trust radius varies                        F
Constraints converged at all steps         T
Use projector                              T
 
 Rigid motions settings for: old optimizer
 Atomic rotations (x,y,z):     T T T
 Atomic translations (x,y,z):  T T T
 Tolerance:                   1.000000000000000E-006
 
           1  TSRC entries:
    i   type      a1    a2    a3    a4    coef
    1 Distance     2    10               -1.000
 
--------
Geometry
--------
Formula: C8H15Cl2OSn
Atoms
  Index Symbol   x (angstrom)   y (angstrom)   z (angstrom)
      1      H     0.19369716    -1.85361092    -0.24516176
      2      C    -0.92057816    -0.12292898     0.28183759
      3      C     0.21368396    -0.77846351    -0.06958517
      4      C     1.52168394    -0.13059856    -0.22805405
      5      O     2.57084417    -0.68022178    -0.54313771
      6      H    -0.93117356     0.95749943     0.37346659
      7      H    -1.16677948    -1.14795174     3.01281369
      8      H    -2.10496465     0.45730942     2.86041604
      9      H    -0.24714630     0.47546451     3.02589233
     10      C    -1.16197426    -0.07675120     2.85297480
     11      C    -2.70617814    -1.13198073    -1.13307527
     12      C    -2.27774025    -0.85018701     0.31024211
     13      C    -3.29814455     0.05623311     1.00544670
     14      C    -2.10857613    -2.16055035     1.08513774
     15      H    -1.77993511    -1.95738108     2.10497923
     16      H    -3.66728922    -1.64847593    -1.15378817
     17      H    -1.96534043    -1.75736397    -1.63248955
     18      H    -2.80193402    -0.19835583    -1.68853426
     19      H    -4.27589769    -0.42685762     1.04485445
     20      H    -3.39798001     0.99804667     0.46472548
     21      H    -2.97770152     0.27467949     2.02473899
     22      H    -3.05288672    -2.70596191     1.12678586
     23      H    -1.36362000    -2.79302204     0.60101043
     24      H     1.51741535     0.92352060    -0.04443873
     25     Sn     3.93691787     0.31396217    -0.73139533
     26     Cl     5.61246515     0.71374680     0.91317142
     27     Cl     4.90148469     1.41079126    -2.61246203
 
Total System Charge             0.00000
 
 
----------------
ADF Engine Input
----------------
 
 NumericalQuality VeryGood
 SCF
 Converge 1.0e-6
 Iterations 99
 End
 SYMMETRY NOSYM
 SpinPolarization 1.0
 Unrestricted Yes
 XC
 GGA OLYP
 End
 basis
 core None
 type TZ2P
 End
 

 Title: *** (NO TITLE) ***

 Using automatic Hessian for delocalized coordinates.
 *** GOStep1 ***

 Energy gradients wrt nuclear displacements
 ==========================================

     Atom      Cartesian (a.u./angstrom)
                 X         Y         Z
 ----------------------------------------
     1 H    -0.004816 -0.003501  0.000390
     2 C     0.069389 -0.013627 -0.078871
     3 C    -0.166488 -0.015393  0.041509
     4 C     0.362045 -0.024369 -0.076626
     5 O     0.163166  0.403578  0.001956
     6 H    -0.000053 -0.004370  0.009036
     7 H    -0.013732 -0.027528 -0.025489
     8 H    -0.043236 -0.001462 -0.042646
     9 H    -0.003196 -0.000948 -0.006383
    10 C    -0.047214 -0.022288  0.004919
    11 C     0.003289  0.001876  0.003320
    12 C    -0.019912 -0.017622 -0.010083
    13 C     0.024118  0.006172  0.017354
    14 C     0.016007  0.017385  0.010714
    15 H     0.016200  0.025185  0.029188
    16 H     0.004244  0.002072  0.002779
    17 H     0.000427  0.002376  0.005589
    18 H     0.001649 -0.002398  0.005836
    19 H     0.007058 -0.000272  0.002999
    20 H     0.004252 -0.005895  0.002255
    21 H     0.043327  0.005772  0.042975
    22 H     0.003898  0.006132  0.003083
    23 H     0.003332  0.008650 -0.002373
    24 H     0.000609 -0.039538 -0.008168
    25 Sn   -0.396106 -0.305730  0.048954
    26 Cl   -0.015915  0.012544 -0.025092
    27 Cl   -0.012338 -0.006801  0.042875
 ----------------------------------------
 Mulliken charges used for AMS results%charges...
           Primitive Internal Coordinates (atoms in internal order)
-------------------------------------------------------------------------------
    index    type      i       j       k       l   value(A,deg)     TSRC Vect
-------------------------------------------------------------------------------
       1     bnd       1       3       0       0     1.08957265    -0.00000000
       2     bnd       2       6       0       0     1.08435865    -0.00000000
       3     bnd       2      12       0       0     1.54000000    -0.00841300
       4     bnd       2       3       0       0     1.35638270    -0.00000000
       5     bnd       3       4       0       0     1.46823204     0.00000000
       6     bnd       4      24       0       0     1.07000000    -0.00000000
       7     bnd       4       5       0       0     1.22560213    -0.00000000
       8     bnd       5      25       0       0     1.70000000    -0.00000000
       9     bnd       8      10       0       0     1.08374674    -0.00712836
      10     bnd       7      10       0       0     1.08307071    -0.00530995
      11     bnd       9      10       0       0     1.08247534    -0.00000000
      12     bnd      11      17       0       0     1.09057752     0.00000000
      13     bnd      11      12       0       0     1.53170878    -0.00000000
      14     bnd      12      14       0       0     1.53170879    -0.01050536
      15     bnd      12      13       0       0     1.53170878    -0.01362022
      16     bnd      13      19       0       0     1.09129777     0.00000000
      17     bnd      13      21       0       0     1.09057752    -0.04308487
      18     bnd      14      22       0       0     1.09129777     0.00000000
      19     bnd      14      15       0       0     1.09057752    -0.03932883
      20     bnd      11      16       0       0     1.09129777    -0.00000000
      21     bnd      11      18       0       0     1.09057752     0.00000000
      22     bnd      13      20       0       0     1.09057753    -0.00000000
      23     bnd      14      23       0       0     1.09057752    -0.00000000
      24     bnd       4      25       0       0     2.50685892     0.00000000
      25     bnd      25      27       0       0     2.38156149     0.00000000
      26     bnd      25      26       0       0     2.38157222    -0.00000000
      27     bnd       7      15       0       0     1.36209364    -0.03085990
      28     bnd       8      21       0       0     1.22203906    -0.03287133
      29     ang       6       2      12       0   117.41061246     0.00000000
      30     ang       6       2       3       0   120.77103538     0.00000000
      31     ang      12       2       3       0   120.89733876    -0.00000000
      32     ang       1       3       2       0   120.21909900    -0.00000000
      33     ang       1       3       4       0   115.74474309    -0.00000000
      34     ang       2       3       4       0   124.03410402     0.00000000
      35     ang       3       4      24       0   114.37019779     0.00000000
      36     ang       3       4       5       0   126.33327002    -0.00000000
      37     ang       3       4      25       0   163.38119183    -0.00000000
      38     ang      24       4       5       0   119.29637471     0.00000000
      39     ang      24       4      25       0    82.16002634     0.00000000
      40     ang       5       4      25       0    37.17058570    -0.00000000
      41     ang       4       5      25       0   117.00680806     0.00000000
      42     ang      10       7      15       0   119.43110153     0.01106394
      43     ang      10       8      21       0   122.89272049     0.01286683
      44     ang       8      10       7       0   118.84988012    -0.00411492
      45     ang       8      10       9       0   118.87311123    -0.00658368
      46     ang       7      10       9       0   118.99448321    -0.00549185
      47     ang      17      11      12       0   110.30372147    -0.00000000
      48     ang      17      11      16       0   108.55265565     0.00000000
      49     ang      17      11      18       0   108.50099190     0.00000000
      50     ang      12      11      16       0   110.56689159     0.00000000
      51     ang      12      11      18       0   110.30372122    -0.00000000
      52     ang      16      11      18       0   108.55265584     0.00000000
      53     ang       2      12      11       0   108.42142155     0.04847580
      54     ang       2      12      14       0   108.42142138    -0.02580540
      55     ang       2      12      13       0   108.42142163    -0.02690602
      56     ang      11      12      14       0   110.50030803    -0.02126142
      57     ang      11      12      13       0   110.50030844    -0.02194200
      58     ang      14      12      13       0   110.50030810     0.04727065
      59     ang      12      13      19       0   110.56689169     0.00016065
      60     ang      12      13      21       0   110.30372120    -0.02078036
      61     ang      12      13      20       0   110.30372081     0.00943778
      62     ang      19      13      21       0   108.55265628     0.03169333
      63     ang      19      13      20       0   108.55265560    -0.00196474
      64     ang      21      13      20       0   108.50099212    -0.01826548
      65     ang      12      14      22       0   110.56689120    -0.00205677
      66     ang      12      14      15       0   110.30372073    -0.01984715
      67     ang      12      14      23       0   110.30372111     0.01122531
      68     ang      22      14      15       0   108.55265617     0.03417305
      69     ang      22      14      23       0   108.55265628    -0.00188086
      70     ang      15      14      23       0   108.50099221    -0.02135436
      71     ang      14      15       7       0   150.41554278    -0.08611095
      72     ang      13      21       8       0   151.51189577    -0.09075394
      73     ang       5      25      27       0   133.02068152    -0.00000000
      74     ang       5      25      26       0   125.94803217     0.00000000
      75     ang       4      25      27       0   129.08510115    -0.00000000
      76     ang       4      25      26       0   124.67711166     0.00000000
      77     ang      27      25      26       0   100.55396798    -0.00000000
      78     dih       6       2      12      11    97.82854891    -0.00048423
      79     dih       6       2      12      14   217.82854865    -0.01295263
      80     dih       6       2      12      13   -22.17145147     0.01343686
      81     dih       3       2      12      11   -71.27064345    -0.00048423
      82     dih       3       2      12      14    48.72935630    -0.01295263
      83     dih       3       2      12      13   168.72935617     0.01343686
      84     dih       6       2       3       1   185.43025046    -0.00000000
      85     dih       6       2       3       4     5.97435318    -0.00000000
      86     dih      12       2       3       1    -5.83693582    -0.00000000
      87     dih      12       2       3       4   174.70716690    -0.00000000
      88     dih       1       3       4      24   180.37552847    -0.00000000
      89     dih       1       3       4       5     0.52197473    -0.00000000
      90     dih       1       3       4      25     6.59180955    -0.00000000
      91     dih       2       3       4      24    -0.14644617     0.00000000
      92     dih       2       3       4       5   180.00000148     0.00000000
      93     dih       2       3       4      25   186.06983491     0.00000000
      94     dih       3       4       5      25   177.13092032    -0.00000000
      95     dih      24       4       5      25    -2.71611828    -0.00000000
      96     dih       4       5      25      27   267.05932478    -0.00000000
      97     dih       4       5      25      26    96.59812160     0.00000000
      98     dih      21       8      10       7   -64.89060948    -0.04846506
      99     dih      21       8      10       9   135.76133749     0.00165511
     100     dih      15       7      10       8    64.25404055     0.05398918
     101     dih      15       7      10       9   223.57678807     0.00358044
     102     dih      17      11      12       2    59.92224995     0.00057907
     103     dih      17      11      12      14   -58.77116296     0.01491073
     104     dih      17      11      12      13   178.61566341    -0.01548980
     105     dih      16      11      12       2   180.00000000     0.00057907
     106     dih      16      11      12      14    61.30658712     0.01491073
     107     dih      16      11      12      13   -61.30658651    -0.01548980
     108     dih      18      11      12       2   -59.92224980     0.00057907
     109     dih      18      11      12      14   181.38433729     0.01491073
     110     dih      18      11      12      13    58.77116366    -0.01548980
     111     dih       2      12      14      22   179.99999915    -0.03039783
     112     dih       2      12      14      15    59.92224993    -0.05884902
     113     dih       2      12      14      23   -59.92224967    -0.02679816
     114     dih      11      12      14      22   -61.30658704     0.00047305
     115     dih      11      12      14      15   178.61566296    -0.02797813
     116     dih      11      12      14      23    58.77116335     0.00407272
     117     dih      13      12      14      22    61.30658678    -0.00957018
     118     dih      13      12      14      15   -58.77116322    -0.03802136
     119     dih      13      12      14      23   181.38433718    -0.00597050
     120     dih       2      12      13      19   179.99999915     0.02851118
     121     dih       2      12      13      21   -59.92224944     0.05469386
     122     dih       2      12      13      20    59.92225015     0.02474432
     123     dih      11      12      13      19    61.30658640    -0.00129226
     124     dih      11      12      13      21   181.38433715     0.02489043
     125     dih      11      12      13      20   -58.77116326    -0.00505911
     126     dih      14      12      13      19   -61.30658719     0.00835329
     127     dih      14      12      13      21    58.77116356     0.03453597
     128     dih      14      12      13      20   178.61566315     0.00458643
     129     dih      12      13      21       8    31.37418389     0.00928867
     130     dih      19      13      21       8   152.65821231     0.01683841
     131     dih      20      13      21       8   -89.55318409     0.02193927
     132     dih      12      14      15       7   -23.92743686    -0.01378839
     133     dih      22      14      15       7   214.78853567    -0.02076142
     134     dih      23      14      15       7    96.99993126    -0.02562224
     135     dih       3       4      25       5    -8.10496260    -0.00000000
     136     dih       3       4      25      27   101.73349954    -0.00000000
     137     dih       3       4      25      26   249.82392237    -0.00000000
     138     dih      24       4      25       5   177.60912466    -0.00000000
     139     dih      24       4      25      27   -72.55241320    -0.00000000
     140     dih      24       4      25      26    75.53800964     0.00000000
     141     dih       5       4      25      27   109.83846214    -0.00000000
     142     dih       5       4      25      26   257.92888497    -0.00000000
     143     dih      10       7      15      14    27.97958941     0.00097742
     144     dih      10       8      21      13   -35.32547570     0.00079617
     145     bnd       2      10       0       0     2.58285714    -0.61594090
Hessian eigenvector     1(    -0.036) has overlap with TSRC:    0.64765E+00
Hessian eigenvector     1 has the largest overlap with TSRC:  0.64765
           Primitive Internal Coordinates (atoms in internal order)
-------------------------------------------------------------------------------
    index    type      i       j       k       l   value(A,deg)     Max Ovl Vect
-------------------------------------------------------------------------------
       1     bnd       1       3       0       0     1.08957265    -0.00000000
       2     bnd       2       6       0       0     1.08435865    -0.00000000
       3     bnd       2      12       0       0     1.54000000     0.00218219
       4     bnd       2       3       0       0     1.35638270     0.00000000
       5     bnd       3       4       0       0     1.46823204    -0.00000000
       6     bnd       4      24       0       0     1.07000000    -0.00000000
       7     bnd       4       5       0       0     1.22560213    -0.00000000
       8     bnd       5      25       0       0     1.70000000    -0.00000000
       9     bnd       8      10       0       0     1.08374674     0.00147958
      10     bnd       7      10       0       0     1.08307071     0.00108111
      11     bnd       9      10       0       0     1.08247534    -0.00000000
      12     bnd      11      17       0       0     1.09057752    -0.00000000
      13     bnd      11      12       0       0     1.53170878    -0.00000000
      14     bnd      12      14       0       0     1.53170879     0.00289544
      15     bnd      12      13       0       0     1.53170878     0.00396885
      16     bnd      13      19       0       0     1.09129777     0.00000000
      17     bnd      13      21       0       0     1.09057752     0.01140658
      18     bnd      14      22       0       0     1.09129777    -0.00000000
      19     bnd      14      15       0       0     1.09057752     0.00998691
      20     bnd      11      16       0       0     1.09129777    -0.00000000
      21     bnd      11      18       0       0     1.09057752     0.00000000
      22     bnd      13      20       0       0     1.09057753    -0.00000000
      23     bnd      14      23       0       0     1.09057752     0.00000000
      24     bnd       4      25       0       0     2.50685892    -0.00000000
      25     bnd      25      27       0       0     2.38156149     0.00000000
      26     bnd      25      26       0       0     2.38157222     0.00000000
      27     bnd       7      15       0       0     1.36209364     0.02098893
      28     bnd       8      21       0       0     1.22203906     0.01936461
      29     ang       6       2      12       0   117.41061246     0.00000000
      30     ang       6       2       3       0   120.77103538    -0.00000000
      31     ang      12       2       3       0   120.89733876    -0.00000000
      32     ang       1       3       2       0   120.21909900     0.00000000
      33     ang       1       3       4       0   115.74474309     0.00000000
      34     ang       2       3       4       0   124.03410402    -0.00000000
      35     ang       3       4      24       0   114.37019779    -0.00000000
      36     ang       3       4       5       0   126.33327002     0.00000000
      37     ang       3       4      25       0   163.38119183     0.00000000
      38     ang      24       4       5       0   119.29637471     0.00000000
      39     ang      24       4      25       0    82.16002634     0.00000000
      40     ang       5       4      25       0    37.17058570     0.00000000
      41     ang       4       5      25       0   117.00680806    -0.00000000
      42     ang      10       7      15       0   119.43110153     0.01426577
      43     ang      10       8      21       0   122.89272049     0.01900162
      44     ang       8      10       7       0   118.84988012     0.01947415
      45     ang       8      10       9       0   118.87311123     0.01049296
      46     ang       7      10       9       0   118.99448321     0.01026597
      47     ang      17      11      12       0   110.30372147     0.00000000
      48     ang      17      11      16       0   108.55265565     0.00000000
      49     ang      17      11      18       0   108.50099190     0.00000000
      50     ang      12      11      16       0   110.56689159     0.00000000
      51     ang      12      11      18       0   110.30372122    -0.00000000
      52     ang      16      11      18       0   108.55265584    -0.00000000
      53     ang       2      12      11       0   108.42142155    -0.04508239
      54     ang       2      12      14       0   108.42142138     0.02813116
      55     ang       2      12      13       0   108.42142163     0.03104610
      56     ang      11      12      14       0   110.50030803     0.01088552
      57     ang      11      12      13       0   110.50030844     0.01082174
      58     ang      14      12      13       0   110.50030810    -0.03524179
      59     ang      12      13      19       0   110.56689169    -0.01201846
      60     ang      12      13      21       0   110.30372120     0.02852668
      61     ang      12      13      20       0   110.30372081     0.00013409
      62     ang      19      13      21       0   108.55265628    -0.03278900
      63     ang      19      13      20       0   108.55265560    -0.00260057
      64     ang      21      13      20       0   108.50099212     0.01832409
      65     ang      12      14      22       0   110.56689120    -0.00948296
      66     ang      12      14      15       0   110.30372073     0.02270325
      67     ang      12      14      23       0   110.30372111     0.00003664
      68     ang      22      14      15       0   108.55265617    -0.03187712
      69     ang      22      14      23       0   108.55265628    -0.00207001
      70     ang      15      14      23       0   108.50099221     0.02037455
      71     ang      14      15       7       0   150.41554278     0.13283604
      72     ang      13      21       8       0   151.51189577     0.13336886
      73     ang       5      25      27       0   133.02068152    -0.00000000
      74     ang       5      25      26       0   125.94803217     0.00000000
      75     ang       4      25      27       0   129.08510115    -0.00000000
      76     ang       4      25      26       0   124.67711166    -0.00000000
      77     ang      27      25      26       0   100.55396798     0.00000000
      78     dih       6       2      12      11    97.82854891     0.00053499
      79     dih       6       2      12      14   217.82854865     0.00383550
      80     dih       6       2      12      13   -22.17145147    -0.00437049
      81     dih       3       2      12      11   -71.27064345     0.00053499
      82     dih       3       2      12      14    48.72935630     0.00383550
      83     dih       3       2      12      13   168.72935617    -0.00437049
      84     dih       6       2       3       1   185.43025046     0.00000000
      85     dih       6       2       3       4     5.97435318     0.00000000
      86     dih      12       2       3       1    -5.83693582    -0.00000000
      87     dih      12       2       3       4   174.70716690    -0.00000000
      88     dih       1       3       4      24   180.37552847     0.00000000
      89     dih       1       3       4       5     0.52197473     0.00000000
      90     dih       1       3       4      25     6.59180955     0.00000000
      91     dih       2       3       4      24    -0.14644617    -0.00000000
      92     dih       2       3       4       5   180.00000148    -0.00000000
      93     dih       2       3       4      25   186.06983491    -0.00000000
      94     dih       3       4       5      25   177.13092032     0.00000000
      95     dih      24       4       5      25    -2.71611828    -0.00000000
      96     dih       4       5      25      27   267.05932478     0.00000000
      97     dih       4       5      25      26    96.59812160    -0.00000000
      98     dih      21       8      10       7   -64.89060948     0.13053161
      99     dih      21       8      10       9   135.76133749     0.00668728
     100     dih      15       7      10       8    64.25404055    -0.13729067
     101     dih      15       7      10       9   223.57678807    -0.01324405
     102     dih      17      11      12       2    59.92224995    -0.00117059
     103     dih      17      11      12      14   -58.77116296    -0.01433480
     104     dih      17      11      12      13   178.61566341     0.01550402
     105     dih      16      11      12       2   180.00000000    -0.00117059
     106     dih      16      11      12      14    61.30658712    -0.01433480
     107     dih      16      11      12      13   -61.30658651     0.01550402
     108     dih      18      11      12       2   -59.92224980    -0.00117059
     109     dih      18      11      12      14   181.38433729    -0.01433480
     110     dih      18      11      12      13    58.77116366     0.01550402
     111     dih       2      12      14      22   179.99999915     0.07022718
     112     dih       2      12      14      15    59.92224993     0.10140501
     113     dih       2      12      14      23   -59.92224967     0.06155300
     114     dih      11      12      14      22   -61.30658704     0.03883854
     115     dih      11      12      14      15   178.61566296     0.07001637
     116     dih      11      12      14      23    58.77116335     0.03016437
     117     dih      13      12      14      22    61.30658678     0.03591653
     118     dih      13      12      14      15   -58.77116322     0.06709436
     119     dih      13      12      14      23   181.38433718     0.02724235
     120     dih       2      12      13      19   179.99999915    -0.06784376
     121     dih       2      12      13      21   -59.92224944    -0.09802146
     122     dih       2      12      13      20    59.92225015    -0.05693570
     123     dih      11      12      13      19    61.30658640    -0.03819168
     124     dih      11      12      13      21   181.38433715    -0.06836939
     125     dih      11      12      13      20   -58.77116326    -0.02728362
     126     dih      14      12      13      19   -61.30658719    -0.03530694
     127     dih      14      12      13      21    58.77116356    -0.06548464
     128     dih      14      12      13      20   178.61566315    -0.02439888
     129     dih      12      13      21       8    31.37418389    -0.02230646
     130     dih      19      13      21       8   152.65821231    -0.04038119
     131     dih      20      13      21       8   -89.55318409    -0.05149937
     132     dih      12      14      15       7   -23.92743686     0.03517736
     133     dih      22      14      15       7   214.78853567     0.05314333
     134     dih      23      14      15       7    96.99993126     0.06198346
     135     dih       3       4      25       5    -8.10496260     0.00000000
     136     dih       3       4      25      27   101.73349954     0.00000000
     137     dih       3       4      25      26   249.82392237    -0.00000000
     138     dih      24       4      25       5   177.60912466    -0.00000000
     139     dih      24       4      25      27   -72.55241320     0.00000000
     140     dih      24       4      25      26    75.53800964    -0.00000000
     141     dih       5       4      25      27   109.83846214     0.00000000
     142     dih       5       4      25      26   257.92888497    -0.00000000
     143     dih      10       7      15      14    27.97958941    -0.01374500
     144     dih      10       8      21      13   -35.32547570     0.00535002
     145     bnd       2      10       0       0     2.58285714     0.91592106
 
----------------------------------------------------------------------
Geometry Convergence after Step   1       (Hartree/Angstrom,Angstrom)
----------------------------------------------------------------------
current energy                               -4.77285809 Hartree
energy change                      -4.77285809     0.00027000    F
constrained gradient max            0.40360724     0.00100000    F
constrained gradient rms            0.08902472     0.00066667    F
gradient max                        0.40360724
gradient rms                        0.08902472
cart. step max                      0.10596455     0.01000000    F
cart. step rms                      0.01993655     0.00666667    F
 
 
--------
Geometry
--------
Formula: C8H15Cl2OSn
Atoms
  Index Symbol   x (angstrom)   y (angstrom)   z (angstrom)
      1      H     0.22153297    -1.86251463    -0.23863080
      2      C    -0.91805008    -0.13739062     0.28197445
      3      C     0.22781575    -0.78663236    -0.06871271
      4      C     1.51887516    -0.12878564    -0.23079941
      5      O     2.58139142    -0.68835508    -0.54106287
      6      H    -0.93211351     0.94439839     0.36021523
      7      H    -1.17781558    -1.15791322     3.03637332
      8      H    -2.08795885     0.45869978     2.87346781
      9      H    -0.23439723     0.45467951     3.13185688
     10      C    -1.14721280    -0.08214074     2.90551312
     11      C    -2.70874836    -1.13879941    -1.14314493
     12      C    -2.27986904    -0.85642536     0.30196419
     13      C    -3.29187653     0.06705398     0.98834467
     14      C    -2.13446852    -2.16760666     1.08288788
     15      H    -1.80355791    -1.96068104     2.10324827
     16      H    -3.67658500    -1.64354419    -1.16490843
     17      H    -1.97596538    -1.77559604    -1.64078133
     18      H    -2.79268584    -0.20674533    -1.70411224
     19      H    -4.27778966    -0.40056590     1.02744714
     20      H    -3.37749943     1.00893937     0.44402815
     21      H    -2.96464486     0.28411347     2.00854503
     22      H    -3.08750075    -2.69894287     1.12393160
     23      H    -1.39916686    -2.81747917     0.60674715
     24      H     1.50439664     0.93049222    -0.05507892
     25     Sn     3.94289288     0.36044250    -0.73726974
     26     Cl     5.62895051     0.74705754     0.90338413
     27     Cl     4.90440296     1.41483182    -2.64905620
 
Total System Charge             0.00000
 
 *** GOStep2 ***

 Energy gradients wrt nuclear displacements
 ==========================================

     Atom      Cartesian (a.u./angstrom)
                 X         Y         Z
 ----------------------------------------
     1 H    -0.003225 -0.002581  0.000017
     2 C     0.057182 -0.007578 -0.063552
     3 C    -0.142071 -0.017148  0.036593
     4 C     0.309590 -0.009826 -0.064308
     5 O     0.141022  0.351146 -0.004671
     6 H    -0.000912 -0.004018  0.006694
     7 H    -0.013997 -0.026246 -0.024120
     8 H    -0.041228 -0.000801 -0.040187
     9 H    -0.002506 -0.000621 -0.003900
    10 C    -0.036409 -0.017825  0.003527
    11 C     0.001407  0.000895  0.003788
    12 C    -0.020247 -0.016651 -0.010903
    13 C     0.020677  0.005252  0.012466
    14 C     0.013125  0.014089  0.007669
    15 H     0.016274  0.024228  0.028986
    16 H     0.003741  0.001662  0.001834
    17 H     0.000289  0.002140  0.004935
    18 H     0.001429 -0.002057  0.005260
    19 H     0.005746 -0.000393  0.002171
    20 H     0.003675 -0.005084  0.001863
    21 H     0.041308  0.004883  0.042230
    22 H     0.003314  0.004811  0.002367
    23 H     0.002454  0.007395 -0.001639
    24 H    -0.002259 -0.033475 -0.006139
    25 Sn   -0.330078 -0.283195  0.040443
    26 Cl   -0.015479  0.014123 -0.022257
    27 Cl   -0.012825 -0.003127  0.040835
 ----------------------------------------
 Mulliken charges used for AMS results%charges...
Hessian eigenvector     1(    -0.024) has overlap with TSRC:    0.62168E+00
Hessian eigenvector     2(    -0.003) has overlap with TSRC:    0.20411E-01
Hessian eigenvector     1 has the largest overlap with TSRC:  0.62168
           Primitive Internal Coordinates (atoms in internal order)
-------------------------------------------------------------------------------
    index    type      i       j       k       l   value(A,deg)     Max Ovl Vect
-------------------------------------------------------------------------------
       1     bnd       1       3       0       0     1.08923564    -0.00061321
       2     bnd       2       6       0       0     1.08470589    -0.00088494
       3     bnd       2      12       0       0     1.54011734     0.00131408
       4     bnd       2       3       0       0     1.36290308     0.00556188
       5     bnd       3       4       0       0     1.45803594     0.00968159
       6     bnd       4      24       0       0     1.07385143    -0.00034162
       7     bnd       4       5       0       0     1.24029117     0.00376788
       8     bnd       5      25       0       0     1.72978604    -0.01691752
       9     bnd       8      10       0       0     1.08560513     0.00389085
      10     bnd       7      10       0       0     1.08413438     0.00109045
      11     bnd       9      10       0       0     1.08288491     0.00049125
      12     bnd      11      17       0       0     1.09092751    -0.00045883
      13     bnd      11      12       0       0     1.53362738    -0.00104242
      14     bnd      12      14       0       0     1.53302953    -0.00483115
      15     bnd      12      13       0       0     1.53234834    -0.00934730
      16     bnd      13      19       0       0     1.09188921     0.00028233
      17     bnd      13      21       0       0     1.09316246    -0.00681523
      18     bnd      14      22       0       0     1.09191262     0.00027876
      19     bnd      14      15       0       0     1.09245383    -0.00748133
      20     bnd      11      16       0       0     1.09176404    -0.00023226
      21     bnd      11      18       0       0     1.09107957    -0.00040114
      22     bnd      13      20       0       0     1.09121943    -0.00010512
      23     bnd      14      23       0       0     1.09073957    -0.00111445
      24     bnd       4      25       0       0     2.52422628    -0.00575070
      25     bnd      25      27       0       0     2.38561647    -0.00721354
      26     bnd      25      26       0       0     2.38411548    -0.00318674
      27     bnd       7      15       0       0     1.38083743    -0.03113742
      28     bnd       8      21       0       0     1.24384490    -0.02774048
      29     ang       6       2      12       0   116.95009112    -0.01155648
      30     ang       6       2       3       0   120.30123544    -0.00515813
      31     ang      12       2       3       0   121.62506836     0.00601520
      32     ang       1       3       2       0   120.38559162     0.00315886
      33     ang       1       3       4       0   115.68487526    -0.00422629
      34     ang       2       3       4       0   123.92749337     0.00113022
      35     ang       3       4      24       0   114.51515706    -0.00893312
      36     ang       3       4       5       0   125.64854461     0.00355708
      37     ang       3       4      25       0   163.75559250    -0.00148164
      38     ang      24       4       5       0   119.83614330     0.00538182
      39     ang      24       4      25       0    81.63939674     0.01036773
      40     ang       5       4      25       0    38.24144667    -0.00486072
      41     ang       4       5      25       0   115.41077073     0.00462730
      42     ang      10       7      15       0   120.53751349     0.02157410
      43     ang      10       8      21       0   124.15062928     0.02832060
      44     ang       8      10       7       0   118.25860125    -0.02599578
      45     ang       8      10       9       0   119.31877332    -0.01452002
      46     ang       7      10       9       0   119.37167560    -0.01504332
      47     ang      17      11      12       0   110.45447377    -0.00075313
      48     ang      17      11      16       0   108.45146384    -0.00105717
      49     ang      17      11      18       0   108.40840151     0.00017984
      50     ang      12      11      16       0   110.59829197     0.00407888
      51     ang      12      11      18       0   110.40735107    -0.00179875
      52     ang      16      11      18       0   108.45077218    -0.00070669
      53     ang       2      12      11       0   108.72377674     0.06325773
      54     ang       2      12      14       0   108.78724096    -0.02090992
      55     ang       2      12      13       0   107.96423696    -0.06065460
      56     ang      11      12      14       0   110.42884455    -0.00694669
      57     ang      11      12      13       0   110.38621436    -0.00674878
      58     ang      14      12      13       0   110.48177283     0.03127447
      59     ang      12      13      19       0   110.74888867     0.01682028
      60     ang      12      13      21       0   109.87682813    -0.04294470
      61     ang      12      13      20       0   110.39990129    -0.00050562
      62     ang      19      13      21       0   108.77823245     0.03977872
      63     ang      19      13      20       0   108.46177834     0.00459447
      64     ang      21      13      20       0   108.51918978    -0.01701403
      65     ang      12      14      22       0   110.64384678     0.01218457
      66     ang      12      14      15       0   110.02978901    -0.02908763
      67     ang      12      14      23       0   110.55817534     0.00213369
      68     ang      22      14      15       0   108.75013025     0.03450385
      69     ang      22      14      23       0   108.35297762     0.00048817
      70     ang      15      14      23       0   108.44406116    -0.01986428
      71     ang      14      15       7       0   151.46859296    -0.11045816
      72     ang      13      21       8       0   152.59864438    -0.10860322
      73     ang       5      25      27       0   132.54048955     0.00343229
      74     ang       5      25      26       0   125.23283507     0.00503950
      75     ang       4      25      27       0   129.30863088    -0.00510978
      76     ang       4      25      26       0   124.92360664     0.00087203
      77     ang      27      25      26       0   101.23133654    -0.00569607
      78     dih       6       2      12      11    96.97255880    -0.04500756
      79     dih       6       2      12      14   217.27677477    -0.02892414
      80     dih       6       2      12      13   -22.79997955    -0.03840023
      81     dih       3       2      12      11   -70.93814503     0.01826060
      82     dih       3       2      12      14    49.36607094     0.03434402
      83     dih       3       2      12      13   169.28931663     0.02486792
      84     dih       6       2       3       1   185.74199885     0.02682201
      85     dih       6       2       3       4     6.28448238     0.01852702
      86     dih      12       2       3       1    -6.74582436    -0.03920958
      87     dih      12       2       3       4   173.79665917    -0.04750457
      88     dih       1       3       4      24   180.23576137    -0.00689224
      89     dih       1       3       4       5     0.09139357    -0.00958959
      90     dih       1       3       4      25     6.56586987    -0.00565271
      91     dih       2       3       4      24    -0.28351551     0.00110071
      92     dih       2       3       4       5   179.57211669    -0.00159664
      93     dih       2       3       4      25   186.04659299     0.00234024
      94     dih       3       4       5      25   177.07893574    -0.00242553
      95     dih      24       4       5      25    -3.07248856    -0.00522401
      96     dih       4       5      25      27   265.15428745     0.01921530
      97     dih       4       5      25      26    98.80856680    -0.00789912
      98     dih      21       8      10       7   -62.10613621    -0.03229129
      99     dih      21       8      10       9   137.75630030     0.13890974
     100     dih      15       7      10       8    61.36438552     0.03607607
     101     dih      15       7      10       9   221.49120134    -0.13522951
     102     dih      17      11      12       2    60.30966661     0.01597263
     103     dih      17      11      12      14   -58.97310455     0.00698620
     104     dih      17      11      12      13   178.56343495    -0.02329717
     105     dih      16      11      12       2   180.37921182     0.01679605
     106     dih      16      11      12      14    61.09644066     0.00780962
     107     dih      16      11      12      13   -61.36701984    -0.02247375
     108     dih      18      11      12       2   -59.58272537     0.01737931
     109     dih      18      11      12      14   181.13450347     0.00839288
     110     dih      18      11      12      13    58.67104298    -0.02189049
     111     dih       2      12      14      22   179.46993873    -0.11281710
     112     dih       2      12      14      15    59.27397853    -0.14487804
     113     dih       2      12      14      23   -60.48654670    -0.10296823
     114     dih      11      12      14      22   -61.28574909    -0.05261190
     115     dih      11      12      14      15   178.51829071    -0.08467283
     116     dih      11      12      14      23    58.75776548    -0.04276302
     117     dih      13      12      14      22    61.12168759    -0.04454707
     118     dih      13      12      14      15   -59.07427261    -0.07660800
     119     dih      13      12      14      23   181.16520216    -0.03469819
     120     dih       2      12      13      19   180.01216746     0.08888110
     121     dih       2      12      13      21   -59.78882152     0.12153491
     122     dih       2      12      13      20    59.86752679     0.07262951
     123     dih      11      12      13      19    61.29428744     0.05274619
     124     dih      11      12      13      21   181.49329845     0.08540000
     125     dih      11      12      13      20   -58.85035323     0.03649461
     126     dih      14      12      13      19   -61.13812203     0.04479700
     127     dih      14      12      13      21    59.06088898     0.07745081
     128     dih      14      12      13      20   178.71723730     0.02854542
     129     dih      12      13      21       8    30.92523955     0.00828432
     130     dih      19      13      21       8   152.31243933     0.02782361
     131     dih      20      13      21       8   -89.87168043     0.04592644
     132     dih      12      14      15       7   -23.69166010    -0.03470587
     133     dih      22      14      15       7   214.97350158    -0.05373098
     134     dih      23      14      15       7    97.34514258    -0.06242728
     135     dih       3       4      25       5    -8.51305594    -0.00581277
     136     dih       3       4      25      27    99.89201645     0.01183313
     137     dih       3       4      25      26   251.37520319    -0.01580757
     138     dih      24       4      25       5   177.30643426    -0.00441200
     139     dih      24       4      25      27   -74.28849335     0.01323390
     140     dih      24       4      25      26    77.19469339    -0.01440680
     141     dih       5       4      25      27   108.40507239     0.01764590
     142     dih       5       4      25      26   259.88825913    -0.00999480
     143     dih      10       7      15      14    28.17855133     0.03389959
     144     dih      10       8      21      13   -35.42377219    -0.02229069
     145     bnd       2      10       0       0     2.63410768    -0.87927815
 
----------------------------------------------------------------------
Geometry Convergence after Step   2       (Hartree/Angstrom,Angstrom)
----------------------------------------------------------------------
current energy                               -4.79835180 Hartree
energy change                      -0.02549372     0.00027000    F
constrained gradient max            0.35115481     0.00100000    F
constrained gradient rms            0.07706614     0.00066667    F
gradient max                        0.35115481
gradient rms                        0.07706614
cart. step max                      0.04667845     0.01000000    F
cart. step rms                      0.01524351     0.00666667    F
 
 
--------
Geometry
--------
Formula: C8H15Cl2OSn
Atoms
  Index Symbol   x (angstrom)   y (angstrom)   z (angstrom)
      1      H     0.23278189    -1.85491040    -0.24085261
      2      C    -0.91647438    -0.13421728     0.27901540
      3      C     0.23329213    -0.77849625    -0.07417258
      4      C     1.51310502    -0.11572756    -0.23634572
      5      O     2.58175917    -0.68145300    -0.54095844
      6      H    -0.93202078     0.94791352     0.35806583
      7      H    -1.18789896    -1.15610236     3.05913501
      8      H    -2.10991748     0.45414920     2.90142714
      9      H    -0.25630984     0.46505913     3.17794412
     10      C    -1.16479961    -0.07765449     2.94797975
     11      C    -2.69934889    -1.13419450    -1.14734028
     12      C    -2.27633273    -0.85505612     0.30143276
     13      C    -3.30065139     0.05832279     0.98665385
     14      C    -2.13123470    -2.16924791     1.07920518
     15      H    -1.80680317    -1.96362167     2.10238930
     16      H    -3.66570683    -1.64225453    -1.17222820
     17      H    -1.96392494    -1.76739774    -1.64632475
     18      H    -2.78599700    -0.20132090    -1.70723198
     19      H    -4.28342914    -0.41696396     1.01720799
     20      H    -3.39161791     1.00239127     0.44630873
     21      H    -2.98359768     0.27381085     2.01085939
     22      H    -3.08308924    -2.70362084     1.11355873
     23      H    -1.39187091    -2.81701728     0.60559388
     24      H     1.49764765     0.94630007    -0.06523903
     25     Sn     3.94142998     0.40056730    -0.74248642
     26     Cl     5.66073063     0.71317960     0.88248182
     27     Cl     4.93263120     1.36815338    -2.68970745
 
Total System Charge             0.00000
 
 *** GOStep3 ***

 Energy gradients wrt nuclear displacements
 ==========================================

     Atom      Cartesian (a.u./angstrom)
                 X         Y         Z
 ----------------------------------------
     1 H    -0.002889 -0.002652  0.000127
     2 C     0.052485 -0.005315 -0.052888
     3 C    -0.124790 -0.015854  0.032350
     4 C     0.276891 -0.004219 -0.058260
     5 O     0.125958  0.322230 -0.005913
     6 H    -0.001025 -0.003685  0.005039
     7 H    -0.013327 -0.025379 -0.023325
     8 H    -0.038959 -0.001206 -0.038416
     9 H    -0.002036 -0.000406 -0.003392
    10 C    -0.032901 -0.015971 -0.001062
    11 C     0.001891  0.001345  0.004085
    12 C    -0.019355 -0.015505 -0.010956
    13 C     0.017643  0.004351  0.011830
    14 C     0.011489  0.013190  0.007193
    15 H     0.015169  0.023241  0.028359
    16 H     0.003509  0.001521  0.001824
    17 H     0.000396  0.001855  0.004360
    18 H     0.001275 -0.001844  0.004652
    19 H     0.005058 -0.000154  0.002227
    20 H     0.003385 -0.004745  0.001619
    21 H     0.038511  0.004890  0.041333
    22 H     0.003024  0.004272  0.002186
    23 H     0.002564  0.006796 -0.001840
    24 H    -0.002982 -0.030377 -0.005022
    25 Sn   -0.293774 -0.274914  0.034631
    26 Cl   -0.014167  0.016566 -0.018841
    27 Cl   -0.013044  0.001967  0.038097
 ----------------------------------------
 Mulliken charges used for AMS results%charges...
Hessian eigenvector     1(    -0.023) has overlap with TSRC:    0.61161E+00
Hessian eigenvector     2(    -0.009) has overlap with TSRC:    0.76956E-01
Hessian eigenvector     1 has the largest overlap with TSRC:  0.61161
           Primitive Internal Coordinates (atoms in internal order)
-------------------------------------------------------------------------------
    index    type      i       j       k       l   value(A,deg)     Max Ovl Vect
-------------------------------------------------------------------------------
       1     bnd       1       3       0       0     1.08924282     0.00009646
       2     bnd       2       6       0       0     1.08512567    -0.00111863
       3     bnd       2      12       0       0     1.53926148     0.00581137
       4     bnd       2       3       0       0     1.36447798     0.01240116
       5     bnd       3       4       0       0     1.45033909     0.00027905
       6     bnd       4      24       0       0     1.07583415     0.00057362
       7     bnd       4       5       0       0     1.24693860     0.00870935
       8     bnd       5      25       0       0     1.74931020    -0.01487554
       9     bnd       8      10       0       0     1.08546309     0.00366975
      10     bnd       7      10       0       0     1.08440715     0.00283160
      11     bnd       9      10       0       0     1.08294753     0.00140501
      12     bnd      11      17       0       0     1.09122877     0.00013572
      13     bnd      11      12       0       0     1.53486293    -0.00307742
      14     bnd      12      14       0       0     1.53397635    -0.00657215
      15     bnd      12      13       0       0     1.53395492    -0.00618361
      16     bnd      13      19       0       0     1.09210035     0.00054522
      17     bnd      13      21       0       0     1.09359734    -0.00655085
      18     bnd      14      22       0       0     1.09213628     0.00041841
      19     bnd      14      15       0       0     1.09290609    -0.00734728
      20     bnd      11      16       0       0     1.09205864    -0.00046800
      21     bnd      11      18       0       0     1.09143931    -0.00008111
      22     bnd      13      20       0       0     1.09156450    -0.00026681
      23     bnd      14      23       0       0     1.09113319    -0.00013332
      24     bnd       4      25       0       0     2.53367341    -0.00281383
      25     bnd      25      27       0       0     2.38963856    -0.00659154
      26     bnd      25      26       0       0     2.38626129    -0.00033693
      27     bnd       7      15       0       0     1.39660023    -0.04036996
      28     bnd       8      21       0       0     1.26053558    -0.04077346
      29     ang       6       2      12       0   116.95504788    -0.00951750
      30     ang       6       2       3       0   120.11953106    -0.00281465
      31     ang      12       2       3       0   121.80823928    -0.00512119
      32     ang       1       3       2       0   120.38668757     0.00181054
      33     ang       1       3       4       0   115.77864825    -0.00574092
      34     ang       2       3       4       0   123.83036122     0.00395175
      35     ang       3       4      24       0   114.87550147    -0.01249064
      36     ang       3       4       5       0   125.18696426     0.00328837
      37     ang       3       4      25       0   163.98493608    -0.00128684
      38     ang      24       4       5       0   119.93621972     0.00922900
      39     ang      24       4      25       0    81.04747969     0.01377076
      40     ang       5       4      25       0    38.94605844    -0.00406486
      41     ang       4       5      25       0   114.43409784     0.00259865
      42     ang      10       7      15       0   120.94704635     0.03123843
      43     ang      10       8      21       0   124.31173772     0.02503036
      44     ang       8      10       7       0   118.23500101    -0.02457455
      45     ang       8      10       9       0   119.60503384    -0.01297208
      46     ang       7      10       9       0   119.63639572    -0.01341348
      47     ang      17      11      12       0   110.57352501     0.00009149
      48     ang      17      11      16       0   108.42049031    -0.00120631
      49     ang      17      11      18       0   108.35454249    -0.00011219
      50     ang      12      11      16       0   110.48749461     0.00202658
      51     ang      12      11      18       0   110.52694698    -0.00008682
      52     ang      16      11      18       0   108.40309512    -0.00078166
      53     ang       2      12      11       0   108.35501933     0.05223317
      54     ang       2      12      14       0   108.96702096    -0.02695425
      55     ang       2      12      13       0   108.51749797    -0.03680966
      56     ang      11      12      14       0   110.41713643    -0.00618192
      57     ang      11      12      13       0   110.23661526    -0.00939741
      58     ang      14      12      13       0   110.29165286     0.02665166
      59     ang      12      13      19       0   110.74916281     0.01853618
      60     ang      12      13      21       0   110.00424360    -0.03971222
      61     ang      12      13      20       0   110.45704694    -0.00150124
      62     ang      19      13      21       0   108.69009138     0.03741974
      63     ang      19      13      20       0   108.37612259     0.00310305
      64     ang      21      13      20       0   108.50270868    -0.01724515
      65     ang      12      14      22       0   110.65230259     0.01478820
      66     ang      12      14      15       0   109.97281168    -0.03377454
      67     ang      12      14      23       0   110.64786720    -0.00002014
      68     ang      22      14      15       0   108.74350166     0.03624416
      69     ang      22      14      23       0   108.28543736     0.00136643
      70     ang      15      14      23       0   108.47615258    -0.01811285
      71     ang      14      15       7       0   151.84659669    -0.11634501
      72     ang      13      21       8       0   152.97436658    -0.11162804
      73     ang       5      25      27       0   131.81513152     0.01085822
      74     ang       5      25      26       0   124.23565914     0.01091276
      75     ang       4      25      27       0   130.00355409    -0.01610144
      76     ang       4      25      26       0   125.53521120     0.00044568
      77     ang      27      25      26       0   101.71196184    -0.01359959
      78     dih       6       2      12      11    97.02262553    -0.06017379
      79     dih       6       2      12      14   217.20026309    -0.05301843
      80     dih       6       2      12      13   -22.67770985    -0.05778001
      81     dih       3       2      12      11   -70.89894269     0.04231724
      82     dih       3       2      12      14    49.27869486     0.04947261
      83     dih       3       2      12      13   169.40072193     0.04471102
      84     dih       6       2       3       1   185.43395574     0.03373042
      85     dih       6       2       3       4     6.22111892     0.03092988
      86     dih      12       2       3       1    -7.01868994    -0.07294372
      87     dih      12       2       3       4   173.76847325    -0.07574426
      88     dih       1       3       4      24   180.19046349    -0.00526856
      89     dih       1       3       4       5    -0.22912865    -0.01770722
      90     dih       1       3       4      25     6.64753811    -0.00547130
      91     dih       2       3       4      24    -0.56361112    -0.00254709
      92     dih       2       3       4       5   179.01679675    -0.01498575
      93     dih       2       3       4      25   185.89346351    -0.00274983
      94     dih       3       4       5      25   176.98765586    -0.00625157
      95     dih      24       4       5      25    -3.45161544    -0.01921468
      96     dih       4       5      25      27   261.94741945     0.06003053
      97     dih       4       5      25      26   102.19359741    -0.02002028
      98     dih      21       8      10       7   -61.13450823    -0.03333508
      99     dih      21       8      10       9   136.93799117     0.12361444
     100     dih      15       7      10       8    60.22401671     0.02339121
     101     dih      15       7      10       9   222.14569770    -0.13366252
     102     dih      17      11      12       2    60.24709684     0.00524892
     103     dih      17      11      12      14   -59.02147631     0.00988076
     104     dih      17      11      12      13   178.86369365    -0.01325653
     105     dih      16      11      12       2   180.28333140     0.00511002
     106     dih      16      11      12      14    61.01475824     0.00974186
     107     dih      16      11      12      13   -61.10007179    -0.01339544
     108     dih      18      11      12       2   -59.73234692     0.00538540
     109     dih      18      11      12      14   180.99907993     0.01001724
     110     dih      18      11      12      13    58.88424989    -0.01312006
     111     dih       2      12      14      22   179.90767409    -0.10171647
     112     dih       2      12      14      15    59.75145393    -0.13459114
     113     dih       2      12      14      23   -60.06931633    -0.09048826
     114     dih      11      12      14      22   -61.19536148    -0.05816017
     115     dih      11      12      14      15   178.64841836    -0.09103484
     116     dih      11      12      14      23    58.82764810    -0.04693196
     117     dih      13      12      14      22    60.88707419    -0.05608782
     118     dih      13      12      14      15   -59.26914597    -0.08896248
     119     dih      13      12      14      23   180.91008376    -0.04485960
     120     dih       2      12      13      19   179.67224901     0.08897885
     121     dih       2      12      13      21   -60.15568156     0.12189026
     122     dih       2      12      13      20    59.59726239     0.07412656
     123     dih      11      12      13      19    61.15513233     0.05329883
     124     dih      11      12      13      21   181.32720175     0.08621023
     125     dih      11      12      13      20   -58.91985430     0.03844654
     126     dih      14      12      13      19   -61.03376098     0.04934753
     127     dih      14      12      13      21    59.13830845     0.08225894
     128     dih      14      12      13      20   178.89125240     0.03449524
     129     dih      12      13      21       8    30.79281876     0.00961850
     130     dih      19      13      21       8   152.20348809     0.03176586
     131     dih      20      13      21       8   -90.14115059     0.04665308
     132     dih      12      14      15       7   -23.30930268    -0.02320041
     133     dih      22      14      15       7   215.38489938    -0.04364766
     134     dih      23      14      15       7    97.82286915    -0.05533014
     135     dih       3       4      25       5    -8.95585595    -0.01680576
     136     dih       3       4      25      27    96.59837663     0.03898265
     137     dih       3       4      25      26   254.27096911    -0.04153932
     138     dih      24       4      25       5   176.97242837    -0.01661557
     139     dih      24       4      25      27   -77.47333905     0.03917284
     140     dih      24       4      25      26    80.19925342    -0.04134913
     141     dih       5       4      25      27   105.55423258     0.05578841
     142     dih       5       4      25      26   263.22682505    -0.02473355
     143     dih      10       7      15      14    28.40913746     0.04676990
     144     dih      10       8      21      13   -35.36056585    -0.01248437
     145     bnd       2      10       0       0     2.68108849    -0.86487070
 
----------------------------------------------------------------------
Geometry Convergence after Step   3       (Hartree/Angstrom,Angstrom)
----------------------------------------------------------------------
current energy                               -4.81366396 Hartree
energy change                      -0.01531216     0.00027000    F
constrained gradient max            0.32223036     0.00100000    F
constrained gradient rms            0.07037157     0.00066667    F
gradient max                        0.32223036
gradient rms                        0.07037157
cart. step max                      0.05473132     0.01000000    F
cart. step rms                      0.01175873     0.00666667    F
 
 
--------
Geometry
--------
Formula: C8H15Cl2OSn
Atoms
  Index Symbol   x (angstrom)   y (angstrom)   z (angstrom)
      1      H     0.24581982    -1.85007498    -0.24530487
      2      C    -0.92051276    -0.13801101     0.26918175
      3      C     0.23601520    -0.77359381    -0.08049212
      4      C     1.50351087    -0.10011905    -0.23694340
      5      O     2.58136591    -0.66821597    -0.53464902
      6      H    -0.93862435     0.94446389     0.34971821
      7      H    -1.18314076    -1.15657967     3.07453478
      8      H    -2.09792933     0.45594085     2.91509226
      9      H    -0.24360210     0.46172902     3.20379656
     10      C    -1.15418049    -0.07724485     2.97372342
     11      C    -2.70647039    -1.13988907    -1.15183904
     12      C    -2.27807457    -0.85914618     0.29696903
     13      C    -3.30084828     0.05791997     0.98155818
     14      C    -2.13711491    -2.17429233     1.07653934
     15      H    -1.81097240    -1.96839987     2.09958479
     16      H    -3.67448800    -1.64581563    -1.17200042
     17      H    -1.97517849    -1.77589426    -1.65376935
     18      H    -2.79384513    -0.20822393    -1.71427291
     19      H    -4.28492013    -0.41511223     1.01288112
     20      H    -3.39102858     1.00230573     0.44076180
     21      H    -2.98209007     0.27414276     2.00552519
     22      H    -3.09121187    -2.70511440     1.11162993
     23      H    -1.40110288    -2.82757680     0.60483782
     24      H     1.48358486     0.96460031    -0.06975869
     25     Sn     3.93594904     0.45529862    -0.73188595
     26     Cl     5.67611207     0.69128533     0.88635773
     27     Cl     4.96532982     1.33620788    -2.70540475
 
Total System Charge             0.00000
 
 *** GOStep4 ***

 Energy gradients wrt nuclear displacements
 ==========================================

     Atom      Cartesian (a.u./angstrom)
                 X         Y         Z
 ----------------------------------------
     1 H    -0.002561 -0.002378  0.000212
     2 C     0.047512 -0.003872 -0.045205
     3 C    -0.110673 -0.014488  0.028852
     4 C     0.244024  0.004759 -0.050665
     5 O     0.113617  0.290815 -0.005526
     6 H    -0.001028 -0.003295  0.003953
     7 H    -0.013183 -0.023954 -0.022136
     8 H    -0.036794 -0.001414 -0.036204
     9 H    -0.001776 -0.000338 -0.002810
    10 C    -0.028180 -0.014191 -0.003062
    11 C     0.001477  0.001122  0.004026
    12 C    -0.018234 -0.014751 -0.010473
    13 C     0.016089  0.004119  0.010238
    14 C     0.010114  0.011564  0.006333
    15 H     0.014677  0.022037  0.027285
    16 H     0.003077  0.001265  0.001464
    17 H     0.000354  0.001709  0.003854
    18 H     0.001163 -0.001622  0.004127
    19 H     0.004535 -0.000222  0.001814
    20 H     0.003077 -0.004121  0.001453
    21 H     0.036371  0.004595  0.039256
    22 H     0.002750  0.003639  0.001868
    23 H     0.002298  0.006050 -0.001519
    24 H    -0.003192 -0.027239 -0.003925
    25 Sn   -0.259840 -0.263696  0.028034
    26 Cl   -0.012778  0.017937 -0.016354
    27 Cl   -0.012895  0.005969  0.035112
 ----------------------------------------
 Mulliken charges used for AMS results%charges...
Hessian eigenvector     1(    -0.024) has overlap with TSRC:    0.61715E+00
Hessian eigenvector     1 has the largest overlap with TSRC:  0.61715
           Primitive Internal Coordinates (atoms in internal order)
-------------------------------------------------------------------------------
    index    type      i       j       k       l   value(A,deg)     Max Ovl Vect
-------------------------------------------------------------------------------
       1     bnd       1       3       0       0     1.08906891     0.00005957
       2     bnd       2       6       0       0     1.08561782    -0.00108116
       3     bnd       2      12       0       0     1.53745963     0.00586045
       4     bnd       2       3       0       0     1.36520849     0.00943434
       5     bnd       3       4       0       0     1.44381111    -0.00114594
       6     bnd       4      24       0       0     1.07794949     0.00027190
       7     bnd       4       5       0       0     1.25424648     0.01225285
       8     bnd       5      25       0       0     1.77089890    -0.01990048
       9     bnd       8      10       0       0     1.08553511     0.00427510
      10     bnd       7      10       0       0     1.08441933     0.00247844
      11     bnd       9      10       0       0     1.08285709     0.00140858
      12     bnd      11      17       0       0     1.09143231     0.00002499
      13     bnd      11      12       0       0     1.53667966    -0.00297306
      14     bnd      12      14       0       0     1.53532046    -0.00578781
      15     bnd      12      13       0       0     1.53484159    -0.00740230
      16     bnd      13      19       0       0     1.09230857     0.00045778
      17     bnd      13      21       0       0     1.09401440    -0.00625614
      18     bnd      14      22       0       0     1.09238474     0.00043594
      19     bnd      14      15       0       0     1.09333556    -0.00726191
      20     bnd      11      16       0       0     1.09244051    -0.00025590
      21     bnd      11      18       0       0     1.09177202    -0.00004363
      22     bnd      13      20       0       0     1.09199711    -0.00007820
      23     bnd      14      23       0       0     1.09132792    -0.00030314
      24     bnd       4      25       0       0     2.54366121    -0.00683404
      25     bnd      25      27       0       0     2.39382589    -0.00694498
      26     bnd      25      26       0       0     2.38800538    -0.00045869
      27     bnd       7      15       0       0     1.41553950    -0.04574570
      28     bnd       8      21       0       0     1.28144568    -0.04490016
      29     ang       6       2      12       0   116.84725327    -0.00937358
      30     ang       6       2       3       0   119.82441680    -0.00319754
      31     ang      12       2       3       0   122.29525690    -0.00132922
      32     ang       1       3       2       0   120.43525092     0.00210720
      33     ang       1       3       4       0   115.89752935    -0.00421439
      34     ang       2       3       4       0   123.66145391     0.00209215
      35     ang       3       4      24       0   115.32152160    -0.01187730
      36     ang       3       4       5       0   124.67108987     0.00225520
      37     ang       3       4      25       0   164.24530741    -0.00242604
      38     ang      24       4       5       0   120.00517690     0.00965630
      39     ang      24       4      25       0    80.33898586     0.01425309
      40     ang       5       4      25       0    39.72933347    -0.00396651
      41     ang       4       5      25       0   113.35433563     0.00094027
      42     ang      10       7      15       0   121.24061731     0.03115726
      43     ang      10       8      21       0   124.64610008     0.03093284
      44     ang       8      10       7       0   118.07803227    -0.02396126
      45     ang       8      10       9       0   119.87253858    -0.01179161
      46     ang       7      10       9       0   119.87468109    -0.01229022
      47     ang      17      11      12       0   110.68651161     0.00036372
      48     ang      17      11      16       0   108.38256511    -0.00143984
      49     ang      17      11      18       0   108.29927971    -0.00033650
      50     ang      12      11      16       0   110.42845053     0.00261604
      51     ang      12      11      18       0   110.61624539    -0.00020081
      52     ang      16      11      18       0   108.34741022    -0.00109722
      53     ang       2      12      11       0   108.34945162     0.05619988
      54     ang       2      12      14       0   109.26198925    -0.02270161
      55     ang       2      12      13       0   108.43372201    -0.04631820
      56     ang      11      12      14       0   110.35419290    -0.00613854
      57     ang      11      12      13       0   110.11562897    -0.00849266
      58     ang      14      12      13       0   110.27448565     0.02694148
      59     ang      12      13      19       0   110.75541326     0.01823447
      60     ang      12      13      21       0   109.96262114    -0.04231247
      61     ang      12      13      20       0   110.54060517    -0.00066512
      62     ang      19      13      21       0   108.73820693     0.03903386
      63     ang      19      13      20       0   108.31977323     0.00369317
      64     ang      21      13      20       0   108.46127974    -0.01731843
      65     ang      12      14      22       0   110.63212118     0.01431065
      66     ang      12      14      15       0   109.94945023    -0.03241626
      67     ang      12      14      23       0   110.80705353     0.00094573
      68     ang      22      14      15       0   108.78321541     0.03587660
      69     ang      22      14      23       0   108.18235675     0.00067777
      70     ang      15      14      23       0   108.42050229    -0.01896306
      71     ang      14      15       7       0   152.22367166    -0.11437488
      72     ang      13      21       8       0   153.30671459    -0.11063848
      73     ang       5      25      27       0   130.85985647     0.01157215
      74     ang       5      25      26       0   122.99870436     0.01010257
      75     ang       4      25      27       0   130.69100727    -0.00628448
      76     ang       4      25      26       0   125.91379529     0.01401029
      77     ang      27      25      26       0   102.06087633    -0.01929313
      78     dih       6       2      12      11    97.14176089    -0.05490009
      79     dih       6       2      12      14   217.41274755    -0.04295089
      80     dih       6       2      12      13   -22.36243282    -0.05039634
      81     dih       3       2      12      11   -71.19924354     0.02685022
      82     dih       3       2      12      14    49.07174312     0.03879941
      83     dih       3       2      12      13   169.29656274     0.03135396
      84     dih       6       2       3       1   185.12136373     0.02665325
      85     dih       6       2       3       4     6.03143149     0.02866892
      86     dih      12       2       3       1    -6.87389379    -0.05850477
      87     dih      12       2       3       4   174.03617397    -0.05648910
      88     dih       1       3       4      24   180.11901672    -0.00157378
      89     dih       1       3       4       5    -0.42432243    -0.01749077
      90     dih       1       3       4      25     6.70725974    -0.00043641
      91     dih       2       3       4      24    -0.75323774    -0.00347777
      92     dih       2       3       4       5   178.70342311    -0.01939477
      93     dih       2       3       4      25   185.83500528    -0.00234040
      94     dih       3       4       5      25   176.97687986    -0.00870730
      95     dih      24       4       5      25    -3.59026571    -0.02530360
      96     dih       4       5      25      27   258.43482944     0.03622221
      97     dih       4       5      25      26   105.41958609     0.01420829
      98     dih      21       8      10       7   -60.15500352    -0.02355579
      99     dih      21       8      10       9   136.61700753     0.12433574
     100     dih      15       7      10       8    59.29334610     0.01879474
     101     dih      15       7      10       9   222.52096414    -0.12917815
     102     dih      17      11      12       2    60.45741055     0.01092904
     103     dih      17      11      12      14   -59.13024373     0.00794592
     104     dih      17      11      12      13   178.89930967    -0.01620639
     105     dih      16      11      12       2   180.48110726     0.01105527
     106     dih      16      11      12      14    60.89345298     0.00807215
     107     dih      16      11      12      13   -61.07699362    -0.01608016
     108     dih      18      11      12       2   -59.58461230     0.01124322
     109     dih      18      11      12      14   180.82773342     0.00826010
     110     dih      18      11      12      13    58.85728682    -0.01589221
     111     dih       2      12      14      22   179.90280362    -0.10864794
     112     dih       2      12      14      15    59.72514346    -0.14163607
     113     dih       2      12      14      23   -60.11253526    -0.09796112
     114     dih      11      12      14      22   -61.06306143    -0.05765068
     115     dih      11      12      14      15   178.75927841    -0.09063881
     116     dih      11      12      14      23    58.92159969    -0.04696386
     117     dih      13      12      14      22    60.81359564    -0.05420399
     118     dih      13      12      14      15   -59.36406452    -0.08719212
     119     dih      13      12      14      23   180.79825675    -0.04351717
     120     dih       2      12      13      19   179.43328624     0.09007506
     121     dih       2      12      13      21   -60.35769558     0.12312111
     122     dih       2      12      13      20    59.37011478     0.07413935
     123     dih      11      12      13      19    61.04317312     0.05482488
     124     dih      11      12      13      21   181.25219130     0.08787093
     125     dih      11      12      13      20   -59.01999834     0.03888917
     126     dih      14      12      13      19   -60.97450590     0.05000257
     127     dih      14      12      13      21    59.23451228     0.08304863
     128     dih      14      12      13      20   178.96232264     0.03406687
     129     dih      12      13      21       8    30.59657408     0.00738660
     130     dih      19      13      21       8   152.01962939     0.02858445
     131     dih      20      13      21       8   -90.38861577     0.04503035
     132     dih      12      14      15       7   -23.17778266    -0.02585198
     133     dih      22      14      15       7   215.53061755    -0.04631550
     134     dih      23      14      15       7    98.10048710    -0.05650062
     135     dih       3       4      25       5    -9.19215676    -0.02334851
     136     dih       3       4      25      27    93.06340528     0.01557499
     137     dih       3       4      25      26   257.43089873    -0.01996552
     138     dih      24       4      25       5   176.84664480    -0.02196168
     139     dih      24       4      25      27   -80.89779316     0.01696182
     140     dih      24       4      25      26    83.46970029    -0.01857869
     141     dih       5       4      25      27   102.25556203     0.03892350
     142     dih       5       4      25      26   266.62305549     0.00338299
[...]
    10     C       0.000120  -0.000175   0.000246
    11     C      -0.042590  -0.048772   0.003536
    12     C      -0.000004   0.000204   0.000039
    13     C       0.044145   0.048713   0.004734
    14     C      -0.002997   0.000467  -0.001724
    15     H       0.011000  -0.009276   0.025775
    16     H       0.469100   0.130870   0.049585
    17     H       0.022351  -0.039241  -0.043387
    18     H       0.016750   0.489095  -0.048060
    19     H      -0.506999  -0.115149  -0.107528
    20     H      -0.037105  -0.468413   0.017641
    21     H       0.019541   0.002259   0.032474
    22     H       0.023696   0.006313  -0.000146
    23     H       0.000916  -0.002398  -0.004876
    24     H      -0.000014   0.000469   0.000199
    25    Sn      -0.000000  -0.000001   0.000001
    26    Cl      -0.000002   0.000002  -0.000002
    27    Cl       0.000001  -0.000000  -0.000002
 
 Mode:    73      Frequency (cm-1):     3076.6231     Intensity (km/mol):       17.8258
 Index  Atom      ---- Displacements (x/y/z) ----
     1     H      -0.001146  -0.018060  -0.004169
     2     C       0.000303   0.006805   0.001033
     3     C       0.000376   0.001566   0.000256
     4     C       0.000016   0.000131   0.000035
     5     O      -0.000048   0.000001   0.000016
     6     H      -0.003333  -0.078545  -0.012883
     7     H       0.004363   0.015021  -0.003129
     8     H       0.012708  -0.015940  -0.006359
     9     H      -0.019208  -0.003022   0.003134
    10     C       0.000241   0.000382   0.000640
    11     C      -0.040198  -0.040993   0.004426
    12     C      -0.000671  -0.001381   0.000058
    13     C      -0.037005  -0.039305  -0.005424
    14     C       0.046545  -0.005663   0.000731
    15     H      -0.063103   0.062553  -0.178077
    16     H       0.431092   0.121397   0.047448
    17     H       0.038088  -0.046356  -0.059540
    18     H       0.012419   0.416395  -0.041564
    19     H       0.422640   0.096146   0.087895
    20     H       0.029058   0.382567  -0.013850
    21     H      -0.009854  -0.006876  -0.007790
    22     H      -0.375731  -0.105130  -0.022643
    23     H      -0.115417   0.115063   0.190678
    24     H      -0.000021  -0.001070  -0.000268
    25    Sn       0.000002  -0.000000   0.000000
    26    Cl      -0.000004   0.000002  -0.000001
    27    Cl      -0.000001   0.000001  -0.000001
 
 Mode:    74      Frequency (cm-1):     3081.4902     Intensity (km/mol):       35.2736
 Index  Atom      ---- Displacements (x/y/z) ----
     1     H       0.000877   0.030075   0.007441
     2     C       0.000287   0.006219   0.000976
     3     C       0.000209  -0.002691  -0.000806
     4     C       0.000278  -0.000079  -0.000085
     5     O      -0.000122   0.000022   0.000045
     6     H      -0.002780  -0.067146  -0.010429
     7     H      -0.001720  -0.004856   0.000991
     8     H      -0.006092   0.007928   0.003710
     9     H       0.007531   0.001327  -0.001439
    10     C       0.000051  -0.000412  -0.000214
    11     C      -0.007419  -0.035221  -0.008379
    12     C      -0.001878  -0.001219   0.000052
    13     C      -0.019767  -0.027536   0.002716
    14     C      -0.075777   0.008632   0.007390
    15     H       0.069688  -0.072905   0.211968
    16     H       0.170713   0.041466   0.018069
    17     H      -0.094226   0.063763   0.116077
    18     H       0.016820   0.316488  -0.034912
    19     H       0.242346   0.051832   0.050857
    20     H       0.022094   0.259132  -0.007117
    21     H      -0.024100   0.019861  -0.076031
    22     H       0.630359   0.181101   0.039869
    23     H       0.209123  -0.205617  -0.339399
    24     H      -0.000543  -0.000116   0.000064
    25    Sn       0.000004   0.000002  -0.000001
    26    Cl      -0.000002  -0.000003   0.000003
    27    Cl      -0.000003  -0.000001  -0.000002
 
 Mode:    75      Frequency (cm-1):     3087.0930     Intensity (km/mol):        6.1682
 Index  Atom      ---- Displacements (x/y/z) ----
     1     H      -0.000589  -0.032735  -0.008750
     2     C       0.000122  -0.000651  -0.000189
     3     C       0.000145   0.002903   0.000732
     4     C      -0.000058   0.000035   0.000010
     5     O      -0.000027   0.000001   0.000016
     6     H       0.000801   0.007596   0.001399
     7     H      -0.003054  -0.010232   0.001920
     8     H      -0.015860   0.020346   0.009060
     9     H       0.021010   0.003152  -0.003621
    10     C      -0.000123  -0.001238  -0.000613
    11     C      -0.029953   0.023060   0.020443
    12     C      -0.000556  -0.000056  -0.000793
    13     C       0.005415  -0.014897   0.017355
    14     C      -0.013207  -0.005033  -0.077368
    15     H       0.247901  -0.213076   0.577312
    16     H       0.159599   0.054351   0.022271
    17     H       0.216789  -0.168783  -0.282114
    18     H      -0.016455  -0.160280   0.020880
    19     H      -0.029047  -0.011383  -0.003136
    20     H       0.014398   0.120060   0.000081
    21     H      -0.050420   0.069259  -0.201916
    22     H       0.165640   0.044887  -0.010116
    23     H      -0.255601   0.227448   0.357764
    24     H       0.000227   0.000210   0.000042
    25    Sn       0.000001   0.000001  -0.000001
    26    Cl       0.000000  -0.000001   0.000001
    27    Cl      -0.000001  -0.000001   0.000000
 
 Mode:    76      Frequency (cm-1):     3090.3080     Intensity (km/mol):       25.1351
 Index  Atom      ---- Displacements (x/y/z) ----
     1     H      -0.000953  -0.032251  -0.008655
     2     C       0.000500   0.007575   0.001406
     3     C       0.000291   0.002849   0.000849
     4     C      -0.000109   0.000287   0.000127
     5     O       0.000013  -0.000019  -0.000008
     6     H      -0.005548  -0.089360  -0.014587
     7     H      -0.001350  -0.005030   0.001122
     8     H      -0.007539   0.009808   0.004486
     9     H       0.012860   0.002086  -0.001951
    10     C      -0.000396  -0.000677  -0.000357
    11     C       0.053185  -0.043990  -0.037780
    12     C       0.001212  -0.000677  -0.001305
    13     C       0.002083   0.002188   0.000291
    14     C       0.013041  -0.005499  -0.045247
    15     H       0.117119  -0.097956   0.262508
    16     H      -0.263923  -0.093677  -0.037573
    17     H      -0.404689   0.312154   0.528735
    18     H       0.029976   0.306647  -0.039281
    19     H      -0.031271  -0.007035  -0.005290
    20     H      -0.000674  -0.015226   0.001468
    21     H       0.001382  -0.000714   0.005975
    22     H      -0.072978  -0.023106  -0.016277
    23     H      -0.203500   0.188474   0.296733
    24     H      -0.000208  -0.002722  -0.000789
    25    Sn      -0.000002  -0.000001  -0.000001
    26    Cl       0.000002   0.000001   0.000000
    27    Cl       0.000001   0.000001   0.000003
 
 Mode:    77      Frequency (cm-1):     3094.8260     Intensity (km/mol):       24.8554
 Index  Atom      ---- Displacements (x/y/z) ----
     1     H      -0.000464  -0.018906  -0.005111
     2     C      -0.000611  -0.016962  -0.002874
     3     C      -0.000381   0.001654   0.000685
     4     C      -0.000161  -0.000337  -0.000065
     5     O       0.000017   0.000009  -0.000002
     6     H       0.012951   0.198739   0.030988
     7     H      -0.012586  -0.039839   0.008000
     8     H      -0.021163   0.026871   0.010776
     9     H       0.052175   0.009852  -0.007822
    10     C      -0.001993   0.000224  -0.000989
    11     C      -0.006618   0.001693   0.003703
    12     C      -0.000952   0.000513  -0.001156
    13     C      -0.039273   0.036270  -0.068244
    14     C      -0.009322   0.000068  -0.018767
    15     H       0.071424  -0.063772   0.169048
    16     H       0.050004   0.015992   0.007775
    17     H       0.036601  -0.029116  -0.047764
    18     H      -0.002751  -0.008627   0.002349
    19     H       0.327812   0.092334   0.053614
    20     H      -0.036928  -0.261925  -0.006290
    21     H       0.185240  -0.263060   0.769817
    22     H       0.085705   0.024232  -0.000167
    23     H      -0.043136   0.037163   0.058095
    24     H       0.000943   0.004586   0.001062
    25    Sn       0.000002   0.000001  -0.000002
    26    Cl       0.000001  -0.000003   0.000002
    27    Cl      -0.000003  -0.000001   0.000003
 
 Mode:    78      Frequency (cm-1):     3097.8771     Intensity (km/mol):        7.5674
 Index  Atom      ---- Displacements (x/y/z) ----
     1     H      -0.002187  -0.062130  -0.016364
     2     C      -0.003826  -0.080798  -0.013128
     3     C      -0.002085   0.005802   0.002449
     4     C      -0.001121  -0.001417  -0.000064
     5     O       0.000416  -0.000026  -0.000160
     6     H       0.064346   0.948673   0.148580
     7     H      -0.007628  -0.023549   0.004464
     8     H      -0.004911   0.007113   0.002242
     9     H       0.016408   0.003101  -0.002074
    10     C      -0.000281   0.001438  -0.000894
    11     C       0.002983  -0.011089  -0.003499
    12     C       0.001328  -0.001217   0.000254
    13     C       0.005060  -0.012735   0.013231
    14     C       0.001839   0.001329   0.001160
    15     H      -0.003335   0.003519  -0.008438
    16     H       0.000844  -0.001414  -0.002211
    17     H      -0.043394   0.031634   0.055766
    18     H       0.005318   0.104359  -0.013136
    19     H      -0.037217  -0.011065  -0.003715
    20     H       0.010944   0.116026   0.000986
    21     H      -0.038228   0.051936  -0.154717
    22     H      -0.022323  -0.006943  -0.000980
    23     H       0.004749  -0.004099  -0.006177
    24     H       0.004130   0.018582   0.004124
    25    Sn      -0.000001  -0.000004  -0.000001
    26    Cl      -0.000007   0.000005  -0.000002
    27    Cl      -0.000004   0.000001   0.000005
 
 Mode:    79      Frequency (cm-1):     3150.7456     Intensity (km/mol):        2.2371
 Index  Atom      ---- Displacements (x/y/z) ----
     1     H      -0.020119  -0.957170  -0.258549
     2     C       0.003122   0.004128  -0.000411
     3     C       0.000549   0.082218   0.022662
     4     C      -0.002461   0.001251   0.001238
     5     O       0.000340  -0.000186  -0.000187
     6     H      -0.002075  -0.065625  -0.011146
     7     H       0.000761   0.002639  -0.000087
     8     H      -0.001033   0.001172   0.000768
     9     H      -0.000672  -0.000073   0.000211
    10     C       0.000050  -0.000330  -0.000248
    11     C      -0.000412   0.000823   0.000533
    12     C       0.000060   0.000414   0.000296
    13     C       0.000281   0.000411  -0.000012
    14     C      -0.002721   0.001641   0.004382
    15     H      -0.005580   0.004312  -0.009968
    16     H      -0.000670   0.000032  -0.000189
    17     H       0.005278  -0.004023  -0.007495
    18     H      -0.000148  -0.006024   0.000662
    19     H      -0.004796  -0.000953  -0.000626
    20     H      -0.000315  -0.004783   0.000042
    21     H       0.000214  -0.000016  -0.000068
    22     H       0.010687   0.002262   0.001816
    23     H       0.032544  -0.027789  -0.045813
    24     H      -0.001848  -0.019259  -0.004998
    25    Sn       0.000003   0.000002  -0.000001
    26    Cl       0.000004  -0.000005  -0.000000
    27    Cl       0.000003  -0.000003  -0.000004
 
 Mode:    80      Frequency (cm-1):     3242.1625     Intensity (km/mol):        1.1469
 Index  Atom      ---- Displacements (x/y/z) ----
     1     H      -0.000052   0.002314   0.000663
     2     C      -0.000060  -0.001145  -0.000174
     3     C      -0.000142  -0.000044  -0.000081
     4     C      -0.000079   0.000011   0.000020
     5     O       0.000026   0.000007  -0.000005
     6     H       0.000847   0.013493   0.001584
     7     H       0.143007   0.427988  -0.102769
     8     H      -0.455682   0.598132   0.266720
     9     H      -0.359650  -0.082094   0.053844
    10     C       0.056569  -0.079476  -0.018186
    11     C       0.000035  -0.000062  -0.000001
    12     C       0.000018  -0.000009  -0.000097
    13     C      -0.000245   0.000211  -0.000889
    14     C       0.000294  -0.000155   0.000604
    15     H      -0.003114   0.002484  -0.007508
    16     H      -0.000689  -0.000127  -0.000252
    17     H      -0.000273   0.000218   0.000459
    18     H       0.000046   0.000534  -0.000063
    19     H       0.002113   0.000712   0.001029
    20     H      -0.000055   0.001822  -0.000338
    21     H       0.002698  -0.003824   0.011426
    22     H      -0.001410  -0.000360  -0.000063
    23     H       0.000415  -0.000250  -0.000382
    24     H       0.000056  -0.000628  -0.000398
    25    Sn      -0.000001  -0.000001  -0.000002
    26    Cl       0.000000   0.000001   0.000001
    27    Cl       0.000001   0.000004   0.000006
 
 Mode:    81      Frequency (cm-1):     3246.4973     Intensity (km/mol):        0.7782
 Index  Atom      ---- Displacements (x/y/z) ----
     1     H      -0.000092   0.001234   0.000324
     2     C       0.000135  -0.000173  -0.000129
     3     C       0.000125  -0.000082   0.000021
     4     C       0.000049  -0.000289  -0.000029
     5     O      -0.000042   0.000024   0.000014
     6     H      -0.000138   0.003927  -0.000353
     7     H       0.179292   0.628826  -0.139592
     8     H       0.012835  -0.044460  -0.011124
     9     H       0.716971   0.120511  -0.109334
    10     C      -0.076621  -0.059391   0.021811
    11     C      -0.000003   0.000016  -0.000007
    12     C       0.000007  -0.000048   0.000212
    13     C       0.000159  -0.000332   0.000709
    14     C       0.000341  -0.000241   0.000967
    15     H      -0.004954   0.003940  -0.011349
    16     H       0.000746   0.000104   0.000354
    17     H       0.000218  -0.000188  -0.000468
    18     H      -0.000048   0.000200  -0.000061
    19     H      -0.000642  -0.000092  -0.000425
    20     H       0.000061   0.001794  -0.000197
    21     H      -0.001399   0.002647  -0.008055
    22     H      -0.000957  -0.000136   0.000057
    23     H       0.001162  -0.001077  -0.001633
    24     H       0.000290   0.003155   0.001106
    25    Sn       0.000002   0.000000   0.000003
    26    Cl      -0.000003   0.000002  -0.000001
    27    Cl      -0.000005  -0.000001  -0.000006

PES point character: Geometry corresponds to a transition state.
                     (Hint: Very small negative frequencies do not count towards being a
                     transition state, as they usually indicate noise on a very flat PES. See
                     the PESPointCharacter%NegativeFrequenciesTolerance keyword documentation.)




 ============================
 Statistical Thermal Analysis  ***  ideal gas assumed  ***
 ============================
  
 Pressure:                  1.000000 atm.
 Temperature:             298.150000 K



 Moments of Inertia [amu*bohr^2] and principal axis
 ==================================================

        2155.0222      10875.5134      11564.5990
 ------------------------------------------------
          -0.9442          0.2620          0.1994
          -0.2452         -0.1555         -0.9569
           0.2197          0.9525         -0.2111


 The rotational contribution to the molecular entropy includes
 a term, dependent on the symmetry number sigma. The results 
 reported below were computed using sigma = 1, determined from
 the point group symmetry of the input geometry (NOSYM). 
 If this is not the correct symmetry, try symmetrizing the molecule before
 running the calculation (note: linear molecules should be aligned along one
 of the Cartesian axes).
 Contributions from frequencies below 20 1/cm are not included in vibrational sums.
 Their contributions, if any, are reported separately.


     Temp                                                        Transl      Rotat     Vibrat     Total
     ----                                                        ------      -----     ------     -----

     298.15   Entropy (cal/mol-K):                               43.157     33.960     63.605    140.722
              Nuclear Internal Energy (kcal/mol):                 0.889      0.889    138.995    140.773
              Constant Volume Heat Capacity (cal/mol-K):          2.981      2.981     53.888     59.849
          (c) Constant Volume Heat Capacity (cal/mol-K):          2.981      2.981     48.875     54.837

 Contributions from frequencies below 20 1/cm
 Frequency (1/cm):                                   14.875
 Entropy (cal/mol-K):                                 7.222
 Nuclear Internal Energy (kcal/mol):                  0.593
 Constant Volume Heat Capacity (cal/mol-K):           1.986

       Summary of energy terms
                                                   hartree              eV         kcal/mol           kJ/mol
                                      --------------------     -----------       ----------      -----------
      Energy from Engine:               -5.013943230126896       -136.4363         -3146.30        -13164.11
      Nuclear Internal Energy:           0.224335910897850          6.1045           140.77           588.99
  (c) Nuclear Internal Energy:           0.221758161892052          6.0343           139.16           582.23
      Internal Energy U:                -4.789607319229047       -130.3318         -3005.52        -12575.11
      pV/n = RT:                         0.000944186013486          0.0257             0.59             2.48
      Enthalpy H:                       -4.788663133215561       -130.3062         -3004.93        -12572.63
      -T*S:                             -0.066861460531412         -1.8194           -41.96          -175.54
  (c) -T*S:                             -0.065938493867370         -1.7943           -41.38          -173.12
      Gibbs free energy:                -4.855524593746973       -132.1255         -3046.89        -12748.18
 
 
 
  (c) The properties marked with this symbol have been corrected using 'low vibrational frequency free rotor
      interpolation corrections'. For those terms all positive frequencies are used (also ones below 20 1/cm),
      but the contribution to the partition function of small vibrational frequencies is modified as described
      in the following paper:
      S. Grimme, 'Supramolecular Binding Thermodynamics by Dispersion-Corrected Density Functional Theory'
      (Chem. Eur. J. 2012, 18, 9955-9964)
      Configuration: Dampener Frequency          :   100.000 1/cm
                     Dampener Alpha              :     4.000
                     Averaging Moment of Inertia : 1.000E-44 kg m2

--------------
Atomic charges
--------------
  Index   Atom    Charge
      1      H   -0.2125
      2      C    0.2703
      3      C    0.2253
      4      C    0.7304
      5      O   -0.5825
      6      H   -0.1734
      7      H   -0.1530
      8      H   -0.1789
      9      H   -0.1644
     10      C    0.5850
     11      C    0.7252
     12      C   -0.0445
     13      C    0.7667
     14      C    0.7403
     15      H   -0.2364
     16      H   -0.2265
     17      H   -0.2246
     18      H   -0.2352
     19      H   -0.2410
     20      H   -0.2481
     21      H   -0.2392
     22      H   -0.2386
     23      H   -0.2455
     24      H   -0.2590
     25     Sn    0.7257
     26     Cl   -0.4294
     27     Cl   -0.4364


Dipole moment vector    (Debye):    -7.06992722   -4.20080663    1.30499418
              magnitude (Debye):     8.32668343


Final PES point is a transition state. Transition state search successful!


AMS application finished. Exiting.
NORMAL TERMINATION
     Total cpu time:  253782.04
  Total system time:     938.60
 Total elapsed time:  512261.31
 WARNING: total elapsed time is much higher than the (CPU+system) time. 
 Make sure the machine is not oversubscribed and has enough memory, SCM_TMPDIR p
 oints to a fast file system, and the network is fast enough.
