

 Parallel Execution: Process Information
 ==============================================================================
 Rank   Node Name                              NodeID   MyNodeRank  NodeMaster
    0   node115                                   0          0          0
    1   node115                                   0          1         -1
    2   node115                                   0          2         -1
    3   node115                                   0          3         -1
 ==============================================================================


May use up to 122928MB of RAM as shared memory on node 0

 *******************************************************************************
 *                                                                             *
 *  --------------------------------                                           *
 *   Amsterdam Modeling Suite (AMS)              2021.102                      *
 *  --------------------------------                                           *
 *                                               r95042 2021-06-07             *
 *                                                                             *
 *                                                                             *
 *                              =================                              *
 *                              |               |                              *
 *                              |     A M S     |                              *
 *                              |               |                              *
 *                              =================                              *
 *                                                                             *
 *                                                                             *
 *   Online information and documentation:  https://www.scm.com/support/       *
 *   E-mail:  support@scm.com   info@scm.com                                   *
 *                                                                             *
 *   Scientific publications using AMS results must be properly referenced     *
 *   See the User Manuals (or the web site) for recommended citations          *
 *   The terms and conditions of the End User License Agreement apply to       *
 *   the use of AMS, https://www.scm.com/license-terms/                        *
 *                                                                             *
 **********************  x86_64_linux_intel / intelmpi  ************************
 
 Licensed to: VU/FEW (+ SARA) / ALGEMEEN / Amsterdam / THE NETHERLANDS
 SCM User ID: u7668
  
 AMS 2021.102  RunTime: Jan22-2022 23:26:33  ShM Nodes: 1  Procs: 4

 AMS jobname: 30.achiral_catalyst.H_H_SnCl4.Rcat
 AMS jobid  : 2022467339

 Start   directory: /scistor/tc/yhk800/MasterProject/calculations/achiral_catalyst_H_H_SnCl4/30.achiral_catalyst.H_H_SnCl4.Rcat/
 Results directory: /scistor/tc/yhk800/MasterProject/calculations/achiral_catalyst_H_H_SnCl4/30.achiral_catalyst.H_H_SnCl4.Rcat/
 Scratch directory: /scratch/3980/amstmp_30.achiral_catalyst.H_H_SnCl4.Rcat_kid0.2022467339/


 Communication costs MPI_COMM_WORLD:      0.009 usec per message,   0.0042 usec per 8-byte item
 Communication costs for intra-node:      0.847 usec per message,   0.0068 usec per 8-byte item

 RNG seed: -1102126577 1501423661 -846730423 539096880 1809709783 246447510 690036096 1922873532



                      ************************************************************************
                      *  ADF 2021.102  RunTime: Jan22-2022 23:26:34  ShM Nodes: 1  Procs: 4  *
                      ************************************************************************
  
       ***************************
       *  GEOMETRY OPTIMIZATION  *
       ***************************

Optimization Method                    Quasi Newton
Optimization Coordinates               Delocalized Coordinates
Optimize lattice                       F
 
 ------------------------------------------------------
 Convergence criteria (Hartree,Angstrom)
 ------------------------------------------------------
 Maximum gradient               0.001000000000
 Maximum rms gradient           0.000666666667
 Maximum step allowed           0.010000000000
 Maximum rms step allowed       0.006666666667
 Maximum energy change allowe   0.000050000000
 Maximum stress energy allowe   0.000500000000
 
Initial model Hessian                  Automatic Hessian
 
------------------------------------
Quasi-Newton Optimizer Parameters
------------------------------------
Hessian Update Method                  BFGS
Maximum number of steps                  250
First GDIIS cycle                          0
Maximum GDIIS vectors                      0
Trust radius (bohr)                        0.200000
Trust radius varies                        T
Constraints converged at all steps         T
Use projector                              T
 
 Rigid motions settings for: old optimizer
 Atomic rotations (x,y,z):     T T T
 Atomic translations (x,y,z):  T T T
 Tolerance:                   1.000000000000000E-006
 
--------
Geometry
--------
Formula: Cl4Sn
Atoms
  Index Symbol   x (angstrom)   y (angstrom)   z (angstrom)
      1     Sn     1.92000000     0.00000000     0.00000000
      2     Cl     1.92000000     0.61292776    -2.28747753
      3     Cl     1.92000000    -2.28747753    -0.61292776
      4     Cl     1.92000000    -0.61292776     2.28747753
      5     Cl     1.92000000     2.28747753     0.61292776
 
Total System Charge             0.00000
 
 
----------------
ADF Engine Input
----------------
 
 NumericalQuality VeryGood
 SCF
 Converge 1.0e-6
 Iterations 99
 End
 SYMMETRY NOSYM
 XC
 GGA OLYP
 End
 basis
 core None
 type TZ2P
 End
 

 Title: *** (NO TITLE) ***

 WARNING: Atom coordinates do not satisfy full symmetry (probably due to orienta
 tion).
Number of symmetry operators: 8
Schoenflies symbol:           C(4V)
 Using automatic Hessian for delocalized coordinates.
 *** GOStep1 ***

 Energy gradients wrt nuclear displacements
 ==========================================

     Atom      Cartesian (a.u./angstrom)
                 X         Y         Z
 ----------------------------------------
     1 Sn    0.000000 -0.000000  0.000000
     2 Cl   -0.000000  0.000424 -0.001676
     3 Cl   -0.000000 -0.001676 -0.000424
     4 Cl   -0.000000 -0.000424  0.001676
     5 Cl   -0.000000  0.001676  0.000424
 ----------------------------------------
 Mulliken charges used for AMS results%charges...
 
----------------------------------------------------------------------
Geometry Convergence after Step   1       (Hartree/Angstrom,Angstrom)
----------------------------------------------------------------------
current energy                               -0.48855192 Hartree
energy change                      -0.48855192     0.00005000    F
constrained gradient max            0.00166949     0.00100000    F
constrained gradient rms            0.00089253     0.00066667    F
gradient max                        0.00166949
gradient rms                        0.00089253
cart. step max                      0.00092269     0.01000000    T
cart. step rms                      0.00049328     0.00666667    T
 
 
--------
Geometry
--------
Formula: Cl4Sn
Atoms
  Index Symbol   x (angstrom)   y (angstrom)   z (angstrom)
      1     Sn     1.92000000    -0.00000000     0.00000000
      2     Cl     1.92000000     0.61268053    -2.28655484
      3     Cl     1.92000000    -2.28655484    -0.61268053
      4     Cl     1.92000000    -0.61268053     2.28655484
      5     Cl     1.92000000     2.28655484     0.61268053
 
Total System Charge             0.00000
 
 *** GOStep2 ***

 Energy gradients wrt nuclear displacements
 ==========================================

     Atom      Cartesian (a.u./angstrom)
                 X         Y         Z
 ----------------------------------------
     1 Sn   -0.000000 -0.000000  0.000000
     2 Cl    0.000000  0.000308 -0.001243
     3 Cl    0.000000 -0.001243 -0.000308
     4 Cl    0.000000 -0.000308  0.001243
     5 Cl    0.000000  0.001243  0.000308
 ----------------------------------------
 Mulliken charges used for AMS results%charges...

 dE(predicted):    -0.33020E-05, dE(actual):    -0.49295E-05, Trust radius:    0.200000, all in a.u.
 
----------------------------------------------------------------------
Geometry Convergence after Step   2       (Hartree/Angstrom,Angstrom)
----------------------------------------------------------------------
current energy                               -0.48855685 Hartree
energy change                      -0.00000493     0.00005000    T
constrained gradient max            0.00123688     0.00100000    F
constrained gradient rms            0.00066126     0.00066667    T
gradient max                        0.00123688
gradient rms                        0.00066126
cart. step max                      0.00263811     0.01000000    T
cart. step rms                      0.00141037     0.00666667    T
 
 
--------
Geometry
--------
Formula: Cl4Sn
Atoms
  Index Symbol   x (angstrom)   y (angstrom)   z (angstrom)
      1     Sn     1.91999994     0.00000000    -0.00000000
      2     Cl     1.92000002     0.61197365    -2.28391673
      3     Cl     1.92000002    -2.28391673    -0.61197365
      4     Cl     1.92000002    -0.61197365     2.28391673
      5     Cl     1.92000002     2.28391673     0.61197365
 
Total System Charge             0.00000
 
 *** GOStep3 ***

 Energy gradients wrt nuclear displacements
 ==========================================

     Atom      Cartesian (a.u./angstrom)
                 X         Y         Z
 ----------------------------------------
     1 Sn   -0.000000 -0.000000  0.000000
     2 Cl    0.000000 -0.000027  0.000005
     3 Cl    0.000000  0.000005  0.000027
     4 Cl    0.000000  0.000027 -0.000005
     5 Cl    0.000000 -0.000005 -0.000027
 ----------------------------------------
 Mulliken charges used for AMS results%charges...

 dE(predicted):    -0.69946E-05, dE(actual):    -0.45983E-05, Trust radius:    0.200000, all in a.u.
 
---------------------------------------------------------
Geometry Convergence after Step   3       ** CONVERGED **
---------------------------------------------------------
current energy                               -0.48856145 Hartree
energy change                      -0.00000460     0.00005000    T
constrained gradient max            0.00001176     0.00100000    T
constrained gradient rms            0.00000629     0.00066667    T
gradient max                        0.00001176
gradient rms                        0.00000629
cart. step max                      0.00002485     0.01000000    T
cart. step rms                      0.00001329     0.00666667    T
 
Geometry optimization converged

Optimized geometry:
 
--------
Geometry
--------
Formula: Cl4Sn
Atoms
  Index Symbol   x (angstrom)   y (angstrom)   z (angstrom)
      1     Sn     1.91999994     0.00000000    -0.00000000
      2     Cl     1.92000002     0.61197365    -2.28391673
      3     Cl     1.92000002    -2.28391673    -0.61197365
      4     Cl     1.92000002    -0.61197365     2.28391673
      5     Cl     1.92000002     2.28391673     0.61197365
 
Total System Charge             0.00000
 
Performing a single point calculation on the final geometry ...

 *** adf ***



 ===========================
 A T T A C H E D   F I L E S
 ===========================
  
 Restart
 /scratch/3980/amstmp_30.achiral_catalyst.H_H_SnCl4.Rcat_kid0.2022467339/GOStep3
 .rkf*** GOStep3 ***



 ===============================
 M O D E L   P A R A M E T E R S
 ===============================
  
 DENSITY FUNCTIONAL POTENTIAL (scf)
    LDA:                               Exchange only                           == Not Default ==
    Gradient Corrections:              OPTX LYP                                == Not Default ==

 SPIN  (restricted / unrestr.)
    Molecule:                          Restricted                               
    Fragments:                         Restricted                               

 OTHER ASPECTS
    Relativistic Corrections:          scalar (ZORA,MAPA)                       

    Nuclear Charge Density Model:      Point Charge Nuclei                      
    Core Treatment:                    Frozen Orbital(s)                        

    Hyperfine or Zeeman Interaction:   ---                                      



 ===============
 G E O M E T R Y  ***  3D  Molecule  ***
 ===============
  

 ATOMS
 =====                            X Y Z                    CHARGE
                                (Angstrom)             Nucl     +Core       At.Mass
                       --------------------------    ----------------       -------
    1  Sn              1.9200    0.0000   -0.0000     50.00     50.00      119.9022
    2  Cl              1.9200    0.6120   -2.2839     17.00     17.00       34.9689
    3  Cl              1.9200   -2.2839   -0.6120     17.00     17.00       34.9689
    4  Cl              1.9200   -0.6120    2.2839     17.00     17.00       34.9689
    5  Cl              1.9200    2.2839    0.6120     17.00     17.00       34.9689


 FRAGMENTS
 =========                                     Atoms in this Fragment     Cart. coord.s (Angstrom)
                                               -------------------------------------------------------
    1  Sn                                                1  Sn           1.9200    0.0000   -0.0000
    2  Cl                                                2  Cl           1.9200    0.6120   -2.2839
    3  Cl                                                3  Cl           1.9200   -2.2839   -0.6120
    4  Cl                                                4  Cl           1.9200   -0.6120    2.2839
    5  Cl                                                5  Cl           1.9200    2.2839    0.6120


 Interatomic Distance Matrix (Angstrom)
 --------------------------------------

   1)     0.000
   2)     2.364   0.000
   3)     2.364   3.344   0.000
   4)     2.364   4.729   3.344   0.000
   5)     2.364   3.344   4.729   3.344   0.000

 Min. Distance =    2.3645
 Max. Distance =    4.7290



 =====================================
 S Y M M E T R Y ,   E L E C T R O N S
 =====================================
  
 Symmetry: NOSYM

 Irreducible Representations, including subspecies
 -------------------------------------------------
 A


 Configuration of Valence Electrons
 ==================================
 ( determined in the SCF procedure )

 Total:   118

 Net Charge: 0 (Nuclei minus Electrons)

 Aufbau principle for MO occupations will be applied through SCF cycle no.      49
 Thereafter, the program will assign electrons to MOs that are spatially
 similar to the occupied MOs in a "reference" cycle ("KeepOrbitals").
 The reference cycle is always the PREVIOUS cycle: it will evolve with
 the SCF procedure.
1
 ***************************************************************************************************



                                      ****************************************
                                      *  B U I L D : (Fragments, Functions)  *
                                      ****************************************
  



 =======
 S F O s  ***  (Symmetrized Fragment Orbitals)  ***
 =======
  
 SFOs are linear combinations of (valence) Fragment Orbitals (FOs), such that the SFOs transform as the
 irreducible representations of the (molecular) symmetry group. Each SFO is therefore characterized by
 an irrep of the molecule and by a few (or only one) generating FOs.
 The SFOs constitute a symmetry-adapted basis for the Fock matrix. The MO eigenvector coefficients in
 this basis provide a direct interpretation of the MOs in terms of Frontier Orbital Theory.

 The SFOs are combined with auxiliary Core Functions (CFs) to ensure orthogonalization on the (frozen)
 Core Orbitals (COs). The Core-orthogonalized SFOs (CSFOs) constitute the true Fock basis.

 The FOs, and hence also the (C)SFOs are combinations of the elementary basis functions (BAS). The basis
 functions that participate in the description of the SFOs depend on the irrep. The indices of the
 involved functions are printed below for each irrep.
 (The complete list of primitive basis functions is printed in another section)

 Total nr. of (C)SFOs (summation over all irreps) :   220

 NOTE: a (C)SFO that is defined as a combination of more than one FO is usually NOT normalized.



                                       === A ===
 Nr. of SFOs :  220
 Cartesian basis functions that participate in this irrep (total number =   246) :
      1     2     3     4     5     6     7     8     9    10
     11    12    13    16    19    22    25    28    31    34
     37    40    14    17    20    23    26    29    32    35
     38    41    15    18    21    24    27    30    33    36
     39    42    43    49    55    61    67    73    79    44
     50    56    62    68    74    80    45    51    57    63
     69    75    81    46    52    58    64    70    76    82
     47    53    59    65    71    77    83    48    54    60
     66    72    78    84    85    86    87    88    89    90
     91    92    93    94    95    96    97    98   105   106
    107    99   102   108   111   114   100   103   109   112
    115   101   104   110   113   116   117   118   119   120
    121   122   123   124   125   126   127   128   129   130
    131   132   133   134   135   136   143   144   145   137
    140   146   149   152   138   141   147   150   153   139
    142   148   151   154   155   156   157   158   159   160
    161   162   163   164   165   166   167   168   169   170
    171   172   173   174   181   182   183   175   178   184
    187   190   176   179   185   188   191   177   180   186
    189   192   193   194   195   196   197   198   199   200
    201   202   203   204   205   206   207   208   209   210
    211   212   219   220   221   213   216   222   225   228
    214   217   223   226   229   215   218   224   227   230
    231   232   233   234   235   236   237   238   239   240
    241   242   243   244   245   246

    SFO  (index         Fragment          Generating    Expansion in Fragment Orbitals
  indx  incl.CFs)   Occup   Orb.Energy   FragmentType  Coeff.   Orbital     on Fragment
 --------------------------------------------------------------------------------------
     1       1      2.000   -1064.721 au  Sn            1.00      1 S               1
                        (  -28972.530 eV)
     2       2      2.000    -160.883 au  Sn            1.00      2 S               1
                        (   -4377.845 eV)
     3       3      2.000     -31.054 au  Sn            1.00      3 S               1
                        (    -845.015 eV)
     4       4      2.000      -4.922 au  Sn            1.00      4 S               1
                        (    -133.948 eV)
     5       5      2.000      -0.379 au  Sn            1.00      5 S               1
                        (     -10.301 eV)
     6       6       --         0.074 au  Sn            1.00      6 S               1
                        (       2.000 eV)
     7       7       --         0.912 au  Sn            1.00      7 S               1
                        (      24.812 eV)
     8       8       --         5.318 au  Sn            1.00      8 S               1
                        (     144.715 eV)
     9       9       --        31.973 au  Sn            1.00      9 S               1
                        (     870.039 eV)
    10      10       --       649.318 au  Sn            1.00     10 S               1
                        (   17668.837 eV)
    11      11       --      4485.223 au  Sn            1.00     11 S               1
                        (  122049.131 eV)
    12      12       --     22250.957 au  Sn            1.00     12 S               1
                        (  605479.358 eV)
    13      13      2.000    -144.442 au  Sn            1.00      1 P:x             1
                        (   -3930.457 eV)
    14      14      2.000     -25.710 au  Sn            1.00      2 P:x             1
                        (    -699.610 eV)
    15      15      2.000      -3.307 au  Sn            1.00      3 P:x             1
                        (     -89.992 eV)
    16      16      0.667      -0.127 au  Sn            1.00      4 P:x             1
                        (      -3.443 eV)
    17      17       --         0.039 au  Sn            1.00      5 P:x             1
                        (       1.063 eV)
    18      18       --         0.475 au  Sn            1.00      6 P:x             1
                        (      12.929 eV)
    19      19       --         3.352 au  Sn            1.00      7 P:x             1
                        (      91.200 eV)
    20      20       --        24.951 au  Sn            1.00      8 P:x             1
                        (     678.957 eV)
    21      21       --       249.500 au  Sn            1.00      9 P:x             1
                        (    6789.241 eV)
    22      22       --      2668.826 au  Sn            1.00     10 P:x             1
                        (   72622.439 eV)
    23      23      2.000    -144.442 au  Sn            1.00      1 P:y             1
                        (   -3930.457 eV)
    24      24      2.000     -25.710 au  Sn            1.00      2 P:y             1
                        (    -699.610 eV)
    25      25      2.000      -3.307 au  Sn            1.00      3 P:y             1
                        (     -89.992 eV)
    26      26      0.667      -0.127 au  Sn            1.00      4 P:y             1
                        (      -3.443 eV)
    27      27       --         0.039 au  Sn            1.00      5 P:y             1
                        (       1.063 eV)
    28      28       --         0.475 au  Sn            1.00      6 P:y             1
                        (      12.929 eV)
    29      29       --         3.352 au  Sn            1.00      7 P:y             1
                        (      91.200 eV)
    30      30       --        24.951 au  Sn            1.00      8 P:y             1
                        (     678.957 eV)
    31      31       --       249.500 au  Sn            1.00      9 P:y             1
                        (    6789.241 eV)
    32      32       --      2668.826 au  Sn            1.00     10 P:y             1
                        (   72622.439 eV)
    33      33      2.000    -144.442 au  Sn            1.00      1 P:z             1
                        (   -3930.457 eV)
    34      34      2.000     -25.710 au  Sn            1.00      2 P:z             1
                        (    -699.610 eV)
    35      35      2.000      -3.307 au  Sn            1.00      3 P:z             1
                        (     -89.992 eV)
    36      36      0.667      -0.127 au  Sn            1.00      4 P:z             1
                        (      -3.443 eV)
    37      37       --         0.039 au  Sn            1.00      5 P:z             1
                        (       1.063 eV)
    38      38       --         0.475 au  Sn            1.00      6 P:z             1
                        (      12.929 eV)
    39      39       --         3.352 au  Sn            1.00      7 P:z             1
                        (      91.200 eV)
    40      40       --        24.951 au  Sn            1.00      8 P:z             1
                        (     678.957 eV)
    41      41       --       249.500 au  Sn            1.00      9 P:z             1
                        (    6789.241 eV)
    42      42       --      2668.826 au  Sn            1.00     10 P:z             1
                        (   72622.439 eV)
    43      43      2.000     -17.458 au  Sn            1.00      1 D:z2            1
                        (    -475.044 eV)
    44      44      2.000      -0.960 au  Sn            1.00      2 D:z2            1
                        (     -26.135 eV)
    45      45       --         0.138 au  Sn            1.00      3 D:z2            1
                        (       3.757 eV)
    46      46       --         0.872 au  Sn            1.00      4 D:z2            1
                        (      23.719 eV)
    47      47       --         4.106 au  Sn            1.00      5 D:z2            1
                        (     111.718 eV)
    48      48       --        19.882 au  Sn            1.00      6 D:z2            1
                        (     541.003 eV)
    49      49       --       111.558 au  Sn            1.00      7 D:z2            1
                        (    3035.638 eV)
    50      50      2.000     -17.458 au  Sn            1.00      1 D:x2-y2         1
                        (    -475.044 eV)
    51      51      2.000      -0.960 au  Sn            1.00      2 D:x2-y2         1
                        (     -26.135 eV)
    52      52       --         0.138 au  Sn            1.00      3 D:x2-y2         1
                        (       3.757 eV)
    53      53       --         0.872 au  Sn            1.00      4 D:x2-y2         1
                        (      23.719 eV)
    54      54       --         4.106 au  Sn            1.00      5 D:x2-y2         1
                        (     111.718 eV)
    55      55       --        19.882 au  Sn            1.00      6 D:x2-y2         1
                        (     541.003 eV)
    56      56       --       111.558 au  Sn            1.00      7 D:x2-y2         1
                        (    3035.638 eV)
    57      57      2.000     -17.458 au  Sn            1.00      1 D:xy            1
                        (    -475.044 eV)
    58      58      2.000      -0.960 au  Sn            1.00      2 D:xy            1
                        (     -26.135 eV)
    59      59       --         0.138 au  Sn            1.00      3 D:xy            1
                        (       3.757 eV)
    60      60       --         0.872 au  Sn            1.00      4 D:xy            1
                        (      23.719 eV)
    61      61       --         4.106 au  Sn            1.00      5 D:xy            1
                        (     111.718 eV)
    62      62       --        19.882 au  Sn            1.00      6 D:xy            1
                        (     541.003 eV)
    63      63       --       111.558 au  Sn            1.00      7 D:xy            1
                        (    3035.638 eV)
    64      64      2.000     -17.458 au  Sn            1.00      1 D:xz            1
                        (    -475.044 eV)
    65      65      2.000      -0.960 au  Sn            1.00      2 D:xz            1
                        (     -26.135 eV)
    66      66       --         0.138 au  Sn            1.00      3 D:xz            1
                        (       3.757 eV)
    67      67       --         0.872 au  Sn            1.00      4 D:xz            1
                        (      23.719 eV)
    68      68       --         4.106 au  Sn            1.00      5 D:xz            1
                        (     111.718 eV)
    69      69       --        19.882 au  Sn            1.00      6 D:xz            1
                        (     541.003 eV)
    70      70       --       111.558 au  Sn            1.00      7 D:xz            1
                        (    3035.638 eV)
    71      71      2.000     -17.458 au  Sn            1.00      1 D:yz            1
                        (    -475.044 eV)
    72      72      2.000      -0.960 au  Sn            1.00      2 D:yz            1
                        (     -26.135 eV)
    73      73       --         0.138 au  Sn            1.00      3 D:yz            1
                        (       3.757 eV)
    74      74       --         0.872 au  Sn            1.00      4 D:yz            1
                        (      23.719 eV)
    75      75       --         4.106 au  Sn            1.00      5 D:yz            1
                        (     111.718 eV)
    76      76       --        19.882 au  Sn            1.00      6 D:yz            1
                        (     541.003 eV)
    77      77       --       111.558 au  Sn            1.00      7 D:yz            1
                        (    3035.638 eV)
    78      78       --         0.782 au  Sn            1.00      1 F:z3            1
                        (      21.283 eV)
    79      79       --         0.782 au  Sn            1.00      1 F:z             1
                        (      21.283 eV)
    80      80       --         0.782 au  Sn            1.00      1 F:xyz           1
                        (      21.283 eV)
    81      81       --         0.782 au  Sn            1.00      1 F:z2x           1
                        (      21.283 eV)
    82      82       --         0.782 au  Sn            1.00      1 F:z2y           1
                        (      21.283 eV)
    83      83       --         0.782 au  Sn            1.00      1 F:x             1
                        (      21.283 eV)
    84      84       --         0.782 au  Sn            1.00      1 F:y             1
                        (      21.283 eV)
    85      85      2.000    -101.052 au  Cl            1.00      1 S               2
                        (   -2749.765 eV)
    86      86      2.000      -9.313 au  Cl            1.00      2 S               2
                        (    -253.406 eV)
    87      87      2.000      -0.758 au  Cl            1.00      3 S               2
                        (     -20.633 eV)
    88      88       --         0.208 au  Cl            1.00      4 S               2
                        (       5.658 eV)
    89      89       --         2.007 au  Cl            1.00      5 S               2
                        (      54.621 eV)
    90      90       --        12.626 au  Cl            1.00      6 S               2
                        (     343.574 eV)
    91      91       --       205.598 au  Cl            1.00      7 S               2
                        (    5594.614 eV)
    92      92      2.000      -7.061 au  Cl            1.00      1 P:x             2
                        (    -192.151 eV)
    93      93      1.667      -0.312 au  Cl            1.00      2 P:x             2
                        (      -8.486 eV)
    94      94       --         0.227 au  Cl            1.00      3 P:x             2
                        (       6.179 eV)
    95      95       --         2.122 au  Cl            1.00      4 P:x             2
                        (      57.749 eV)
    96      96       --        18.691 au  Cl            1.00      5 P:x             2
                        (     508.605 eV)
    97      97      2.000      -7.061 au  Cl            1.00      1 P:y             2
                        (    -192.151 eV)
    98      98      1.667      -0.312 au  Cl            1.00      2 P:y             2
                        (      -8.486 eV)
    99      99       --         0.227 au  Cl            1.00      3 P:y             2
                        (       6.179 eV)
   100     100       --         2.122 au  Cl            1.00      4 P:y             2
                        (      57.749 eV)
   101     101       --        18.691 au  Cl            1.00      5 P:y             2
                        (     508.605 eV)
   102     102      2.000      -7.061 au  Cl            1.00      1 P:z             2
                        (    -192.151 eV)
   103     103      1.667      -0.312 au  Cl            1.00      2 P:z             2
                        (      -8.486 eV)
   104     104       --         0.227 au  Cl            1.00      3 P:z             2
                        (       6.179 eV)
   105     105       --         2.122 au  Cl            1.00      4 P:z             2
                        (      57.749 eV)
   106     106       --        18.691 au  Cl            1.00      5 P:z             2
                        (     508.605 eV)
   107     107       --         0.387 au  Cl            1.00      1 D:z2            2
                        (      10.541 eV)
   108     108       --         0.387 au  Cl            1.00      1 D:x2-y2         2
                        (      10.541 eV)
   109     109       --         0.387 au  Cl            1.00      1 D:xy            2
                        (      10.541 eV)
   110     110       --         0.387 au  Cl            1.00      1 D:xz            2
                        (      10.541 eV)
   111     111       --         0.387 au  Cl            1.00      1 D:yz            2
                        (      10.541 eV)
   112     112       --         1.191 au  Cl            1.00      1 F:z3            2
                        (      32.402 eV)
   113     113       --         1.191 au  Cl            1.00      1 F:z             2
                        (      32.402 eV)
   114     114       --         1.191 au  Cl            1.00      1 F:xyz           2
                        (      32.402 eV)
   115     115       --         1.191 au  Cl            1.00      1 F:z2x           2
                        (      32.402 eV)
   116     116       --         1.191 au  Cl            1.00      1 F:z2y           2
                        (      32.402 eV)
   117     117       --         1.191 au  Cl            1.00      1 F:x             2
                        (      32.402 eV)
   118     118       --         1.191 au  Cl            1.00      1 F:y             2
                        (      32.402 eV)
   119     119      2.000    -101.052 au  Cl            1.00      1 S               3
                        (   -2749.765 eV)
   120     120      2.000      -9.313 au  Cl            1.00      2 S               3
                        (    -253.406 eV)
   121     121      2.000      -0.758 au  Cl            1.00      3 S               3
                        (     -20.633 eV)
   122     122       --         0.208 au  Cl            1.00      4 S               3
                        (       5.658 eV)
   123     123       --         2.007 au  Cl            1.00      5 S               3
                        (      54.621 eV)
   124     124       --        12.626 au  Cl            1.00      6 S               3
                        (     343.574 eV)
   125     125       --       205.598 au  Cl            1.00      7 S               3
                        (    5594.614 eV)
   126     126      2.000      -7.061 au  Cl            1.00      1 P:x             3
                        (    -192.151 eV)
   127     127      1.667      -0.312 au  Cl            1.00      2 P:x             3
                        (      -8.486 eV)
   128     128       --         0.227 au  Cl            1.00      3 P:x             3
                        (       6.179 eV)
   129     129       --         2.122 au  Cl            1.00      4 P:x             3
                        (      57.749 eV)
   130     130       --        18.691 au  Cl            1.00      5 P:x             3
                        (     508.605 eV)
   131     131      2.000      -7.061 au  Cl            1.00      1 P:y             3
                        (    -192.151 eV)
   132     132      1.667      -0.312 au  Cl            1.00      2 P:y             3
                        (      -8.486 eV)
   133     133       --         0.227 au  Cl            1.00      3 P:y             3
                        (       6.179 eV)
   134     134       --         2.122 au  Cl            1.00      4 P:y             3
                        (      57.749 eV)
   135     135       --        18.691 au  Cl            1.00      5 P:y             3
                        (     508.605 eV)
   136     136      2.000      -7.061 au  Cl            1.00      1 P:z             3
                        (    -192.151 eV)
   137     137      1.667      -0.312 au  Cl            1.00      2 P:z             3
                        (      -8.486 eV)
   138     138       --         0.227 au  Cl            1.00      3 P:z             3
                        (       6.179 eV)
   139     139       --         2.122 au  Cl            1.00      4 P:z             3
                        (      57.749 eV)
   140     140       --        18.691 au  Cl            1.00      5 P:z             3
                        (     508.605 eV)
   141     141       --         0.387 au  Cl            1.00      1 D:z2            3
                        (      10.541 eV)
   142     142       --         0.387 au  Cl            1.00      1 D:x2-y2         3
                        (      10.541 eV)
   143     143       --         0.387 au  Cl            1.00      1 D:xy            3
                        (      10.541 eV)
   144     144       --         0.387 au  Cl            1.00      1 D:xz            3
                        (      10.541 eV)
   145     145       --         0.387 au  Cl            1.00      1 D:yz            3
                        (      10.541 eV)
   146     146       --         1.191 au  Cl            1.00      1 F:z3            3
                        (      32.402 eV)
   147     147       --         1.191 au  Cl            1.00      1 F:z             3
                        (      32.402 eV)
   148     148       --         1.191 au  Cl            1.00      1 F:xyz           3
                        (      32.402 eV)
   149     149       --         1.191 au  Cl            1.00      1 F:z2x           3
                        (      32.402 eV)
   150     150       --         1.191 au  Cl            1.00      1 F:z2y           3
                        (      32.402 eV)
   151     151       --         1.191 au  Cl            1.00      1 F:x             3
                        (      32.402 eV)
   152     152       --         1.191 au  Cl            1.00      1 F:y             3
                        (      32.402 eV)
   153     153      2.000    -101.052 au  Cl            1.00      1 S               4
                        (   -2749.765 eV)
   154     154      2.000      -9.313 au  Cl            1.00      2 S               4
                        (    -253.406 eV)
   155     155      2.000      -0.758 au  Cl            1.00      3 S               4
                        (     -20.633 eV)
   156     156       --         0.208 au  Cl            1.00      4 S               4
                        (       5.658 eV)
   157     157       --         2.007 au  Cl            1.00      5 S               4
                        (      54.621 eV)
   158     158       --        12.626 au  Cl            1.00      6 S               4
                        (     343.574 eV)
   159     159       --       205.598 au  Cl            1.00      7 S               4
                        (    5594.614 eV)
   160     160      2.000      -7.061 au  Cl            1.00      1 P:x             4
                        (    -192.151 eV)
   161     161      1.667      -0.312 au  Cl            1.00      2 P:x             4
                        (      -8.486 eV)
   162     162       --         0.227 au  Cl            1.00      3 P:x             4
                        (       6.179 eV)
   163     163       --         2.122 au  Cl            1.00      4 P:x             4
                        (      57.749 eV)
   164     164       --        18.691 au  Cl            1.00      5 P:x             4
                        (     508.605 eV)
   165     165      2.000      -7.061 au  Cl            1.00      1 P:y             4
                        (    -192.151 eV)
   166     166      1.667      -0.312 au  Cl            1.00      2 P:y             4
                        (      -8.486 eV)
   167     167       --         0.227 au  Cl            1.00      3 P:y             4
                        (       6.179 eV)
   168     168       --         2.122 au  Cl            1.00      4 P:y             4
                        (      57.749 eV)
   169     169       --        18.691 au  Cl            1.00      5 P:y             4
                        (     508.605 eV)
   170     170      2.000      -7.061 au  Cl            1.00      1 P:z             4
                        (    -192.151 eV)
   171     171      1.667      -0.312 au  Cl            1.00      2 P:z             4
                        (      -8.486 eV)
   172     172       --         0.227 au  Cl            1.00      3 P:z             4
                        (       6.179 eV)
   173     173       --         2.122 au  Cl            1.00      4 P:z             4
                        (      57.749 eV)
   174     174       --        18.691 au  Cl            1.00      5 P:z             4
                        (     508.605 eV)
   175     175       --         0.387 au  Cl            1.00      1 D:z2            4
                        (      10.541 eV)
   176     176       --         0.387 au  Cl            1.00      1 D:x2-y2         4
                        (      10.541 eV)
   177     177       --         0.387 au  Cl            1.00      1 D:xy            4
                        (      10.541 eV)
   178     178       --         0.387 au  Cl            1.00      1 D:xz            4
                        (      10.541 eV)
   179     179       --         0.387 au  Cl            1.00      1 D:yz            4
                        (      10.541 eV)
   180     180       --         1.191 au  Cl            1.00      1 F:z3            4
                        (      32.402 eV)
   181     181       --         1.191 au  Cl            1.00      1 F:z             4
                        (      32.402 eV)
   182     182       --         1.191 au  Cl            1.00      1 F:xyz           4
                        (      32.402 eV)
   183     183       --         1.191 au  Cl            1.00      1 F:z2x           4
                        (      32.402 eV)
   184     184       --         1.191 au  Cl            1.00      1 F:z2y           4
                        (      32.402 eV)
   185     185       --         1.191 au  Cl            1.00      1 F:x             4
                        (      32.402 eV)
   186     186       --         1.191 au  Cl            1.00      1 F:y             4
                        (      32.402 eV)
   187     187      2.000    -101.052 au  Cl            1.00      1 S               5
                        (   -2749.765 eV)
   188     188      2.000      -9.313 au  Cl            1.00      2 S               5
                        (    -253.406 eV)
   189     189      2.000      -0.758 au  Cl            1.00      3 S               5
                        (     -20.633 eV)
   190     190       --         0.208 au  Cl            1.00      4 S               5
                        (       5.658 eV)
   191     191       --         2.007 au  Cl            1.00      5 S               5
                        (      54.621 eV)
   192     192       --        12.626 au  Cl            1.00      6 S               5
                        (     343.574 eV)
   193     193       --       205.598 au  Cl            1.00      7 S               5
                        (    5594.614 eV)
   194     194      2.000      -7.061 au  Cl            1.00      1 P:x             5
                        (    -192.151 eV)
   195     195      1.667      -0.312 au  Cl            1.00      2 P:x             5
                        (      -8.486 eV)
   196     196       --         0.227 au  Cl            1.00      3 P:x             5
                        (       6.179 eV)
   197     197       --         2.122 au  Cl            1.00      4 P:x             5
                        (      57.749 eV)
   198     198       --        18.691 au  Cl            1.00      5 P:x             5
                        (     508.605 eV)
   199     199      2.000      -7.061 au  Cl            1.00      1 P:y             5
                        (    -192.151 eV)
   200     200      1.667      -0.312 au  Cl            1.00      2 P:y             5
                        (      -8.486 eV)
   201     201       --         0.227 au  Cl            1.00      3 P:y             5
                        (       6.179 eV)
   202     202       --         2.122 au  Cl            1.00      4 P:y             5
                        (      57.749 eV)
   203     203       --        18.691 au  Cl            1.00      5 P:y             5
                        (     508.605 eV)
   204     204      2.000      -7.061 au  Cl            1.00      1 P:z             5
                        (    -192.151 eV)
   205     205      1.667      -0.312 au  Cl            1.00      2 P:z             5
                        (      -8.486 eV)
   206     206       --         0.227 au  Cl            1.00      3 P:z             5
                        (       6.179 eV)
   207     207       --         2.122 au  Cl            1.00      4 P:z             5
                        (      57.749 eV)
   208     208       --        18.691 au  Cl            1.00      5 P:z             5
                        (     508.605 eV)
   209     209       --         0.387 au  Cl            1.00      1 D:z2            5
                        (      10.541 eV)
   210     210       --         0.387 au  Cl            1.00      1 D:x2-y2         5
                        (      10.541 eV)
   211     211       --         0.387 au  Cl            1.00      1 D:xy            5
                        (      10.541 eV)
   212     212       --         0.387 au  Cl            1.00      1 D:xz            5
                        (      10.541 eV)
   213     213       --         0.387 au  Cl            1.00      1 D:yz            5
                        (      10.541 eV)
   214     214       --         1.191 au  Cl            1.00      1 F:z3            5
                        (      32.402 eV)
   215     215       --         1.191 au  Cl            1.00      1 F:z             5
                        (      32.402 eV)
   216     216       --         1.191 au  Cl            1.00      1 F:xyz           5
                        (      32.402 eV)
   217     217       --         1.191 au  Cl            1.00      1 F:z2x           5
                        (      32.402 eV)
   218     218       --         1.191 au  Cl            1.00      1 F:z2y           5
                        (      32.402 eV)
   219     219       --         1.191 au  Cl            1.00      1 F:x             5
                        (      32.402 eV)
   220     220       --         1.191 au  Cl            1.00      1 F:y             5
                        (      32.402 eV)



 ================================
 (Slater-type)  F U N C T I O N S  ***  (Basis and Fit)  ***
 ================================
  

 Atom Type    1  (Sn)
 ==============

 Valence Basis Sets:  30
 -----------------------
   1 S  357.000000
   1 S   89.000000
   1 S   50.500000
   2 S   56.800000
   2 S   21.650000
   3 S   11.300000
   3 S    6.950000
   4 S    7.400000
   4 S    4.750000
   5 S    3.200000
   5 S    2.050000
   5 S    1.360000
   2 P   89.000000
   2 P   32.400000
   2 P   20.750000
   3 P   12.350000
   3 P    9.150000
   4 P    6.250000
   4 P    4.000000
   5 P    2.450000
   5 P    1.450000
   5 P    0.880000
   3 D   19.900000
   3 D   12.000000
   3 D    8.100000
   4 D    5.800000
   4 D    3.550000
   4 D    2.200000
   5 D    1.450000
   4 F    2.000000

 Atom Type    2  (Cl)
 ==============

 Valence Basis Sets:  14
 -----------------------
   1 S   20.300000
   1 S   15.250000
   2 S    6.250000
   2 S    4.450000
   2 P    8.850000
   2 P    5.050000
   3 S    3.450000
   3 S    2.300000
   3 S    1.600000
   3 P    3.350000
   3 P    2.050000
   3 P    1.200000
   3 D    2.000000
   4 F    2.000000


 BAS: List of all Elementary Cartesian Basis Functions
 =====================================================

 The numbering in the list below (to the right of the function characteristics) is referred
 to in print-outs of MO eigenvectors and Mulliken populations in the BAS representation
 (as contrasted to the SFO representation).

 Notes:
 1. The functions are characterized by a polynomial prefactor (powers of x,y,z and r) and
    an exponential decay factor alpha.
 2. Since the basis sets are specific for an atom TYPE, the individual functions occur on
    all atoms of that type.
 3. The word 'Core' in the left margin signals that it is a Core Function (CF) : not a
    degree of freedom in the valence set, but only used to ensure orthogonalization of
    the other valence basis functions on the frozen Core Orbitals.


 (power of) X  Y  Z  R     Alpha  on Atom
            ==========     =====     ==========

 Sn                                   1
                                  ---------------------------------------------------------------------------
            0  0  0  0   357.000      1
            0  0  0  0    89.000      2
            0  0  0  0    50.500      3
            0  0  0  1    56.800      4
            0  0  0  1    21.650      5
            0  0  0  2    11.300      6
            0  0  0  2     6.950      7
            0  0  0  3     7.400      8
            0  0  0  3     4.750      9
            0  0  0  4     3.200     10
            0  0  0  4     2.050     11
            0  0  0  4     1.360     12
            1  0  0  0    89.000     13
            0  1  0  0    89.000     14
            0  0  1  0    89.000     15
            1  0  0  0    32.400     16
            0  1  0  0    32.400     17
            0  0  1  0    32.400     18
            1  0  0  0    20.750     19
            0  1  0  0    20.750     20
            0  0  1  0    20.750     21
            1  0  0  1    12.350     22
            0  1  0  1    12.350     23
            0  0  1  1    12.350     24
            1  0  0  1     9.150     25
            0  1  0  1     9.150     26
            0  0  1  1     9.150     27
            1  0  0  2     6.250     28
            0  1  0  2     6.250     29
            0  0  1  2     6.250     30
            1  0  0  2     4.000     31
            0  1  0  2     4.000     32
            0  0  1  2     4.000     33
            1  0  0  3     2.450     34
            0  1  0  3     2.450     35
            0  0  1  3     2.450     36
            1  0  0  3     1.450     37
            0  1  0  3     1.450     38
            0  0  1  3     1.450     39
            1  0  0  3     0.880     40
            0  1  0  3     0.880     41
            0  0  1  3     0.880     42
            2  0  0  0    19.900     43
            1  1  0  0    19.900     44
            1  0  1  0    19.900     45
            0  2  0  0    19.900     46
            0  1  1  0    19.900     47
            0  0  2  0    19.900     48
            2  0  0  0    12.000     49
            1  1  0  0    12.000     50
            1  0  1  0    12.000     51
            0  2  0  0    12.000     52
            0  1  1  0    12.000     53
            0  0  2  0    12.000     54
            2  0  0  0     8.100     55
            1  1  0  0     8.100     56
            1  0  1  0     8.100     57
            0  2  0  0     8.100     58
            0  1  1  0     8.100     59
            0  0  2  0     8.100     60
            2  0  0  1     5.800     61
            1  1  0  1     5.800     62
            1  0  1  1     5.800     63
            0  2  0  1     5.800     64
            0  1  1  1     5.800     65
            0  0  2  1     5.800     66
            2  0  0  1     3.550     67
            1  1  0  1     3.550     68
            1  0  1  1     3.550     69
            0  2  0  1     3.550     70
            0  1  1  1     3.550     71
            0  0  2  1     3.550     72
            2  0  0  1     2.200     73
            1  1  0  1     2.200     74
            1  0  1  1     2.200     75
            0  2  0  1     2.200     76
            0  1  1  1     2.200     77
            0  0  2  1     2.200     78
            2  0  0  2     1.450     79
            1  1  0  2     1.450     80
            1  0  1  2     1.450     81
            0  2  0  2     1.450     82
            0  1  1  2     1.450     83
            0  0  2  2     1.450     84
            3  0  0  0     2.000     85
            2  1  0  0     2.000     86
            2  0  1  0     2.000     87
            1  2  0  0     2.000     88
            1  1  1  0     2.000     89
            1  0  2  0     2.000     90
            0  3  0  0     2.000     91
            0  2  1  0     2.000     92
            0  1  2  0     2.000     93
            0  0  3  0     2.000     94

 Cl                                   2    3    4    5
                                  ---------------------------------------------------------------------------
            0  0  0  0    20.300     95  133  171  209
            0  0  0  0    15.250     96  134  172  210
            0  0  0  1     6.250     97  135  173  211
            0  0  0  1     4.450     98  136  174  212
            1  0  0  0     8.850     99  137  175  213
            0  1  0  0     8.850    100  138  176  214
            0  0  1  0     8.850    101  139  177  215
            1  0  0  0     5.050    102  140  178  216
            0  1  0  0     5.050    103  141  179  217
            0  0  1  0     5.050    104  142  180  218
            0  0  0  2     3.450    105  143  181  219
            0  0  0  2     2.300    106  144  182  220
            0  0  0  2     1.600    107  145  183  221
            1  0  0  1     3.350    108  146  184  222
            0  1  0  1     3.350    109  147  185  223
            0  0  1  1     3.350    110  148  186  224
            1  0  0  1     2.050    111  149  187  225
            0  1  0  1     2.050    112  150  188  226
            0  0  1  1     2.050    113  151  189  227
            1  0  0  1     1.200    114  152  190  228
            0  1  0  1     1.200    115  153  191  229
            0  0  1  1     1.200    116  154  192  230
            2  0  0  0     2.000    117  155  193  231
            1  1  0  0     2.000    118  156  194  232
            1  0  1  0     2.000    119  157  195  233
            0  2  0  0     2.000    120  158  196  234
            0  1  1  0     2.000    121  159  197  235
            0  0  2  0     2.000    122  160  198  236
            3  0  0  0     2.000    123  161  199  237
            2  1  0  0     2.000    124  162  200  238
            2  0  1  0     2.000    125  163  201  239
            1  2  0  0     2.000    126  164  202  240
            1  1  1  0     2.000    127  165  203  241
            1  0  2  0     2.000    128  166  204  242
            0  3  0  0     2.000    129  167  205  243
            0  2  1  0     2.000    130  168  206  244
            0  1  2  0     2.000    131  169  207  245
            0  0  3  0     2.000    132  170  208  246

 Total number of charge fitting functions (nprimf)       701
 Total number of Cartesian basis functions (naos)        246
 Total number of Cartesian core functions  (ncos)          0

1
 ***************************************************************************************************



                                              ***********************
                                              *  T E C H N I C A L  *
                                              ***********************
  



 =============================================================
 P A R A L L E L I Z A T I O N  and  V E C T O R I Z A T I O N
 =============================================================
  
 Nr of parallel processes:                                4
 Maximum vector length in NumInt loops:                 128



 =====================
 S C F   U P D A T E S
 =====================
  
 Max. nr. of cycles:                                99
 Convergence criterion:                              0.0000010000
   secondary criterion:                              0.0010000000

 Mix parameter (when DIIS does not apply):           0.2000000000
 Mixed ADIIS+SDIIS will be used                  
    Max number of expansion vectors:                10
    Pure ADIIS when Max([F,P]) is above              0.1000000000
    Pure SDIIS when Max([F,P]) is below              0.0010000000
 Automatic ElectronSmearing (in case of problematic SCF convergence) disabled



 =================
 P R E C I S I O N  ***  (General: NumInt, NeglectFunctionTails, ...)  ***
 =================
  

 NumInt:           Target precision:                 8.0000000000
 -------           Initial precision:                8.0000000000
                   Min. precision (optimization):    8.0000000000

 Neglect Functions:          Basis functions:        0.1000000000E-09
 ------------------          Fit functions:          0.1000000000E-09



 ===========================
 L I N E A R   S C A L I N G
 ===========================
  

 Cut-off radii density fit:                        0.1000000000E-11
 Overlap cut-off criterion AO matrix elements:     0.1000000000E-09
 Cut-offs for Coulomb potential and fitted density:0.1000000000E-11
 Cut-off criterion for Coulomb multipole terms:    0.1000000000E-11
 Progressive Convergence parameter:                 0.000000000    

 Number of elements of the density matrix on this node (used, total):      8094     30381



 ===========================================
 Numerical Integration : Fuzzy Cells (Becke)
 ===========================================
  
 Becke grid quality: VERYGOOD       
  
 Lebedev angular grid order:             min:  13 max:  47
 Nr. of radial points:                   min:  93 max: 187

 Total nr. of points:     214454
 Nr. of blocks:             1676
 Block length:               128
 Nr. of dummy points:         74


 Test of Precision of the Numerical Integration Grid
 ===================================================

 Integral of the Total Core Density:                   0.00000000000000



 ========================
 Density Fitting (zlmFit)
 ========================
  
 ZlmFit Fit Quality: VERYGOOD       
  
 Max L-expansion:                        min:  11 max:  12
 Nr. of radial interpolation points:     min: 200 max: 380



 =====
 S C F  ***  ScaSCF  ***
 =====
  
 Initial density matrix is taken from previous geometry

 CYCLE    1
  ***********************************************************
  ** : orbital data taken from :/scratch/3980/amstmp_30.achiral_catalyst.H_H_SnCl4.Rcat_kid0.2022467339/GOStep3.rkf
  ***********************************************************
 SCF Error: norm([F,P])=      0.000000113631, max([F,P])=      0.000000020672
 orbitals (Q,E):
 ---------------
 A :50...69          ( 2.00    -0.3826)  ( 2.00    -0.3336)  ( 2.00    -0.3239)  ( 2.00    -0.3088)
                     ( 2.00    -0.3049)  ( 2.00    -0.3049)  ( 2.00    -0.2964)  ( 2.00    -0.2929)
                     ( 2.00    -0.2929)  ( 2.00    -0.2711)  ( 0.00    -0.1820)  ( 0.00    -0.1407)
                     ( 0.00    -0.0031)  ( 0.00    -0.0031)  ( 0.00     0.0142)  ( 0.00     0.0292)
                     ( 0.00     0.0394)  ( 0.00     0.0394)  ( 0.00     0.1216)  ( 0.00     0.1244)

 CYCLE    2
  SDIIS (wt  0.000):  0.7167  0.2833
 A-DIIS (wt  1.000):  0.0000  1.0000
  DIIS coefficients:  0.0000  1.0000
 SCF Error: norm([F,P])=      0.000000283102, max([F,P])=      0.000000050140
 orbitals (Q,E):
 ---------------
 A :50...60          ( 2.00    -0.3826)  ( 2.00    -0.3336)  ( 2.00    -0.3239)  ( 2.00    -0.3088)
                     ( 2.00    -0.3049)  ( 2.00    -0.3049)  ( 2.00    -0.2964)  ( 2.00    -0.2929)
                     ( 2.00    -0.2929)  ( 2.00    -0.2711)  ( 0.00    -0.1820)

 SCF CONVERGED

 CYCLE    3
1
 ***************************************************************************************************



                                                *******************
                                                *  R E S U L T S  *
                                                *******************
  
 *** Using FIT density in Focky
  SDIIS (wt  0.000):  1.1607 -0.1607
 A-DIIS (wt  1.000):  0.0000  1.0000
  DIIS coefficients:  0.0000  1.0000
 SCF Error: norm([F,P])=      0.000000745823, max([F,P])=      0.000000126066

 Scaled ZORA Orbital Energies, per Irrep and Spin:
 =================================================
                        Occup              E (au)              E (eV)       Diff (eV) with prev. cycle
                        -----      --------------------        ------       --------------------------
 A
              50        2.000     -0.38258224015548E+00       -10.411               1.46E-06
              51        2.000     -0.33358913587234E+00        -9.077              -1.92E-07
              52        2.000     -0.32385893477677E+00        -8.813               1.09E-07
              53        2.000     -0.30883411256282E+00        -8.404               1.21E-07
              54        2.000     -0.30488677802639E+00        -8.296              -1.87E-06
              55        2.000     -0.30488653892168E+00        -8.296               2.27E-06
              56        2.000     -0.29638223483308E+00        -8.065               2.69E-07
              57        2.000     -0.29289060934660E+00        -7.970              -1.41E-06
              58        2.000     -0.29289041673527E+00        -7.970               1.91E-06
              59        2.000     -0.27111324262519E+00        -7.377               3.61E-07
              60        0.000     -0.18199139602964E+00        -4.952
              61        0.000     -0.14065380110277E+00        -3.827
              62        0.000     -0.30785805677368E-02        -0.084
              63        0.000     -0.30785328031768E-02        -0.084
              64        0.000      0.14213281150716E-01         0.387
              65        0.000      0.29186466181796E-01         0.794
              66        0.000      0.39411889396234E-01         1.072
              67        0.000      0.39411960566738E-01         1.072
              68        0.000      0.12157793632357E+00         3.308
              69        0.000      0.12436598397440E+00         3.384
  
 HOMO :       59 A                -0.27111324262519E+00
 LUMO :       60 A                -0.18199139602964E+00
  


 All Electron Calculation, thus no Orbital Energies of the Core Orbitals are calculated


 Fit test: (difference of exact and fit density, squared integrated, result summed over spins)
         Sum-of-Fragments:                             0.00000004150749
         Orthogonalized Fragments:                     0.00000094842208
         SCF:                                          0.00000114645392



 ==========================
 Electron Density at Nuclei
 ==========================
  
 The electron density is calculated at points on a small sphere around the center of a nucleus.
 The printed electron density is the average electron density on these points.
 The radius of the sphere is the printed approximate finite nuclear radius.
 Note: ZORA-4 density is used, which includes small component density

         Atom        Nuclear Radius (Angstrom)             Electron Density (a.u.)
         ----        -------------------------             -----------------------
     1)   Sn                0.0000605929                           149559.31079
     2)   Cl                0.0000426624                             3310.42251
     3)   Cl                0.0000426624                             3310.42251
     4)   Cl                0.0000426624                             3310.42251
     5)   Cl                0.0000426624                             3310.42251



 =======================================
 M U L L I K E N   P O P U L A T I O N S
 =======================================
  
 The survey below gives for each atom:
 a) the total charge (Z minus electrons)
 b) the net spin polarization (nr of electrons spin-A minus spin-B)
 c) for each spin the atomic electron valence density (integrated) per L-value.

 Atom              Charge    Spin density          S         P         D         F
 ----              ------    ------------       ------    ------    ------    ------
 1 Sn              0.8942                       9.2221   19.3829   20.4031    0.0976
 2 Cl             -0.2235                       5.9495   11.2426    0.0257    0.0057
 3 Cl             -0.2236                       5.9495   11.2426    0.0257    0.0057
 4 Cl             -0.2235                       5.9495   11.2426    0.0257    0.0057
 5 Cl             -0.2236                       5.9495   11.2426    0.0257    0.0057

 Populations of individual BAS functions
 ----------------------------------------
 1 Sn           0.0067  0.1888  1.8697 -0.1593  2.0896  1.8023 -0.4625  1.7834  0.8935  0.5281
                0.7000 -0.0181  0.0053  0.0053  0.0053  0.4360  0.4359  0.4359  1.5411  1.5412
                1.5412  1.2825  1.2835  1.2835  0.7242  0.7226  0.7226  1.3002  1.3138  1.3138
                0.7189  0.7110  0.7110  0.1785  0.3543  0.3543  0.1690  0.1370  0.1370  0.0012
                0.0085  0.0085  0.1512  0.2271  0.2271  0.1516  0.2273  0.1516  0.8086  1.2146
                1.2146  0.8105  1.2149  0.8105  0.3950  0.5908  0.5908  0.3931  0.5900  0.3931
                0.5492  0.8305  0.8305  0.5606  0.8395  0.5606  0.6676  0.9643  0.9643  0.6249
                0.9555  0.6249  0.0969  0.1861  0.1861  0.1584  0.2080  0.1584  0.0096  0.0567
                0.0567  0.0311  0.0893  0.0311 -0.0149 -0.0129 -0.0129  0.0191  0.0048  0.0191
                0.0310  0.0167  0.0167  0.0310
 2 Cl           0.5861  1.3687  1.7629  0.2210  0.7365  0.7378  0.7312  1.2668  1.2654  1.2738
                0.5229  1.2086  0.2793  0.2454  0.2568  0.1903  1.1955  1.2422  1.0393  0.4176
                0.3982  0.2458 -0.0052  0.0005  0.0047 -0.0081  0.0068  0.0271 -0.0088 -0.0016
               -0.0060 -0.0048  0.0003  0.0148 -0.0111 -0.0089  0.0145  0.0173
 3 Cl           0.5861  1.3687  1.7629  0.2210  0.7365  0.7312  0.7378  1.2668  1.2738  1.2654
                0.5229  1.2086  0.2793  0.2454  0.1903  0.2568  1.1955  1.0393  1.2422  0.4176
                0.2458  0.3982 -0.0052  0.0047  0.0005  0.0271  0.0068 -0.0081 -0.0088 -0.0060
               -0.0016  0.0148  0.0003 -0.0048  0.0173  0.0145 -0.0089 -0.0111
 4 Cl           0.5861  1.3687  1.7629  0.2210  0.7365  0.7378  0.7312  1.2668  1.2654  1.2738
                0.5229  1.2086  0.2793  0.2454  0.2568  0.1903  1.1955  1.2422  1.0393  0.4176
                0.3982  0.2458 -0.0052  0.0005  0.0047 -0.0081  0.0068  0.0271 -0.0088 -0.0016
               -0.0060 -0.0048  0.0003  0.0148 -0.0111 -0.0089  0.0145  0.0173
 5 Cl           0.5861  1.3687  1.7629  0.2210  0.7365  0.7312  0.7378  1.2668  1.2738  1.2654
                0.5229  1.2086  0.2793  0.2454  0.1903  0.2568  1.1955  1.0393  1.2422  0.4176
                0.2458  0.3982 -0.0052  0.0047  0.0005  0.0271  0.0068 -0.0081 -0.0088 -0.0060
               -0.0016  0.0148  0.0003 -0.0048  0.0173  0.0145 -0.0089 -0.0111

 Gross Charges per Atom (Z minus electrons)
 ==========================================
             0.8942   -0.2235   -0.2236   -0.2235   -0.2236
 Net Total: -0.00000000


 Atom-Atom Population Matrix (off-diagonal elements not doubled)
 ===============================================================

     1 :    47.7805
     2 :     0.3313   16.9961
     3 :     0.3313   -0.0529   16.9961
     4 :     0.3313    0.0019   -0.0529   16.9961
     5 :     0.3313   -0.0529    0.0019   -0.0529   16.9961



 =================================================
 H I R S H F E L D   C H A R G E   A N A L Y S I S
 =================================================
  
 For each fragment: the (numerical) integral of rho(scf) * rho(fragment)/rho(sum-of-fragments)
 (nuclear charges are included, electrons are counted negative)

 The fragments and their ordering are defined in the early G E O M E T R Y output section.
 If you use single-atom fragments, this usually implies that all atoms of the same
 chemical type are grouped together. This may not be the order in which you listed them
 in the input file!

    1  Sn                        0.6346
    2  Cl                       -0.1587
    3  Cl                       -0.1587
    4  Cl                       -0.1587
    5  Cl                       -0.1587

 Sum of these charges (accuracy NumInt/Tails) =          -0.00000447



 =============================
 V O R O N O I   C H A R G E S
 =============================
  
 For each atom: the (numerical) integral of the total electronic charge density in its Voronoi cell,
 i.e. the region of space that is closer to that atom than to any other atom.
 (cf. Wigner-Seitz cells in crystals)

 Within the Voronoi cell the subintegrals over the atomic sphere and the remaining part are evaluated
 separately to give the numbers of electrons (negative charge) in these regions.
 The net total charge in the cell (including the nuclear charge) is also given.

 Values are provided for
    a) the Initial (sum-of-fragments) density
    b) the Orthogonalized-Fragments density
    c) the SCF density
    d) the Voronoi Deformation Density (VDD): the difference SCF-Initial for the complete atomic cell


  Atom                Initial                    OrthFrag                   SCF
             Sphere RestCell NetTotal   Sphere RestCell NetTotal   Sphere RestCell NetTotal      VDD
 -----       ------------------------   ------------------------   ------------------------    -----
    1 Sn    -42.488   -6.611    0.902  -42.547   -6.667    0.785  -42.502   -5.921    1.576    0.675
    2 Cl    -11.302   -5.923   -0.225  -11.387   -5.809   -0.196  -11.305   -6.089   -0.394   -0.169
    3 Cl    -11.302   -5.923   -0.225  -11.387   -5.809   -0.196  -11.305   -6.089   -0.394   -0.169
    4 Cl    -11.302   -5.923   -0.225  -11.387   -5.809   -0.196  -11.305   -6.089   -0.394   -0.169
    5 Cl    -11.302   -5.923   -0.225  -11.387   -5.809   -0.196  -11.305   -6.089   -0.394   -0.169
 ---------------------------------------------------------------------------------------------------
 Total NetCharge:              -0.000                     -0.000                     -0.000    0.000
 (accuracy NumInt/Tails)

 Remark: the 'NetTotal' Voronoi charges often do not match the Mulliken and/or Hirshfeld charges very
 well. This is caused by the fact that chemically different atoms are not treated in accordance with
 their relative sizes. (Voronoi cells are defined by boundary planes halfway between the atoms.)
 However, the CHANGES in charge, comparing 'Initial' to 'SCF' for instance, do give a fair indication
 of the flow of charge caused by the relaxation from sum-of-fragments to self-consistency.

 Warning: the absolute accuracy of the VDD charges obtained using the Fuzzy Cells (Becke) integration
 scheme is much poorer than the one obtained with an 'equivalent' Voronoi integration grid. 



 =================================================================
 M U L T I P O L E   D E R I V E D   C H A R G E   A N A L Y S I S
 =================================================================

 This charge analysis uses the atomic multipoles (obtained from the fitted density) up to some level X,
 and reconstructs these multipoles exactly (up to level X) by distributing charges over all atoms.
 This is achieved by using Lagrange multipliers and a weight function to keep the multipoles local.

 Dummy atoms can be included (by setting INCDUM in MDC-block to 1) to obtain a fractional charge.
 This is generally useful and necessary only for small symmetrical molecules, when there are not
 enough degrees of freedom to reconstruct the multipoles.

 Since the atomic multipoles are reconstructed up to level X,
 the molecular multipoles are represented also up to level X.
 The recommended level is to reconstruct up to quadrupole : -> MDC-q charges.

 See: M. Swart, P.Th. van Duijnen, J.G. Snijders, J.Comput.Chem., (2001), p. 79-88.

 ------------------------------------------------------------- 
 Atomic electronic multipole moments from SCF equations (a.u.)
 ------------------------------------------------------------- 

   atom        charge        dip-x     dip-y     dip-z      quad-xx   quad-xy   quad-xz   quad-yy   quad-yz   quad-zz
 --------------------------------------------------------------------------------------------------------------------
    1 Sn     1.506271     0.000000  0.000000  0.000000    -0.341231 -0.000000  0.000000  0.170617  0.000000  0.170615
    2 Cl    -0.376567     0.000000  0.074803 -0.279248    -0.549741  0.000000 -0.000000 -0.192506 -0.179926  0.742247
    3 Cl    -0.376569     0.000000 -0.279247 -0.074803    -0.549739 -0.000000 -0.000000  0.742245  0.179925 -0.192506
    4 Cl    -0.376567     0.000000 -0.074803  0.279248    -0.549741 -0.000000  0.000000 -0.192506 -0.179926  0.742247
    5 Cl    -0.376569     0.000000  0.279247  0.074803    -0.549739  0.000000  0.000000  0.742245  0.179925 -0.192506

 --------------------------------------- 
 Multipole derived atomic charges (a.u.)
 --------------------------------------- 

 The MDC-m charges are just the Monopole terms in the multipole expansion, while for the MDC-d charges
 also the Dipoles are reconstructed. The usually preferred charges are the MDC-q charges.
 These reconstruct the Monopoles, Dipoles and Quadrupoles (both atomic AND molecular).

        Atom    Level:     MDC-m        MDC-d        MDC-q
 ---------------------------------------------------------
     1     Sn           1.506271     1.106915     0.734209
     2     Cl          -0.376567    -0.276728    -0.183551
     3     Cl          -0.376569    -0.276730    -0.183553
     4     Cl          -0.376567    -0.276728    -0.183551
     5     Cl          -0.376569    -0.276730    -0.183553

 ------------------------------------------------ 
 Average absolute deviations in atomic multipoles
 ------------------------------------------------ 

 Stated here are the average differences between the atomic multipoles
 and the reconstructed atomic multipoles (from the distributed charges).
 If these values are not zero, this means there are not enough degrees of freedom,
 to be able to reconstruct the atomic multipoles. (This usually happens only
 for small and/or highly symmetric molecules). If this is the case, one could add
 dummy atoms as extra point charges (and setting INCDUM in MDC-block to 1).

 Level:                                 MDC-d        MDC-q
 ---------------------------------------------------------
 Charge   (a.u.)                       0.0000       0.0000
 Dipole   (Debye)                      0.0000       0.0192
 Quad.    (a.u.)                       0.6948       0.0003

 --------------------------------------- 
 Represented molecular multipole moments
 --------------------------------------- 

 Given here are the Molecular multipole moments from the atomic charges, and from the Fit Density.
 Note that the atomic charges represent the latter, NOT the ones from the Exact density.

            Q (a.u.)             Dipole moment (Debye)                                          Quadrupole moment (a.u.)
                                 x         y         z              xx        xy        xz        yy        yz        zz
------------------------------------------------------------------------------------------------------------------------
MDC-m         0.0000       -0.0000   -0.0000   -0.0000         15.0364   -0.0000   -0.0000   -7.5182   -0.0000   -7.5181
MDC-d         0.0000       -0.0000   -0.0000   -0.0000         11.0498   -0.0000   -0.0000   -5.5250   -0.0000   -5.5249
MDC-q         0.0000       -0.0000   -0.0000   -0.0000          7.3293   -0.0000   -0.0000   -3.6647   -0.0000   -3.6646
 
Fit.Dens.     0.0000       -0.0000   -0.0000   -0.0000          7.3293   -0.0000   -0.0000   -3.6647   -0.0000   -3.6646



 =============
 Dipole Moment  ***  (Debye)  ***
 =============
  
 Vector   :        -0.00000030     -0.00000002     -0.00000004
 Magnitude:         0.00000030

 This molecular dipole moment is calculated with analytic integration



 =========================================
 Quadrupole Moment (Buckingham convention)  ***  (a.u.)  ***
 =========================================
  
      quad-xx        quad-xy        quad-xz        quad-yy        quad-yz        quad-zz
      7.32936025    -0.00000004    -0.00000008    -3.66473822    -0.00003359    -3.66462203

 This molecular quadrupole moment is calculated with analytic integration
1



 ===========================
 B O N D I N G   E N E R G Y  ***  (decomposition)  ***
 ===========================
  
*** IMPORTANT NOTE ***

The bond energy is computed as an energy difference between molecule and
fragments. In particular when the fragments are single atoms, they are usually
computed as SPHERICALLY SYMMETRIC and SPIN-RESTRICTED. Obviously, this usually
does NOT represent the true atomic groundstate.

To obtain the 'real' bond energy, (atomic) correction terms must be applied
for the true (multiplet) fragment ground state. See ref: E.J.Baerends,
V.Branchadell, M.Sodupe, Chem.Phys.Lett.265 (1997) 481

General theoretical background on the bond energy decomposition scheme used
here (Morokuma-Ziegler) can be found in the review paper:
F.M. Bickelhaupt and E.J. Baerends,
"Kohn-Sham Density Functional Theory: Predicting and Understanding Chemistry"
In: Rev. Comput. Chem.; Lipkowitz, K. B. and Boyd, D. B., Eds.;
Wiley-VCH: New York, 2000, Vol. 15, 1-86.

Symbols used in the Bickelhaupt-Baerends (BB) paper are given below to make
the direct connection to that paper, where detailed explanations can be found
on the meaning of the various terms.


                                                   hartree              eV         kcal/mol           kJ/mol
                                      --------------------     -----------       ----------      -----------

Pauli Repulsion
  Kinetic (Delta T^0):                   8.645497974242350        235.2560          5425.13         22698.75
  Delta V^Pauli Coulomb:                -6.171622265491156       -167.9384         -3872.75        -16203.59
  Delta V^Pauli LDA-XC:                 -0.868366923171688        -23.6295          -544.91         -2279.90
  Delta V^Pauli GGA-Exchange:            0.111988406355003          3.0474            70.27           294.03
  Delta V^Pauli GGA-Correlation:        -0.074730908902710         -2.0335           -46.89          -196.21
                                      --------------------     -----------       ----------      -----------
  Total Pauli Repulsion:                 1.642766283031799         44.7019          1030.85          4313.08
 (Total Pauli Repulsion =
  Delta E^Pauli in BB paper)

Steric Interaction
  Pauli Repulsion (Delta E^Pauli):       1.642766283031799         44.7019          1030.85          4313.08
  Electrostatic Interaction:            -0.545951933329652        -14.8561          -342.59         -1433.40
 (Electrostatic Interaction =
  Delta V_elstat in the BB paper)
                                      --------------------     -----------       ----------      -----------
  Total Steric Interaction:              1.096814349702147         29.8458           688.26          2879.69
 (Total Steric Interaction =
  Delta E^0 in the BB paper)

Orbital Interactions
  A:                                    -1.585375882918832        -43.1403          -994.84         -4162.40
                                      --------------------     -----------       ----------      -----------
  Total Orbital Interactions:           -1.585375882918832        -43.1403          -994.84         -4162.40

Alternative Decomposition Orb.Int.
  Kinetic:                              -8.222784630823689       -223.7534         -5159.88        -21588.92
[...]
*** NO HESSIAN EXISTS ON RESTART FILE ***
*** HESSIAN FROM RESTART FILE IS NOT COMPLETE ***
*** FURTHER CALCULATIONS WILL BE DONE         ***
-----------------------------------------------
                  ------------------------------------------------
                  
                  This Analytical Second Derivatives Progam    
                            was written for ADF by             
                  
                                Stephen K. Wolff               
                  
                         Scientific Computing & Modelling      
                  
                                Vrije University
                              Theoretical Chemistry
                                De Boelelaan 1083
                                1081 HV Amsterdam
                                 The Netherlands
                  
                  ------------------------------------------------
                  
                                    References:                
                                    ===========                
                  
                   Attila Berces, Ross M. Dickson, Liangyou Fan
                   Heiko Jacobsen, David Swerhone, Tom Ziegler,
                   Computer Physics Communications 100 (1997) 247.
                  
                   Heiko Jacobsen, Attila Berces
                   David Swerhone, Tom Ziegler,
                   Computer Physics Communications 100 (1997) 263.
                  
                   Stephen K. Wolff
                   Int. J. Quantum Chem. 104 (2005) 645.
                  
                  ------------------------------------------------
                  
              <><><><><><><><><><><><><><><><><><><><><><><><><>
 
                 SECOND DERIVATIVES INFORMATION:
                 -------------------------------
 
                 === PRINT
 
                   EIGS,  lprint_eigbas =  F
                   U1,    lprint_u1     =  F
                   PARTS, lprint_parts  =  F
 
                 === DEBUG
 
                   ALL        =  F
                   B1         =  F
                   DENSITIES  =  F
                   FIT        =  F
                   HESSIAN    =  F
                   NUMBERS    =  F
                   SYMMETRY   =  F
                   U1         =  F
 
                 === CPKS
 
                   MAX_CPKS_ITERATIONS    =    20
                   U1_ACCURACY PARAMETER  =     5.00
                   U1 ACCURACY            =     0.0000100
 

                 Estimated peak private memory usage    106 MB per process
                                 shared memory usage    247 MB per node

              <><><><><><><><><><><><><><><><><><><><><><><><><>

######## LOOPING OVER NUCLEI ########

==========================
###### NUCLEUS:     1  Sn 
==========================

====================  solving CPKS equations  ====================

NUCLEUS  COORD.    ITERATION   ACCURACY
-------  ------    ---------   --------
    1       1          1       0.21075365D-01
    1       1          2       0.16776235D-02
    1       1          3       0.16082970D-03
    1       1          4       0.19475488D-04
    1       1          5       0.32110473D-05
*** CPKS converged.
----------------------------------------------
    1       2          1       0.51795423D-01
    1       2          2       0.56431996D-02
    1       2          3       0.14977434D-02
    1       2          4       0.29789827D-03
    1       2          5       0.31849236D-04
    1       2          6       0.45504503D-05
*** CPKS converged.
----------------------------------------------
    1       3          1       0.51795683D-01
    1       3          2       0.56432288D-02
    1       3          3       0.14977391D-02
    1       3          4       0.29790526D-03
    1       3          5       0.31850061D-04
    1       3          6       0.45503040D-05
*** CPKS converged.
----------------------------------------------

====================  end of solving CPKS equations  ====================

==========================
###### NUCLEUS:     2  Cl 
==========================

====================  solving CPKS equations  ====================

NUCLEUS  COORD.    ITERATION   ACCURACY
-------  ------    ---------   --------
    2       1          1       0.46082691D-02
    2       1          2       0.72634583D-03
    2       1          3       0.12898696D-03
    2       1          4       0.15011371D-04
    2       1          5       0.47264558D-05
*** CPKS converged.
----------------------------------------------
    2       2          1       0.12910197D-01
    2       2          2       0.12619373D-02
    2       2          3       0.63600650D-03
    2       2          4       0.12134156D-03
    2       2          5       0.15471299D-04
    2       2          6       0.62462956D-05
*** CPKS converged.
----------------------------------------------
    2       3          1       0.20975570D-01
    2       3          2       0.26200271D-02
    2       3          3       0.11897310D-02
    2       3          4       0.33465251D-03
    2       3          5       0.41797967D-04
    2       3          6       0.10032884D-04
    2       3          7       0.15217516D-05
*** CPKS converged.
----------------------------------------------

====================  end of solving CPKS equations  ====================

==========================
###### NUCLEUS:     3  Cl 
==========================

====================  solving CPKS equations  ====================

NUCLEUS  COORD.    ITERATION   ACCURACY
-------  ------    ---------   --------
    3       1          1       0.46082964D-02
    3       1          2       0.72634391D-03
    3       1          3       0.12898763D-03
    3       1          4       0.15011363D-04
    3       1          5       0.47264549D-05
*** CPKS converged.
----------------------------------------------
    3       2          1       0.20975574D-01
    3       2          2       0.26200513D-02
    3       2          3       0.11897317D-02
    3       2          4       0.33465126D-03
    3       2          5       0.41797846D-04
    3       2          6       0.10033004D-04
    3       2          7       0.15217779D-05
*** CPKS converged.
----------------------------------------------
    3       3          1       0.12910226D-01
    3       3          2       0.12619296D-02
    3       3          3       0.63600488D-03
    3       3          4       0.12134186D-03
    3       3          5       0.15471360D-04
    3       3          6       0.62462073D-05
*** CPKS converged.
----------------------------------------------

====================  end of solving CPKS equations  ====================

==========================
###### NUCLEUS:     4  Cl 
==========================

====================  solving CPKS equations  ====================

NUCLEUS  COORD.    ITERATION   ACCURACY
-------  ------    ---------   --------
    4       1          1       0.46082703D-02
    4       1          2       0.72634563D-03
    4       1          3       0.12898694D-03
    4       1          4       0.15011373D-04
    4       1          5       0.47264494D-05
*** CPKS converged.
----------------------------------------------
    4       2          1       0.12910200D-01
    4       2          2       0.12619369D-02
    4       2          3       0.63600604D-03
    4       2          4       0.12134149D-03
    4       2          5       0.15471293D-04
    4       2          6       0.62462877D-05
*** CPKS converged.
----------------------------------------------
    4       3          1       0.20975567D-01
    4       3          2       0.26200264D-02
    4       3          3       0.11897308D-02
    4       3          4       0.33465254D-03
    4       3          5       0.41797970D-04
    4       3          6       0.10032875D-04
    4       3          7       0.15217571D-05
*** CPKS converged.
----------------------------------------------

====================  end of solving CPKS equations  ====================

==========================
###### NUCLEUS:     5  Cl 
==========================

====================  solving CPKS equations  ====================

NUCLEUS  COORD.    ITERATION   ACCURACY
-------  ------    ---------   --------
    5       1          1       0.46082977D-02
    5       1          2       0.72634471D-03
    5       1          3       0.12898771D-03
    5       1          4       0.15011360D-04
    5       1          5       0.47264527D-05
*** CPKS converged.
----------------------------------------------
    5       2          1       0.20975580D-01
    5       2          2       0.26200507D-02
    5       2          3       0.11897315D-02
    5       2          4       0.33465117D-03
    5       2          5       0.41797824D-04
    5       2          6       0.10032991D-04
    5       2          7       0.15217802D-05
*** CPKS converged.
----------------------------------------------
    5       3          1       0.12910224D-01
    5       3          2       0.12619295D-02
    5       3          3       0.63600479D-03
    5       3          4       0.12134186D-03
    5       3          5       0.15471350D-04
    5       3          6       0.62462139D-05
*** CPKS converged.
----------------------------------------------

====================  end of solving CPKS equations  ====================


====================================================================
*** DONE CALCULATING ANALYTICAL SECOND DERIVATIVES OF THE ENERGY ***
====================================================================

 Mulliken charges used for AMS results%charges...
Scanning modes in range provided by user.
Scanning Mode: 7
 *** SCANMODE_forward_adf_ScanMode_7 ***

 Energy gradients wrt nuclear displacements
 ==========================================

     Atom      Cartesian (a.u./angstrom)
                 X         Y         Z
 ----------------------------------------
     1 Sn   -0.000000 -0.000000 -0.000000
     2 Cl   -0.000009 -0.000027  0.000005
     3 Cl    0.000009  0.000005  0.000027
     4 Cl   -0.000009  0.000027 -0.000005
     5 Cl    0.000009 -0.000005 -0.000027
 ----------------------------------------
 Mulliken charges used for AMS results%charges...
Old/New Frequency [cm-1]:   -84.939553/  -84.661768



    =====================
     CALCULATION RESULTS
    =====================

Energy (hartree)            -0.48856145

Gradients (hartree/bohr)
  Index   Atom            d/dx            d/dy            d/dz
      1     Sn   -0.0000000053    0.0000000002    0.0000000007
      2     Cl    0.0000000013   -0.0000141472    0.0000028277
      3     Cl    0.0000000013    0.0000030034    0.0000141885
      4     Cl    0.0000000013    0.0000141406   -0.0000028246
      5     Cl    0.0000000013   -0.0000029970   -0.0000141922

 -----------------------
 Normal Mode Frequencies
 -----------------------

 Index   Frequency (cm-1)   Intensity (km/mol)
     7           -84.6618               0.0000
     8           122.3434               9.7375
     9           154.5931              11.7125
    10           154.6512              11.7121
    11           176.9290               0.0000
    12           273.7807               0.0000
    13           317.5604               0.0000
    14           358.5741              88.8077
    15           358.6003              88.8098

 Zero-point energy (Hartree):     0.0044

 ------------
 Normal Modes
 ------------

 Number of removed rigid normal modes: 6
 
 Mode:     7      Frequency (cm-1):      -84.6618     Intensity (km/mol):        0.0000
 Index  Atom      ---- Displacements (x/y/z) ----
     1    Sn       0.000000  -0.000000  -0.000000
     2    Cl       0.500000  -0.000000   0.000000
     3    Cl      -0.500000  -0.000000  -0.000000
     4    Cl       0.500000   0.000000  -0.000000
     5    Cl      -0.500000   0.000000   0.000000
 
 Mode:     8      Frequency (cm-1):      122.3434     Intensity (km/mol):        9.7375
 Index  Atom      ---- Displacements (x/y/z) ----
     1    Sn      -0.503843  -0.000000   0.000000
     2    Cl       0.431898  -0.000000   0.000000
     3    Cl       0.431898   0.000000   0.000000
     4    Cl       0.431898   0.000000  -0.000000
     5    Cl       0.431898  -0.000000  -0.000000
 
 Mode:     9      Frequency (cm-1):      154.5931     Intensity (km/mol):       11.7125
 Index  Atom      ---- Displacements (x/y/z) ----
     1    Sn      -0.000000  -0.119460  -0.230969
     2    Cl      -0.000000   0.462955  -0.033098
     3    Cl      -0.000000  -0.258163   0.429054
     4    Cl       0.000000   0.462990  -0.033091
     5    Cl       0.000000  -0.258172   0.429088
 
 Mode:    10      Frequency (cm-1):      154.6512     Intensity (km/mol):       11.7121
 Index  Atom      ---- Displacements (x/y/z) ----
     1    Sn       0.000000  -0.230982   0.119430
     2    Cl       0.000000   0.428998   0.258194
     3    Cl      -0.000000  -0.033051  -0.463026
     4    Cl      -0.000000   0.429114   0.258229
     5    Cl       0.000000  -0.033064  -0.462904
 
 Mode:    11      Frequency (cm-1):      176.9290     Intensity (km/mol):        0.0000
 Index  Atom      ---- Displacements (x/y/z) ----
     1    Sn       0.000000   0.000030  -0.000005
     2    Cl      -0.000000  -0.483040  -0.129366
     3    Cl       0.000000   0.129464  -0.482916
     4    Cl      -0.000000   0.482922   0.129317
     5    Cl       0.000000  -0.129448   0.482984
 
 Mode:    12      Frequency (cm-1):      273.7807     Intensity (km/mol):        0.0000
 Index  Atom      ---- Displacements (x/y/z) ----
     1    Sn      -0.000000  -0.000003   0.000000
     2    Cl       0.000000   0.129425  -0.483050
     3    Cl      -0.000000   0.482883   0.129374
     4    Cl       0.000000  -0.129419   0.483053
     5    Cl      -0.000000  -0.482878  -0.129378
 
 Mode:    13      Frequency (cm-1):      317.5604     Intensity (km/mol):        0.0000
 Index  Atom      ---- Displacements (x/y/z) ----
     1    Sn       0.000000  -0.000008   0.000004
     2    Cl      -0.000000  -0.129324   0.482888
     3    Cl      -0.000000   0.483041   0.129488
     4    Cl      -0.000000   0.129334  -0.482898
     5    Cl      -0.000000  -0.483025  -0.129492
 
 Mode:    14      Frequency (cm-1):      358.5741     Intensity (km/mol):       88.8077
 Index  Atom      ---- Displacements (x/y/z) ----
     1    Sn      -0.000000   0.209607   0.293810
     2    Cl       0.000000   0.137826  -0.396470
     3    Cl       0.000000  -0.497173  -0.107239
     4    Cl      -0.000000   0.137822  -0.396471
     5    Cl      -0.000000  -0.497181  -0.107245
 
 Mode:    15      Frequency (cm-1):      358.6003     Intensity (km/mol):       88.8098
 Index  Atom      ---- Displacements (x/y/z) ----
     1    Sn       0.000000  -0.293805   0.209634
     2    Cl       0.000000   0.107204  -0.497182
     3    Cl      -0.000000   0.396487   0.137766
     4    Cl      -0.000000   0.107206  -0.497162
     5    Cl       0.000000   0.396511   0.137779

PES point character: Geometry corresponds to a transition state.
                     (Hint: Very small negative frequencies do not count towards being a
                     transition state, as they usually indicate noise on a very flat PES. See
                     the PESPointCharacter%NegativeFrequenciesTolerance keyword documentation.)




 ============================
 Statistical Thermal Analysis  ***  ideal gas assumed  ***
 ============================
  
 Pressure:                  1.000000 atm.
 Temperature:             298.150000 K



 Moments of Inertia [amu*bohr^2] and principal axis
 ==================================================

        1396.3107       1396.3107       2792.6215
 ------------------------------------------------
           0.0000         -0.0000         -1.0000
           0.0000          1.0000         -0.0000
           1.0000          0.0000          0.0000


 The rotational contribution to the molecular entropy includes
 a term, dependent on the symmetry number sigma. The results 
 reported below were computed using sigma = 4, determined from
 the point group symmetry of the input geometry (C(4V)). 
 If this is not the correct symmetry, try symmetrizing the molecule before
 running the calculation (note: linear molecules should be aligned along one
 of the Cartesian axes).
 Contributions from frequencies below 20 1/cm are not included in vibrational sums.
 Their contributions, if any, are reported separately.


     Temp                                                        Transl      Rotat     Vibrat     Total
     ----                                                        ------      -----     ------     -----

     298.15   Entropy (cal/mol-K):                               42.564     27.323     15.804     85.690
              Nuclear Internal Energy (kcal/mol):                 0.889      0.889      5.324      7.102
              Constant Volume Heat Capacity (cal/mol-K):          2.981      2.981     14.073     20.035
          (c) Constant Volume Heat Capacity (cal/mol-K):          2.981      2.981     13.408     19.370

       Summary of energy terms
                                                   hartree              eV         kcal/mol           kJ/mol
                                      --------------------     -----------       ----------      -----------
      Energy from Engine:               -0.488561445248427        -13.2944          -306.58         -1282.72
      Nuclear Internal Energy:           0.011317477062029          0.3080             7.10            29.71
  (c) Nuclear Internal Energy:           0.010935596764633          0.2976             6.86            28.71
      Internal Energy U:                -0.477243968186398        -12.9865          -299.48         -1253.00
      pV/n = RT:                         0.000944186013486          0.0257             0.59             2.48
      Enthalpy H:                       -0.476299782172912        -12.9608          -298.88         -1250.52
      -T*S:                             -0.040714240957615         -1.1079           -25.55          -106.90
  (c) -T*S:                             -0.040630582420112         -1.1056           -25.50          -106.68
      Gibbs free energy:                -0.517014023130527        -14.0687          -324.43         -1357.42
 
 
 
  (c) The properties marked with this symbol have been corrected using 'low vibrational frequency free rotor
      interpolation corrections'. For those terms all positive frequencies are used (also ones below 20 1/cm),
      but the contribution to the partition function of small vibrational frequencies is modified as described
      in the following paper:
      S. Grimme, 'Supramolecular Binding Thermodynamics by Dispersion-Corrected Density Functional Theory'
      (Chem. Eur. J. 2012, 18, 9955-9964)
      Configuration: Dampener Frequency          :   100.000 1/cm
                     Dampener Alpha              :     4.000
                     Averaging Moment of Inertia : 1.000E-44 kg m2

--------------
Atomic charges
--------------
  Index   Atom    Charge
      1     Sn    0.8942
      2     Cl   -0.2235
      3     Cl   -0.2236
      4     Cl   -0.2235
      5     Cl   -0.2236


Dipole moment vector    (Debye):    -0.00000030   -0.00000002   -0.00000004
              magnitude (Debye):     0.00000030


ERROR: Geometry optimization failed! (Converged, but did not find a minimum on the PES.)


AMS application finished. Exiting.
NORMAL TERMINATION
     Total cpu time:     714.70
  Total system time:      10.85
 Total elapsed time:    1458.60
 WARNING: total elapsed time is much higher than the (CPU+system) time. 
 Make sure the machine is not oversubscribed and has enough memory, SCM_TMPDIR p
 oints to a fast file system, and the network is fast enough.
