

 Parallel Execution: Process Information
 ==============================================================================
 Rank   Node Name                              NodeID   MyNodeRank  NodeMaster
    0   node117                                   0          0          0
    1   node117                                   0          1         -1
    2   node117                                   0          2         -1
    3   node117                                   0          3         -1
 ==============================================================================


May use up to 122928MB of RAM as shared memory on node 0

 *******************************************************************************
 *                                                                             *
 *  --------------------------------                                           *
 *   Amsterdam Modeling Suite (AMS)              2021.102                      *
 *  --------------------------------                                           *
 *                                               r95042 2021-06-07             *
 *                                                                             *
 *                                                                             *
 *                              =================                              *
 *                              |               |                              *
 *                              |     A M S     |                              *
 *                              |               |                              *
 *                              =================                              *
 *                                                                             *
 *                                                                             *
 *   Online information and documentation:  https://www.scm.com/support/       *
 *   E-mail:  support@scm.com   info@scm.com                                   *
 *                                                                             *
 *   Scientific publications using AMS results must be properly referenced     *
 *   See the User Manuals (or the web site) for recommended citations          *
 *   The terms and conditions of the End User License Agreement apply to       *
 *   the use of AMS, https://www.scm.com/license-terms/                        *
 *                                                                             *
 **********************  x86_64_linux_intel / intelmpi  ************************
 
 Licensed to: VU/FEW (+ SARA) / ALGEMEEN / Amsterdam / THE NETHERLANDS
 SCM User ID: u7668
  
 AMS 2021.102  RunTime: Jan31-2022 19:30:21  ShM Nodes: 1  Procs: 4

 AMS jobname: 16.achiral_catalyst.H_Ph_TiCl4.P2
 AMS jobid  : 1744955546

 Start   directory: /scistor/tc/yhk800/MasterProject/calculations/achiral_catalyst_H_Ph_TiCl4/16.achiral_catalyst.H_Ph_TiCl4.P2/
 Results directory: /scistor/tc/yhk800/MasterProject/calculations/achiral_catalyst_H_Ph_TiCl4/16.achiral_catalyst.H_Ph_TiCl4.P2/
 Scratch directory: /scratch/5296/amstmp_16.achiral_catalyst.H_Ph_TiCl4.P2_kid0.1744955546/


 Communication costs MPI_COMM_WORLD:      1.888 usec per message,   0.0127 usec per 8-byte item
 Communication costs for intra-node:      1.338 usec per message,   0.0161 usec per 8-byte item

 RNG seed: -1230369952 -999507680 155813153 1568798140 -439884963 582525627 -1385032943 -172911174



                      ************************************************************************
                      *  ADF 2021.102  RunTime: Jan31-2022 19:30:22  ShM Nodes: 1  Procs: 4  *
                      ************************************************************************
  
       ***************************
       *  GEOMETRY OPTIMIZATION  *
       ***************************

Optimization Method                    Quasi Newton
Optimization Coordinates               Delocalized Coordinates
Optimize lattice                       F
 
 ------------------------------------------------------
 Convergence criteria (Hartree,Angstrom)
 ------------------------------------------------------
 Maximum gradient               0.001000000000
 Maximum rms gradient           0.000666666667
 Maximum step allowed           0.010000000000
 Maximum rms step allowed       0.006666666667
 Maximum energy change allowe   0.000280000000
 Maximum stress energy allowe   0.000500000000
 
Initial model Hessian                  Automatic Hessian
 
------------------------------------
Quasi-Newton Optimizer Parameters
------------------------------------
Hessian Update Method                  BFGS
Maximum number of steps                  250
First GDIIS cycle                          0
Maximum GDIIS vectors                      0
Trust radius (bohr)                        0.200000
Trust radius varies                        T
Constraints converged at all steps         T
Use projector                              T
 
 Rigid motions settings for: old optimizer
 Atomic rotations (x,y,z):     T T T
 Atomic translations (x,y,z):  T T T
 Tolerance:                   1.000000000000000E-006
 
--------
Geometry
--------
Formula: C10H12Cl4OTi
Atoms
  Index Symbol   x (angstrom)   y (angstrom)   z (angstrom)
      1      H     0.83345051    -1.35209109     1.20167740
      2      C    -0.83092072     0.03538951     0.93442801
      3      C     0.35139657    -0.78131674     0.40158875
      4      C     1.39689343     0.07225735    -0.26739819
      5      O     2.40703452    -0.34587328    -0.75774611
      6      H    -1.19392452     0.69150371     0.13740680
      7      H     0.00939092    -1.50634328    -0.34451216
      8      H    -0.05768346     0.24518214     2.94899716
      9      C    -0.44138171     0.87842746     2.14736270
     10      H     0.32560687     1.60312788     1.87585802
     11      H    -1.31355949     1.41759590     2.51749654
     12      C    -4.04067044    -2.67858482     2.01857462
     13      C    -4.31865374    -1.53007797     1.26695277
     14      C    -3.28313086    -0.65450113     0.91718762
     15      C    -1.96962468    -0.92743114     1.31904430
     16      C    -1.69164136    -2.07593799     2.07066615
     17      C    -2.72716424    -2.95151482     2.42043130
     18      H    -5.32378380    -1.32122463     0.95944130
     19      H    -3.49585113     0.22436701     0.34202649
     20      H    -0.68651131    -2.28479133     2.37817763
     21      H    -2.51444398    -3.83038297     2.99559244
     22      H    -4.83308023    -3.34859962     2.28622427
     23      H     1.16279025     1.11629180    -0.25802988
     24     Ti     5.19572319    -1.83510821    -2.92020886
     25     Cl     3.62898812    -1.04016615    -1.71419100
     26     Cl     4.70695040    -1.57975969    -4.97859878
     27     Cl     5.43333565    -3.91042610    -2.49870350
     28     Cl     7.01361860    -0.81008092    -2.48934217
 
Total System Charge             0.00000
 
 
----------------
ADF Engine Input
----------------
 
 NumericalQuality VeryGood
 SCF
 Converge 1.0e-6
 Iterations 99
 End
 SYMMETRY NOSYM
 XC
 GGA OLYP
 End
 basis
 core None
 type TZ2P
 End
 

 Title: *** (NO TITLE) ***

Bad geometry: added dihedral     4    5   24   27
Bad geometry: added dihedral    26   24    5    4
Bad geometry: added dihedral    28   24    5    4
 Using automatic Hessian for delocalized coordinates.
 *** GOStep1 ***

 Energy gradients wrt nuclear displacements
 ==========================================

     Atom      Cartesian (a.u./angstrom)
                 X         Y         Z
 ----------------------------------------
     1 H    -0.003581  0.002547  0.002598
     2 C     0.017687  0.033180 -0.015796
     3 C    -0.005398 -0.011699  0.013696
     4 C     0.110101  0.003994 -0.055585
     5 O     0.192201 -0.142339 -0.220592
     6 H     0.001493 -0.001328  0.001861
     7 H    -0.000239  0.006057  0.001165
     8 H    -0.001220 -0.000765 -0.003840
     9 C     0.000389 -0.005007  0.004589
    10 H    -0.005323 -0.007481 -0.004704
    11 H     0.000180 -0.004242 -0.004100
    12 C    -0.018401 -0.016666  0.006794
    13 C    -0.025719  0.005896 -0.009148
    14 C    -0.000741  0.029853 -0.018857
    15 C    -0.011178 -0.016397  0.012817
    16 C     0.036159  0.000509  0.003934
    17 C     0.004539 -0.024231  0.014520
    18 H     0.019433 -0.003968  0.006160
    19 H     0.004286 -0.016727  0.011556
    20 H    -0.014150  0.007232 -0.007723
    21 H    -0.004256  0.017000 -0.011018
    22 H     0.014999  0.012898 -0.004877
    23 H     0.002250 -0.051568  0.014396
    24 Ti   -0.004062  0.003093  0.008124
    25 Cl   -0.273503  0.161605  0.228702
    26 Cl    0.015774 -0.007844  0.053277
    27 Cl   -0.004147  0.056150 -0.013506
    28 Cl   -0.047575 -0.029750 -0.014443
 ----------------------------------------
 Mulliken charges used for AMS results%charges...
 
----------------------------------------------------------------------
Geometry Convergence after Step   1       (Hartree/Angstrom,Angstrom)
----------------------------------------------------------------------
current energy                               -5.57240492 Hartree
energy change                      -5.57240492     0.00028000    F
constrained gradient max            0.27350346     0.00100000    F
constrained gradient rms            0.05944561     0.00066667    F
gradient max                        0.27350346
gradient rms                        0.05944561
cart. step max                      0.11680279     0.01000000    F
cart. step rms                      0.03261738     0.00666667    F
 
 
--------
Geometry
--------
Formula: C10H12Cl4OTi
Atoms
  Index Symbol   x (angstrom)   y (angstrom)   z (angstrom)
      1      H     0.83996915    -1.32419192     1.23562638
      2      C    -0.84590594     0.03948253     0.95632126
      3      C     0.35551273    -0.76054322     0.43164926
      4      C     1.39979401     0.10247897    -0.23199254
      5      O     2.43918054    -0.31920336    -0.72375267
      6      H    -1.21027800     0.68962155     0.15425806
      7      H     0.02933479    -1.49193717    -0.31682173
      8      H    -0.08978735     0.26502413     2.98039931
      9      C    -0.47441621     0.89171337     2.17325352
     10      H     0.28765823     1.62713184     1.91032343
     11      H    -1.35475215     1.42314173     2.53753290
     12      C    -4.06148601    -2.68503924     2.00944875
     13      C    -4.32935734    -1.54015229     1.25296881
     14      C    -3.29106369    -0.66505848     0.91549916
     15      C    -1.98099666    -0.93078532     1.33260968
     16      C    -1.71630331    -2.07910494     2.09078274
     17      C    -2.75457285    -2.95390409     2.42818321
     18      H    -5.33453817    -1.33191539     0.93004326
     19      H    -3.50017362     0.21537772     0.33314285
     20      H    -0.71336105    -2.29072304     2.41570063
     21      H    -2.54723074    -3.83472315     3.01056478
     22      H    -4.85972317    -3.35827672     2.26910003
     23      H     1.16029213     1.15646663    -0.23457063
     24     Ti     5.26180104    -1.86662015    -2.99275377
     25     Cl     3.71329940    -1.05827128    -1.75168563
     26     Cl     4.71595783    -1.62921204    -5.05111946
     27     Cl     5.51124860    -3.94818343    -2.54816301
     28     Cl     7.09305115    -0.82266236    -2.60614496
 
Total System Charge             0.00000
 
 *** GOStep2 ***

 Energy gradients wrt nuclear displacements
 ==========================================

     Atom      Cartesian (a.u./angstrom)
                 X         Y         Z
 ----------------------------------------
     1 H    -0.003129  0.002432  0.002522
     2 C     0.013583  0.030758 -0.016515
     3 C    -0.005256 -0.012109  0.013324
     4 C     0.032908  0.024213 -0.020274
     5 O     0.205517 -0.135640 -0.200570
     6 H     0.001105 -0.001302  0.000982
     7 H    -0.000905  0.004893  0.000298
     8 H    -0.000863 -0.000671 -0.003061
     9 C     0.000406 -0.005052  0.005447
    10 H    -0.003838 -0.005608 -0.004071
    11 H     0.000014 -0.003412 -0.003385
    12 C    -0.012293 -0.011196  0.004398
    13 C    -0.017949  0.003283 -0.006479
    14 C     0.000023  0.022366 -0.014143
    15 C    -0.010140 -0.014328  0.012269
    16 C     0.027225 -0.000642  0.003670
    17 C     0.002287 -0.017381  0.010104
    18 H     0.013764 -0.002953  0.004729
    19 H     0.003098 -0.011931  0.008521
    20 H    -0.010374  0.005708 -0.006061
    21 H    -0.003186  0.012085 -0.007919
    22 H     0.010720  0.009271 -0.003321
    23 H    -0.000865 -0.036279  0.013129
    24 Ti    0.001360 -0.000298  0.001882
    25 Cl   -0.215362  0.128715  0.183345
    26 Cl    0.013075 -0.005609  0.041673
    27 Cl   -0.003813  0.043607 -0.010692
    28 Cl   -0.037113 -0.022919 -0.009802
 ----------------------------------------
 Mulliken charges used for AMS results%charges...

 dE(predicted):    -0.41962E-01, dE(actual):    -0.45093E-01, Trust radius:    0.400000, all in a.u.
 
----------------------------------------------------------------------
Geometry Convergence after Step   2       (Hartree/Angstrom,Angstrom)
----------------------------------------------------------------------
current energy                               -5.61749747 Hartree
energy change                      -0.04509255     0.00028000    F
constrained gradient max            0.21536177     0.00100000    F
constrained gradient rms            0.05035297     0.00066667    F
gradient max                        0.21536177
gradient rms                        0.05035297
cart. step max                      0.17560825     0.01000000    F
cart. step rms                      0.05250070     0.00666667    F
 
 
--------
Geometry
--------
Formula: C10H12Cl4OTi
Atoms
  Index Symbol   x (angstrom)   y (angstrom)   z (angstrom)
      1      H     0.85883344    -1.27257116     1.28876835
      2      C    -0.86868149     0.04498936     0.99399316
      3      C     0.36648642    -0.72160232     0.48019114
      4      C     1.40487430     0.15690926    -0.17548213
      5      O     2.45073715    -0.25628627    -0.64954688
      6      H    -1.23737539     0.68454741     0.18409127
      7      H     0.06971668    -1.46446808    -0.27160029
      8      H    -0.13932891     0.30265327     3.03317822
      9      C    -0.52772633     0.91599631     2.21595101
     10      H     0.22389562     1.67114618     1.96684115
     11      H    -1.42137489     1.43380851     2.57214450
     12      C    -4.09179441    -2.69929699     1.99193333
     13      C    -4.34285444    -1.55998930     1.22774177
     14      C    -3.30034678    -0.68558754     0.91178483
     15      C    -1.99536709    -0.93699038     1.35394415
     16      C    -1.75391491    -2.08509588     2.12198870
     17      C    -2.79538792    -2.95948860     2.43838231
     18      H    -5.34769611    -1.35241786     0.87791966
     19      H    -3.50438422     0.19769671     0.31712174
     20      H    -0.75496156    -2.30227412     2.47738041
     21      H    -2.59528005    -3.84359011     3.03284575
     22      H    -4.89918080    -3.37921566     2.23784681
     23      H     1.16534044     1.22924697    -0.20578673
     24     Ti     5.36069379    -1.92247217    -3.10760958
     25     Cl     3.83846361    -1.09094605    -1.81733055
     26     Cl     4.73615719    -1.70578252    -5.17193475
     27     Cl     5.62302238    -4.02187768    -2.63260051
     28     Cl     7.22058763    -0.85711040    -2.78175321
 
Total System Charge             0.00000
 
 *** GOStep3 ***

 Energy gradients wrt nuclear displacements
 ==========================================

     Atom      Cartesian (a.u./angstrom)
                 X         Y         Z
 ----------------------------------------
     1 H    -0.002016  0.001882  0.002023
     2 C     0.005472  0.024754 -0.016554
     3 C     0.002477 -0.010406  0.007972
     4 C     0.011217  0.010530 -0.008964
     5 O     0.121995 -0.081112 -0.118768
     6 H     0.000118 -0.001555 -0.000337
     7 H    -0.001229  0.002622 -0.001125
     8 H    -0.000173 -0.000425 -0.001588
     9 C     0.000376 -0.004676  0.006314
    10 H    -0.001289 -0.001978 -0.002435
    11 H    -0.000309 -0.001668 -0.001864
    12 C    -0.002515 -0.002258  0.000739
    13 C    -0.005086 -0.000414 -0.001779
    14 C     0.000576  0.008838 -0.005612
    15 C    -0.006366 -0.009746  0.010377
    16 C     0.011030 -0.001814  0.001806
    17 C    -0.000286 -0.005438  0.002449
    18 H     0.004145 -0.001150  0.001838
    19 H     0.001074 -0.003734  0.003116
    20 H    -0.003361  0.002725 -0.002616
    21 H    -0.001328  0.003752 -0.002487
    22 H     0.003278  0.003002 -0.000881
    23 H     0.000242 -0.015906  0.007430
    24 Ti    0.005113 -0.002794 -0.003618
    25 Cl   -0.129512  0.079036  0.112963
    26 Cl    0.006830 -0.002337  0.020513
    27 Cl   -0.002239  0.021153 -0.005152
    28 Cl   -0.018234 -0.010882 -0.003759
 ----------------------------------------
 Mulliken charges used for AMS results%charges...

 dE(predicted):    -0.56069E-01, dE(actual):    -0.59662E-01, Trust radius:    0.800000, all in a.u.
 
----------------------------------------------------------------------
Geometry Convergence after Step   3       (Hartree/Angstrom,Angstrom)
----------------------------------------------------------------------
current energy                               -5.67715954 Hartree
energy change                      -0.05966207     0.00028000    F
constrained gradient max            0.12951129     0.00100000    F
constrained gradient rms            0.02994278     0.00066667    F
gradient max                        0.12951129
gradient rms                        0.02994278
cart. step max                      0.21195581     0.01000000    F
cart. step rms                      0.06938456     0.00666667    F
 
 
--------
Geometry
--------
Formula: C10H12Cl4OTi
Atoms
  Index Symbol   x (angstrom)   y (angstrom)   z (angstrom)
      1      H     0.90891022    -1.21939919     1.32932254
      2      C    -0.88646016     0.01993468     1.06161540
      3      C     0.38058164    -0.68824790     0.52961368
      4      C     1.38958368     0.21487205    -0.14804556
      5      O     2.44196487    -0.17173749    -0.60669972
      6      H    -1.25784528     0.66232337     0.25409930
      7      H     0.11205000    -1.45100266    -0.21377959
      8      H    -0.18439374     0.32000981     3.11190891
      9      C    -0.57272761     0.91625011     2.28038336
     10      H     0.17205698     1.68383915     2.04000330
     11      H    -1.47546847     1.42792695     2.62691313
     12      C    -4.16234498    -2.68971680     1.99438026
     13      C    -4.37329300    -1.56170216     1.20379375
     14      C    -3.30945839    -0.71130347     0.90109004
     15      C    -2.01583622    -0.96225952     1.37901549
     16      C    -1.82149332    -2.10078340     2.17489796
     17      C    -2.88156929    -2.95376381     2.47947731
     18      H    -5.36747237    -1.34461169     0.81454517
     19      H    -3.48943783     0.16498831     0.27821463
     20      H    -0.83531511    -2.33330470     2.57110637
     21      H    -2.70386938    -3.83339876     3.09724201
     22      H    -4.98783860    -3.36052248     2.22833675
     23      H     1.11490086     1.29400599    -0.23930717
     24     Ti     5.51199837    -1.96116582    -3.25046381
     25     Cl     3.99494536    -1.11513344    -1.94014422
     26     Cl     4.83044943    -1.80882099    -5.33167329
     27     Cl     5.82424555    -4.06968748    -2.72173336
     28     Cl     7.38629010    -0.84765778    -2.99370902
 
Total System Charge             0.00000
 
 *** GOStep4 ***

 Energy gradients wrt nuclear displacements
 ==========================================

     Atom      Cartesian (a.u./angstrom)
                 X         Y         Z
 ----------------------------------------
     1 H    -0.001235  0.001852  0.000551
     2 C    -0.001401  0.006905 -0.004126
     3 C     0.005771 -0.003424 -0.001006
     4 C     0.015233 -0.008892 -0.003732
     5 O     0.046242 -0.032665 -0.052287
     6 H    -0.000106 -0.002225  0.000049
     7 H    -0.000076  0.000684 -0.000870
     8 H     0.000040 -0.000318 -0.000776
     9 C     0.000612  0.000181  0.003089
    10 H     0.000356  0.001266  0.000097
    11 H    -0.000312  0.000268 -0.000010
    12 C     0.002148  0.002132 -0.000982
    13 C     0.002109 -0.000513  0.001932
    14 C    -0.000232 -0.001790  0.001775
    15 C    -0.002099 -0.004017  0.001391
    16 C    -0.001724 -0.001026 -0.000937
    17 C    -0.000436  0.003117 -0.001245
    18 H    -0.002039  0.000147 -0.000774
    19 H    -0.000237  0.001485 -0.001195
    20 H     0.001156 -0.000305  0.000483
    21 H     0.000231 -0.001737  0.001106
    22 H    -0.001588 -0.001465  0.000207
    23 H     0.001562  0.001182  0.000862
    24 Ti    0.002533 -0.001264 -0.002175
    25 Cl   -0.066319  0.040201  0.058083
    26 Cl    0.000216  0.000015  0.000616
    27 Cl   -0.000020  0.000483 -0.000069
    28 Cl   -0.000386 -0.000279 -0.000055
 ----------------------------------------
 Mulliken charges used for AMS results%charges...
 Rebuilding optimization coordinates
Bad geometry: added dihedral     4    5   24   27
Bad geometry: added dihedral    26   24    5    4
Bad geometry: added dihedral    28   24    5    4

 dE(predicted):    -0.29746E-01, dE(actual):    -0.38724E-01, Trust radius:    1.000000, all in a.u.
 
----------------------------------------------------------------------
Geometry Convergence after Step   4       (Hartree/Angstrom,Angstrom)
----------------------------------------------------------------------
current energy                               -5.71588393 Hartree
energy change                      -0.03872439     0.00028000    F
constrained gradient max            0.06631934     0.00100000    F
constrained gradient rms            0.01375383     0.00066667    F
gradient max                        0.06631934
gradient rms                        0.01375383
cart. step max                      0.21166581     0.01000000    F
cart. step rms                      0.05881392     0.00666667    F
 
 
--------
Geometry
--------
Formula: C10H12Cl4OTi
Atoms
  Index Symbol   x (angstrom)   y (angstrom)   z (angstrom)
      1      H     0.89487411    -1.19196645     1.31876037
      2      C    -0.91774746     0.04393714     1.12081332
      3      C     0.33213685    -0.65594386     0.54441883
      4      C     1.31219317     0.25551806    -0.17063443
      5      O     2.38410672    -0.11249029    -0.60303883
      6      H    -1.29425112     0.71699920     0.33885658
      7      H     0.04428795    -1.41945837    -0.19110275
      8      H    -0.18355477     0.29364613     3.17118801
      9      C    -0.57259964     0.90979562     2.35329693
     10      H     0.18436572     1.66594572     2.11538985
     11      H    -1.45996115     1.43272648     2.72303699
     12      C    -4.17661571    -2.70671389     1.96052808
     13      C    -4.38921360    -1.56422366     1.18981892
     14      C    -3.33449077    -0.68970768     0.92914113
     15      C    -2.04495664    -0.93224932     1.42299164
     16      C    -1.84779204    -2.08852456     2.19207983
     17      C    -2.89783225    -2.96751245     2.45391339
     18      H    -5.38096986    -1.34574588     0.79403305
     19      H    -3.51820643     0.19884301     0.32341728
     20      H    -0.86129300    -2.32469199     2.58930854
     21      H    -2.71464007    -3.85913734     3.05354443
     22      H    -4.99860714    -3.38902164     2.17439774
     23      H     1.01288173     1.33412534    -0.27872115
     24     Ti     5.63306564    -2.01487728    -3.32216541
     25     Cl     4.10212262    -1.14713911    -2.03652089
     26     Cl     4.91615528    -2.01285247    -5.41216340
     27     Cl     6.03591137    -4.09032647    -2.67768638
     28     Cl     7.48378385    -0.81902311    -3.16649803
 
Total System Charge             0.00000
 
 *** GOStep5 ***

 Energy gradients wrt nuclear displacements
 ==========================================

     Atom      Cartesian (a.u./angstrom)
                 X         Y         Z
 ----------------------------------------
     1 H    -0.000305 -0.000124  0.001273
     2 C    -0.003373 -0.001108 -0.002256
     3 C     0.002423 -0.001974  0.001192
     4 C     0.000587 -0.010287 -0.007782
     5 O     0.030496 -0.018458 -0.026037
     6 H    -0.000344 -0.000687 -0.000747
     7 H     0.001194  0.000089 -0.000230
     8 H     0.000293 -0.000367  0.000441
     9 C    -0.000246  0.000801  0.001391
    10 H     0.000377  0.000860  0.000052
    11 H    -0.000270  0.000473  0.000563
    12 C     0.001790  0.001893  0.000108
    13 C     0.003654 -0.000994 -0.001123
    14 C    -0.000857 -0.002963  0.002487
    15 C     0.001829  0.002278  0.002269
    16 C    -0.003484  0.001374 -0.000531
    17 C     0.000588  0.001819 -0.003489
    18 H    -0.002411  0.000947 -0.000774
    19 H    -0.000662  0.002379 -0.001605
    20 H     0.002679 -0.001392  0.000662
    21 H     0.000687 -0.002075  0.001627
    22 H    -0.002074 -0.001335  0.001150
    23 H     0.001525  0.008291  0.002420
    24 Ti   -0.001323  0.001160  0.001168
    25 Cl   -0.039287  0.023326  0.033067
    26 Cl   -0.003058 -0.000004 -0.008717
    27 Cl    0.001783 -0.008827  0.002741
    28 Cl    0.007788  0.004905  0.000680
 ----------------------------------------
 Mulliken charges used for AMS results%charges...

 dE(predicted):    -0.10283E-01, dE(actual):    -0.14565E-01, Trust radius:    1.000000, all in a.u.
 
----------------------------------------------------------------------
Geometry Convergence after Step   5       (Hartree/Angstrom,Angstrom)
----------------------------------------------------------------------
current energy                               -5.73044932 Hartree
energy change                      -0.01456539     0.00028000    F
constrained gradient max            0.03928760     0.00100000    F
constrained gradient rms            0.00830732     0.00066667    F
gradient max                        0.03928760
gradient rms                        0.00830732
cart. step max                      0.17425643     0.01000000    F
cart. step rms                      0.03963256     0.00666667    F
 
 
--------
Geometry
--------
Formula: C10H12Cl4OTi
Atoms
  Index Symbol   x (angstrom)   y (angstrom)   z (angstrom)
      1      H     0.90936815    -1.17528454     1.34321265
      2      C    -0.91696608     0.04426896     1.15300677
      3      C     0.34088641    -0.63691472     0.57489161
      4      C     1.31303704     0.29299483    -0.12899962
      5      O     2.38425614    -0.06065878    -0.57214003
      6      H    -1.28433400     0.73532682     0.38205039
      7      H     0.06192556    -1.39653006    -0.16836421
      8      H    -0.20768639     0.25739530     3.21658167
      9      C    -0.58408537     0.88747078     2.40337741
     10      H     0.17927315     1.64305147     2.18622090
     11      H    -1.47397695     1.40809252     2.76997977
     12      C    -4.19336783    -2.70174855     1.93412757
     13      C    -4.38961110    -1.56104166     1.15642794
     14      C    -3.32609308    -0.69445481     0.90354691
     15      C    -2.04603004    -0.93733508     1.42126165
     16      C    -1.86812736    -2.08614168     2.20663611
     17      C    -2.92763839    -2.95562812     2.46361875
     18      H    -5.37049506    -1.34726056     0.73393128
     19      H    -3.49630534     0.19011261     0.28943786
     20      H    -0.89446523    -2.31210728     2.63822858
     21      H    -2.75880893    -3.84106006     3.07516890
     22      H    -5.01771396    -3.38625682     2.12702993
     23      H     0.95407844     1.34136574    -0.31820070
     24     Ti     5.66856543    -2.03466167    -3.37378489
     25     Cl     4.15669932    -1.14902709    -2.08010042
     26     Cl     4.88621231    -2.15471445    -5.43863382
     27     Cl     6.15441868    -4.06661706    -2.64735489
     28     Cl     7.49013784    -0.78270517    -3.34075446
 
Total System Charge             0.00000
 
 *** GOStep6 ***

 Energy gradients wrt nuclear displacements
 ==========================================

     Atom      Cartesian (a.u./angstrom)
                 X         Y         Z
 ----------------------------------------
     1 H     0.000908  0.000769  0.000238
     2 C    -0.004520 -0.002175 -0.000593
     3 C    -0.001440 -0.002136 -0.005318
     4 C     0.011626 -0.002960  0.013625
     5 O     0.016982 -0.015093 -0.025294
     6 H    -0.000015 -0.000113 -0.000528
     7 H     0.000146 -0.001236  0.000862
     8 H     0.000230 -0.000425  0.000552
     9 C     0.000379  0.001120  0.000503
    10 H     0.000197  0.000487  0.000296
    11 H    -0.000250  0.000226  0.000356
    12 C     0.001454  0.000242 -0.001043
    13 C     0.001696  0.001163  0.002027
    14 C    -0.000660 -0.002542  0.001357
    15 C     0.003339  0.001722 -0.000824
    16 C    -0.001956 -0.000299 -0.002879
    17 C    -0.000538  0.002624  0.000379
    18 H    -0.001400  0.000423 -0.001020
    19 H    -0.000425  0.001604 -0.001194
    20 H     0.001517 -0.000632  0.001364
    21 H     0.000533 -0.001446  0.000958
    22 H    -0.001137 -0.001312  0.000026
    23 H    -0.002057  0.004880 -0.005055
    24 Ti   -0.002927  0.002084  0.002532
    25 Cl   -0.029204  0.017660  0.025015
    26 Cl   -0.003779 -0.000585 -0.010053
    27 Cl    0.002437 -0.010068  0.003578
    28 Cl    0.008864  0.006018  0.000133
 ----------------------------------------
 Mulliken charges used for AMS results%charges...

 dE(predicted):    -0.28897E-02, dE(actual):    -0.44459E-02, Trust radius:    1.000000, all in a.u.
 
----------------------------------------------------------------------
Geometry Convergence after Step   6       (Hartree/Angstrom,Angstrom)
----------------------------------------------------------------------
current energy                               -5.73489518 Hartree
energy change                      -0.00444585     0.00028000    F
constrained gradient max            0.02920350     0.00100000    F
constrained gradient rms            0.00676099     0.00066667    F
gradient max                        0.02920350
gradient rms                        0.00676099
cart. step max                      0.21770534     0.01000000    F
cart. step rms                      0.06276944     0.00666667    F
 
 
--------
Geometry
--------
Formula: C10H12Cl4OTi
Atoms
  Index Symbol   x (angstrom)   y (angstrom)   z (angstrom)
      1      H     0.87840750    -1.21269314     1.24629171
      2      C    -0.94180591     0.03002456     1.16420378
      3      C     0.27973799    -0.65239129     0.51763333
      4      C     1.22479305     0.28224214    -0.21883557
      5      O     2.32134998    -0.03960452    -0.62164182
      6      H    -1.32104247     0.75423124     0.42974969
      7      H    -0.04164539    -1.39385046    -0.22704034
      8      H    -0.15574432     0.17302751     3.20651592
      9      C    -0.54323159     0.83139103     2.42153227
     10      H     0.23320417     1.56994180     2.19347547
     11      H    -1.40491516     1.36687510     2.83129501
     12      C    -4.24832568    -2.66567109     1.98803016
     13      C    -4.43796925    -1.52153603     1.21390586
     14      C    -3.36484147    -0.67082739     0.94626903
     15      C    -2.08080848    -0.93453321     1.44336570
     16      C    -1.90970703    -2.08699183     2.22553504
     17      C    -2.97840103    -2.94124391     2.49636897
     18      H    -5.42113818    -1.29150408     0.80753863
     19      H    -3.53065051     0.21740667     0.33770719
     20      H    -0.93392930    -2.32703759     2.64277533
     21      H    -2.81436514    -3.82950938     3.10370474
     22      H    -5.07965853    -3.33735234     2.19137329
     23      H     0.85506794     1.33046221    -0.38363790
     24     Ti     5.82721463    -2.02223215    -3.40513531
     25     Cl     4.26594370    -1.15352912    -2.16307133
     26     Cl     5.08688512    -2.23022341    -5.47987299
     27     Cl     6.37212402    -4.01593459    -2.61411447
     28     Cl     7.60660469    -0.70900584    -3.38351778
 
Total System Charge             0.00000
 
 *** GOStep7 ***

 Energy gradients wrt nuclear displacements
 ==========================================

     Atom      Cartesian (a.u./angstrom)
                 X         Y         Z
 ----------------------------------------
     1 H     0.000517 -0.000039  0.000888
     2 C    -0.003950 -0.004649  0.001199
     3 C    -0.001618  0.000956  0.000967
     4 C     0.001430 -0.006771 -0.005717
     5 O     0.014458 -0.008222 -0.011457
     6 H     0.000414  0.000627 -0.000442
     7 H     0.001502 -0.000420  0.000705
     8 H     0.000108 -0.000395  0.000552
     9 C     0.000273  0.001164 -0.000288
    10 H     0.000156  0.000132  0.000089
    11 H    -0.000147  0.000127  0.000260
    12 C     0.000530  0.000017 -0.000143
    13 C     0.000728  0.000934  0.001491
    14 C    -0.000689 -0.001564  0.001065
    15 C     0.004340  0.002265 -0.002589
    16 C    -0.001251 -0.000143 -0.001957
    17 C    -0.000689  0.001281  0.000662
    18 H    -0.000561  0.000218 -0.000643
    19 H    -0.000226  0.000842 -0.000589
    20 H     0.000658 -0.000314  0.001031
    21 H     0.000347 -0.000683  0.000391
    22 H    -0.000408 -0.000755 -0.000294
    23 H     0.000480  0.006064  0.001736
    24 Ti   -0.004986  0.003270  0.004163
    25 Cl   -0.020228  0.011303  0.015997
    26 Cl   -0.003892 -0.001204 -0.011343
    27 Cl    0.003079 -0.010986  0.004261
    28 Cl    0.009626  0.006943  0.000004
 ----------------------------------------
 Mulliken charges used for AMS results%charges...

 dE(predicted):    -0.80738E-02, dE(actual):    -0.46659E-02, Trust radius:    1.000000, all in a.u.
 
----------------------------------------------------------------------
Geometry Convergence after Step   7       (Hartree/Angstrom,Angstrom)
----------------------------------------------------------------------
current energy                               -5.73956105 Hartree
energy change                      -0.00466587     0.00028000    F
constrained gradient max            0.02022957     0.00100000    F
constrained gradient rms            0.00476881     0.00066667    F
gradient max                        0.02022957
gradient rms                        0.00476881
cart. step max                      0.21348390     0.01000000    F
cart. step rms                      0.06438299     0.00666667    F
 
 
--------
Geometry
--------
Formula: C10H12Cl4OTi
Atoms
  Index Symbol   x (angstrom)   y (angstrom)   z (angstrom)
      1      H     0.83379444    -1.22465168     1.17138584
      2      C    -0.96770162     0.05038351     1.21420906
      3      C     0.21207416    -0.62846968     0.49317462
      4      C     1.13355043     0.31976908    -0.25699727
      5      O     2.24754254     0.03236725    -0.63537340
      6      H    -1.35919709     0.81310687     0.52647481
      7      H    -0.15828205    -1.33590235    -0.26291419
      8      H    -0.10662923     0.09800838     3.23120242
      9      C    -0.50493109     0.79236778     2.48416990
     10      H     0.28290216     1.51715631     2.25205595
     11      H    -1.33659561     1.33507311     2.94309208
     12      C    -4.27078613    -2.66513189     1.97824202
     13      C    -4.45950463    -1.51413025     1.21434717
     14      C    -3.39290035    -0.64399122     0.98327716
     15      C    -2.11440129    -0.90446213     1.49530037
     16      C    -1.94018787    -2.07215190     2.25425431
     17      C    -3.00109015    -2.94769151     2.48411685
     18      H    -5.44199788    -1.27986890     0.81117133
     19      H    -3.55756943     0.25128258     0.38673495
     20      H    -0.96125955    -2.32216877     2.65565421
     21      H    -2.83683866    -3.84624425     3.07434919
     22      H    -5.10232254    -3.33726789     2.17448632
     23      H     0.70128367     1.32615587    -0.49595745
     24     Ti     5.96313623    -2.05408035    -3.44816944
     25     Cl     4.38498702    -1.16590032    -2.24998261
     26     Cl     5.21808667    -2.41862623    -5.49484570
     27     Cl     6.58560792    -3.96996877    -2.54318823
     28     Cl     7.69238329    -0.68503174    -3.52986663
 
Total System Charge             0.00000
 
 *** GOStep8 ***

 Energy gradients wrt nuclear displacements
 ==========================================

     Atom      Cartesian (a.u./angstrom)
                 X         Y         Z
 ----------------------------------------
     1 H     0.000980  0.000162  0.000344
     2 C    -0.001255 -0.006047 -0.001341
     3 C    -0.004654  0.000720 -0.000718
     4 C     0.005174  0.000263  0.001713
     5 O     0.006141 -0.005438 -0.008007
     6 H     0.000479  0.001134 -0.000126
     7 H     0.001313 -0.001484  0.001206
     8 H    -0.000037 -0.000130  0.000330
     9 C    -0.000659  0.000549 -0.000119
    10 H    -0.000071 -0.000451 -0.000250
    11 H     0.000019  0.000022  0.000150
    12 C    -0.000709  0.000681  0.001870
    13 C     0.000718 -0.002056 -0.003729
    14 C    -0.000919  0.000534  0.001083
    15 C     0.002661  0.004560  0.001009
    16 C    -0.000772  0.001931  0.002914
    17 C     0.000715 -0.002550 -0.003213
    18 H     0.000205  0.000422  0.000625
    19 H     0.000028 -0.000206  0.000082
    20 H     0.000238 -0.000700 -0.000969
    21 H     0.000071  0.000451  0.000033
    22 H     0.000051  0.000789  0.000783
    23 H    -0.000718  0.001848 -0.000391
    24 Ti   -0.006506  0.004187  0.005159
    25 Cl   -0.010160  0.005497  0.007591
    26 Cl   -0.003276 -0.001752 -0.009543
    27 Cl    0.003001 -0.008950  0.004067
    28 Cl    0.007941  0.006012 -0.000555
 ----------------------------------------
 Mulliken charges used for AMS results%charges...
 Rebuilding optimization coordinates

 dE(predicted):    -0.39054E-02, dE(actual):    -0.41084E-02, Trust radius:    1.000000, all in a.u.
 
----------------------------------------------------------------------
Geometry Convergence after Step   8       (Hartree/Angstrom,Angstrom)
----------------------------------------------------------------------
current energy                               -5.74366941 Hartree
energy change                      -0.00410836     0.00028000    F
constrained gradient max            0.01015819     0.00100000    F
constrained gradient rms            0.00329628     0.00066667    F
gradient max                        0.01015819
gradient rms                        0.00329628
cart. step max                      0.21210160     0.01000000    F
cart. step rms                      0.07015402     0.00666667    F
 
 
--------
Geometry
--------
Formula: C10H12Cl4OTi
Atoms
  Index Symbol   x (angstrom)   y (angstrom)   z (angstrom)
      1      H     0.76932439    -1.28147900     1.03367740
      2      C    -0.99167531     0.03863582     1.21747026
      3      C     0.13646481    -0.63622888     0.41447022
      4      C     1.04470209     0.32410820    -0.33550475
      5      O     2.17873957     0.07147688    -0.67670816
      6      H    -1.39678347     0.83823870     0.58184557
      7      H    -0.29158643    -1.29179842    -0.35876211
      8      H    -0.03575206    -0.01749551     3.19153493
      9      C    -0.45136917     0.71510361     2.49252058
     10      H     0.34322683     1.42979479     2.25189496
     11      H    -1.24662450     1.25826639     3.01131646
     12      C    -4.32153945    -2.62814749     2.03946410
     13      C    -4.51135924    -1.46407793     1.29620211
     14      C    -3.43230010    -0.61926615     1.02965858
     15      C    -2.14661129    -0.90644508     1.50726920
     16      C    -1.97495310    -2.07769956     2.26159674
     17      C    -3.04968491    -2.92380661     2.53276477
     18      H    -5.49656245    -1.21822480     0.90752691
     19      H    -3.59528225     0.28166903     0.44197235
     20      H    -0.99566641    -2.33244317     2.65798804
     21      H    -2.88896383    -3.82510132     3.11927014
     22      H    -5.15645242    -3.29468063     2.23920903
     23      H     0.58258518     1.30849446    -0.59946844
     24     Ti     6.12866205    -2.04177158    -3.46462508
     25     Cl     4.50994978    -1.16165275    -2.32224754
     26     Cl     5.43018827    -2.49072621    -5.50358389
     27     Cl     6.78801877    -3.90340568    -2.49226985
     28     Cl     7.81445799    -0.63140624    -3.56407891
 
Total System Charge             0.00000
 
 *** GOStep9 ***

 Energy gradients wrt nuclear displacements
 ==========================================

     Atom      Cartesian (a.u./angstrom)
                 X         Y         Z
 ----------------------------------------
     1 H     0.000813  0.000229  0.000143
     2 C    -0.000290 -0.003709  0.000096
     3 C    -0.005226  0.001046  0.001692
     4 C     0.003451  0.002039 -0.001902
     5 O     0.003141 -0.003329 -0.003998
     6 H     0.000426  0.001071  0.000183
     7 H     0.001444 -0.001555  0.000821
     8 H    -0.000140 -0.000095  0.000162
     9 C    -0.000155  0.000354 -0.000108
    10 H     0.000108 -0.000339 -0.000140
    11 H     0.000115 -0.000006 -0.000068
    12 C     0.000063 -0.001776 -0.002132
    13 C    -0.001462  0.001797  0.002758
    14 C    -0.000024 -0.000153 -0.001431
    15 C     0.001658  0.002225 -0.001437
    16 C     0.001201 -0.001939 -0.002189
    17 C    -0.000779  0.001145  0.003473
    18 H     0.000699 -0.000307 -0.000112
    19 H     0.000196 -0.000679  0.000194
    20 H    -0.000432  0.000484  0.000172
    21 H     0.000001  0.000525 -0.000486
    22 H     0.000596  0.000179 -0.000600
    23 H     0.000015 -0.000047  0.001164
    24 Ti   -0.006417  0.003855  0.004812
    25 Cl   -0.004145  0.002066  0.002843
    26 Cl   -0.001965 -0.001409 -0.006255
    27 Cl    0.002106 -0.005621  0.002801
    28 Cl    0.005000  0.003950 -0.000454
 ----------------------------------------
 Mulliken charges used for AMS results%charges...

 dE(predicted):    -0.25700E-02, dE(actual):    -0.21714E-02, Trust radius:    1.000000, all in a.u.
 
----------------------------------------------------------------------
Geometry Convergence after Step   9       (Hartree/Angstrom,Angstrom)
----------------------------------------------------------------------
current energy                               -5.74584080 Hartree
energy change                      -0.00217139     0.00028000    F
constrained gradient max            0.00641592     0.00100000    F
constrained gradient rms            0.00220515     0.00066667    F
gradient max                        0.00641592
gradient rms                        0.00220515
cart. step max                      0.21205752     0.01000000    F
cart. step rms                      0.06914109     0.00666667    F
 
 
--------
Geometry
--------
Formula: C10H12Cl4OTi
Atoms
  Index Symbol   x (angstrom)   y (angstrom)   z (angstrom)
      1      H     0.68903810    -1.33351144     0.88435795
      2      C    -1.01594864     0.03202412     1.21772618
      3      C     0.05112091    -0.63771715     0.32958506
      4      C     0.94989938     0.33095625    -0.41940414
      5      O     2.10071370     0.10957022    -0.72457539
      6      H    -1.43547870     0.86424366     0.63600377
      7      H    -0.44042530    -1.23477109    -0.45412063
      8      H     0.04564364    -0.12049982     3.13259570
      9      C    -0.39135752     0.64597085     2.48523782
     10      H     0.40517559     1.35255242     2.22743905
     11      H    -1.14441880     1.18560416     3.06688741
     12      C    -4.36045300    -2.59649366     2.10660404
     13      C    -4.55354423    -1.42437593     1.37717592
     14      C    -3.47120170    -0.58890772     1.09403327
     15      C    -2.17712408    -0.90002111     1.53156400
     16      C    -2.00095064    -2.08162202     2.26866084
     17      C    -3.07813646    -2.91982746     2.55358191
     18      H    -5.54628971    -1.15938756     1.02164210
     19      H    -3.63839644     0.32339021     0.52544750
     20      H    -1.01461607    -2.35328743     2.63487219
     21      H    -2.91436180    -3.83042616     3.12471311
     22      H    -5.19912341    -3.25291654     2.32356852
     23      H     0.46092294     1.29075620    -0.71963886
     24     Ti     6.27938257    -2.03304892    -3.45845465
     25     Cl     4.61845744    -1.15724276    -2.37776582
     26     Cl     5.64224579    -2.53838268    -5.49802873
     27     Cl     6.94570227    -3.85516204    -2.43109775
     28     Cl     7.93667755    -0.59753571    -3.54820676
 
Total System Charge             0.00000
 
 *** GOStep10 ***

 Energy gradients wrt nuclear displacements
 ==========================================

     Atom      Cartesian (a.u./angstrom)
                 X         Y         Z
 ----------------------------------------
     1 H     0.000674  0.000164 -0.000269
     2 C     0.000674 -0.003285 -0.000735
     3 C    -0.005152  0.001539  0.003167
     4 C     0.002929  0.003385 -0.002502
     5 O     0.001894 -0.002514 -0.002519
     6 H     0.000369  0.000965  0.000432
     7 H     0.001406 -0.001636  0.000424
     8 H    -0.000186  0.000004  0.000103
     9 C    -0.000371 -0.000085 -0.000061
    10 H     0.000207 -0.000244 -0.000213
    11 H     0.000153  0.000071 -0.000106
    12 C    -0.000548 -0.000194  0.000206
    13 C    -0.001015  0.000420  0.000806
    14 C     0.000125  0.000515 -0.000650
    15 C     0.000580  0.001127 -0.002237
    16 C     0.000713 -0.001173 -0.000246
    17 C    -0.000002 -0.000272  0.001070
    18 H     0.000630 -0.000346 -0.000044
    19 H     0.000164 -0.000494  0.000579
    20 H    -0.000516  0.000691  0.000261
    21 H    -0.000098  0.000504 -0.000445
    22 H     0.000521  0.000213 -0.000499
    23 H     0.000236 -0.001025  0.001293
    24 Ti   -0.005651  0.003164  0.004061
    25 Cl   -0.000532  0.000186  0.000269
    26 Cl   -0.000885 -0.000872 -0.003370
    27 Cl    0.001156 -0.002860  0.001487
    28 Cl    0.002524  0.002051 -0.000260
 ----------------------------------------
 Mulliken charges used for AMS results%charges...

 dE(predicted):    -0.92712E-03, dE(actual):    -0.13316E-02, Trust radius:    1.000000, all in a.u.
 
----------------------------------------------------------------------
Geometry Convergence after Step  10       (Hartree/Angstrom,Angstrom)
----------------------------------------------------------------------
current energy                               -5.74717240 Hartree
energy change                      -0.00133160     0.00028000    F
constrained gradient max            0.00565230     0.00100000    F
constrained gradient rms            0.00159181     0.00066667    F
gradient max                        0.00565230
gradient rms                        0.00159181
cart. step max                      0.21425215     0.01000000    F
cart. step rms                      0.07202795     0.00666667    F
 
 
--------
Geometry
--------
Formula: C10H12Cl4OTi
Atoms
  Index Symbol   x (angstrom)   y (angstrom)   z (angstrom)
      1      H     0.58006144    -1.38196680     0.71909786
      2      C    -1.04340415     0.03417900     1.21477381
      3      C    -0.05151813    -0.62993209     0.23631224
      4      C     0.84404437     0.34400910    -0.50527986
      5      O     2.01018378     0.15181886    -0.76961316
      6      H    -1.47882353     0.89576299     0.69089623
      7      H    -0.61555883    -1.15317600    -0.55213550
      8      H     0.13834672    -0.21338893     3.04866917
      9      C    -0.32607523     0.58472864     2.46178691
     10      H     0.46502934     1.28843005     2.18062327
     11      H    -1.02991706     1.11252683     3.11201090
     12      C    -4.38229115    -2.57980917     2.16900952
     13      C    -4.58931097    -1.38902518     1.47456609
     14      C    -3.50933133    -0.55694133     1.17315437
     15      C    -2.20495372    -0.88722645     1.56309533
     16      C    -2.01456231    -2.08693435     2.26628647
     17      C    -3.08952528    -2.92097778     2.57048365
     18      H    -5.59150253    -1.10674052     1.16051029
     19      H    -3.68612049     0.36560116     0.62382982
     20      H    -1.01724228    -2.38074271     2.58268866
     21      H    -2.91546469    -3.84546496     3.11618612
     22      H    -5.21990405    -3.23201359     2.40334577
     23      H     0.33629383     1.28197395    -0.84185262
     24     Ti     6.42306009    -2.03262943    -3.43420517
     25     Cl     4.72313850    -1.15298400    -2.41777230
     26     Cl     5.85649794    -2.55833343    -5.48324374
     27     Cl     7.06031436    -3.83706914    -2.37029470
     28     Cl     8.07168872    -0.59374384    -3.48252581
 
Total System Charge             0.00000
 
 *** GOStep11 ***

 Energy gradients wrt nuclear displacements
 ==========================================

     Atom      Cartesian (a.u./angstrom)
                 X         Y         Z
 ----------------------------------------
     1 H     0.000436 -0.000055 -0.000541
     2 C     0.001251 -0.002196 -0.001784
     3 C    -0.003741  0.001358  0.004476
     4 C     0.002286  0.003298 -0.002361
     5 O     0.000697 -0.001853 -0.001395
     6 H     0.000202  0.000655  0.000478
     7 H     0.000989 -0.001339 -0.000384
     8 H    -0.000125  0.000147  0.000074
     9 C    -0.000382 -0.000451  0.000194
    10 H     0.000283 -0.000116 -0.000245
    11 H     0.000168  0.000161 -0.000107
    12 C    -0.000018 -0.001129 -0.002091
    13 C    -0.000690  0.000529  0.001297
    14 C     0.000331  0.000121 -0.000811
    15 C    -0.000585  0.001413  0.000107
    16 C     0.000318 -0.001112 -0.000231
    17 C     0.000084  0.000685  0.001886
    18 H     0.000292 -0.000088  0.000206
    19 H     0.000193 -0.000566 -0.000167
    20 H    -0.000135  0.000100 -0.000574
    21 H    -0.000112  0.000297 -0.000175
    22 H     0.000223  0.000218 -0.000091
    23 H     0.000258 -0.001134  0.000885
    24 Ti   -0.003703  0.001977  0.002716
    25 Cl    0.001206 -0.000666 -0.000820
    26 Cl   -0.000035 -0.000127 -0.000459
    27 Cl    0.000169 -0.000220  0.000013
    28 Cl    0.000138  0.000090 -0.000097
 ----------------------------------------
 Mulliken charges used for AMS results%charges...

 dE(predicted):    -0.10419E-02, dE(actual):    -0.88748E-03, Trust radius:    1.000000, all in a.u.
 
----------------------------------------------------------------------
Geometry Convergence after Step  11       (Hartree/Angstrom,Angstrom)
----------------------------------------------------------------------
current energy                               -5.74805989 Hartree
energy change                      -0.00088748     0.00028000    F
constrained gradient max            0.00447606     0.00100000    F
constrained gradient rms            0.00122249     0.00066667    F
gradient max                        0.00447606
gradient rms                        0.00122249
cart. step max                      0.21552393     0.01000000    F
cart. step rms                      0.07070354     0.00666667    F
 
 
--------
Geometry
--------
Formula: C10H12Cl4OTi
Atoms
  Index Symbol   x (angstrom)   y (angstrom)   z (angstrom)
      1      H     0.46913379    -1.42899006     0.55792645
      2      C    -1.06896467     0.02636524     1.19333163
      3      C    -0.14731067    -0.62852262     0.13873932
      4      C     0.75305953     0.34890088    -0.58730639
      5      O     1.93138574     0.18036787    -0.81209445
      6      H    -1.51558185     0.91157116     0.72136619
      7      H    -0.77302604    -1.07938142    -0.64817394
      8      H     0.21491816    -0.30301187     2.94434206
      9      C    -0.27271712     0.52114683     2.41525847
     10      H     0.50963806     1.22653477     2.11511669
     11      H    -0.93137054     1.03146961     3.12425172
     12      C    -4.40371398    -2.55039057     2.26010197
     13      C    -4.62113309    -1.35236745     1.58139346
     14      C    -3.54261720    -0.53159634     1.24603751
     15      C    -2.22793533    -0.88627534     1.57537493
     16      C    -2.02596045    -2.09698046     2.25561671
     17      C    -3.09925053    -2.92102234     2.59141363
     18      H    -5.63161184    -1.05100021     1.31432726
     19      H    -3.72950488     0.40416430     0.72248629
     20      H    -1.02139466    -2.40584351     2.53290505
     21      H    -2.91633185    -3.85439065     3.11928488
     22      H    -5.24068428    -3.19222817     2.52446601
     23      H     0.23690176     1.27300380    -0.95060773
     24     Ti     6.55680048    -2.02266921    -3.40257057
     25     Cl     4.81935650    -1.14643631    -2.44345248
     26     Cl     6.07202187    -2.51505438    -5.47655742
     27     Cl     7.13839533    -3.84224965    -2.34047414
     28     Cl     8.21065115    -0.59518300    -3.36209948
 
Total System Charge             0.00000
 
 *** GOStep12 ***

 Energy gradients wrt nuclear displacements
 ==========================================

     Atom      Cartesian (a.u./angstrom)
                 X         Y         Z
 ----------------------------------------
     1 H     0.000243 -0.000051 -0.000742
     2 C     0.001117 -0.001199 -0.002198
     3 C    -0.001932  0.001265  0.004823
     4 C     0.001439  0.001825 -0.001467
     5 O     0.000232 -0.000899 -0.000731
     6 H     0.000051  0.000414  0.000504
     7 H     0.000363 -0.000716 -0.001012
     8 H    -0.000116  0.000092  0.000087
     9 C    -0.000302 -0.000637  0.000168
    10 H     0.000275 -0.000000 -0.000211
    11 H     0.000123  0.000198 -0.000050
    12 C    -0.000342  0.000861  0.001204
    13 C    -0.000106 -0.000557 -0.000570
    14 C     0.000282  0.000068 -0.000198
    15 C    -0.000751  0.000178 -0.000502
    16 C    -0.000047 -0.000445  0.000358
    17 C     0.000510 -0.000474 -0.000951
    18 H     0.000053 -0.000116 -0.000078
    19 H     0.000007  0.000076  0.000346
    20 H    -0.000019  0.000399  0.000291
    21 H    -0.000085  0.000051 -0.000019
    22 H     0.000023  0.000006 -0.000076
    23 H     0.000065 -0.000841  0.000374
    24 Ti   -0.001615  0.000810  0.001321
    25 Cl    0.001997 -0.001020 -0.001188
    26 Cl    0.000364  0.000386  0.001517
    27 Cl   -0.000431  0.001511 -0.000941
    28 Cl   -0.001399 -0.001185 -0.000062
 ----------------------------------------
 Mulliken charges used for AMS results%charges...
 Rebuilding optimization coordinates

 dE(predicted):    -0.71892E-03, dE(actual):    -0.46231E-03, Trust radius:    1.000000, all in a.u.
 
----------------------------------------------------------------------
Geometry Convergence after Step  12       (Hartree/Angstrom,Angstrom)
----------------------------------------------------------------------
current energy                               -5.74852220 Hartree
energy change                      -0.00046231     0.00028000    F
constrained gradient max            0.00482284     0.00100000    F
constrained gradient rms            0.00095213     0.00066667    F
gradient max                        0.00482284
gradient rms                        0.00095213
cart. step max                      0.19103415     0.01000000    F
cart. step rms                      0.07155165     0.00666667    F
 
 
--------
Geometry
--------
Formula: C10H12Cl4OTi
Atoms
  Index Symbol   x (angstrom)   y (angstrom)   z (angstrom)
      1      H     0.34283007    -1.44783470     0.39404139
      2      C    -1.09649057     0.03095760     1.17629201
      3      C    -0.25450008    -0.60298707     0.04032344
      4      C     0.65420645     0.37372080    -0.67117709
      5      O     1.84251100     0.22155076    -0.85603018
      6      H    -1.55662641     0.93836408     0.76377107
      7      H    -0.94304699    -0.97793099    -0.73326965
      8      H     0.29701107    -0.38057429     2.82337260
      9      C    -0.21892000     0.46768409     2.36387246
     10      H     0.54655930     1.18322940     2.04596336
     11      H    -0.82807306     0.94757659     3.13567410
     12      C    -4.40434593    -2.54557165     2.32550867
     13      C    -4.64065673    -1.32156950     1.70148939
     14      C    -3.57010780    -0.50243881     1.33839414
     15      C    -2.24517626    -0.87986998     1.59350301
     16      C    -2.02483915    -2.11072264     2.22996295
     17      C    -3.09047814    -2.93296704     2.59400921
     18      H    -5.65927724    -1.00219486     1.49192363
     19      H    -3.77105044     0.44751568     0.84619873
     20      H    -1.01160227    -2.44218982     2.44227768
     21      H    -2.89294457    -3.88441409     3.08319795
     22      H    -5.23483959    -3.18812227     2.60837548
     23      H     0.13785110     1.29017018    -1.05568256
     24     Ti     6.67133406    -2.03107340    -3.35274924
     25     Cl     4.90083371    -1.14250345    -2.45905220
     26     Cl     6.26305602    -2.52158621    -5.44144185
     27     Cl     7.20025781    -3.85159429    -2.26883225
     28     Cl     8.32967801    -0.61469325    -3.24951263
 
Total System Charge             0.00000
 
 *** GOStep13 ***

 Energy gradients wrt nuclear displacements
 ==========================================

     Atom      Cartesian (a.u./angstrom)
                 X         Y         Z
 ----------------------------------------
     1 H     0.000048  0.000301 -0.000215
     2 C     0.000536 -0.001370 -0.001436
     3 C    -0.000393  0.001924  0.003726
     4 C    -0.000438 -0.000658 -0.001713
     5 O     0.002188 -0.000432 -0.000322
     6 H    -0.000011  0.000024  0.000283
     7 H    -0.000311  0.000314 -0.001215
     8 H    -0.000055  0.000102  0.000053
     9 C    -0.000086 -0.000410  0.000152
    10 H     0.000221  0.000045 -0.000095
    11 H     0.000080  0.000180  0.000009
    12 C     0.000064 -0.000808 -0.001974
    13 C     0.000010  0.000374  0.001091
    14 C     0.000305 -0.000149 -0.000119
    15 C    -0.000713 -0.000197  0.000172
    16 C    -0.000181  0.000020  0.000516
    17 C     0.000159  0.000869  0.001273
    18 H    -0.000100  0.000054  0.000064
    19 H    -0.000020 -0.000079 -0.000378
    20 H     0.000121 -0.000209 -0.000536
    21 H    -0.000049 -0.000153 -0.000060
    22 H    -0.000077 -0.000026  0.000096
    23 H    -0.000296 -0.000143  0.000113
    24 Ti    0.000402 -0.000278  0.000041
    25 Cl    0.000837 -0.000447 -0.000492
    26 Cl    0.000437  0.000615  0.002450
    27 Cl   -0.000648  0.002260 -0.001363
    28 Cl   -0.002028 -0.001720 -0.000121
 ----------------------------------------
 Mulliken charges used for AMS results%charges...

 dE(predicted):    -0.18191E-03, dE(actual):    -0.20985E-03, Trust radius:    1.000000, all in a.u.
 
----------------------------------------------------------------------
Geometry Convergence after Step  13       (Hartree/Angstrom,Angstrom)
----------------------------------------------------------------------
current energy                               -5.74873204 Hartree
energy change                      -0.00020985     0.00028000    T
constrained gradient max            0.00372546     0.00100000    F
constrained gradient rms            0.00088104     0.00066667    F
gradient max                        0.00372546
gradient rms                        0.00088104
cart. step max                      0.05115674     0.01000000    F
cart. step rms                      0.02078770     0.00666667    F
 
 
--------
Geometry
--------
Formula: C10H12Cl4OTi
Atoms
  Index Symbol   x (angstrom)   y (angstrom)   z (angstrom)
      1      H     0.30621387    -1.45777170     0.35041610
      2      C    -1.10369979     0.02893423     1.17092856
      3      C    -0.28367277    -0.60050442     0.01441109
      4      C     0.62859256     0.37935948    -0.68655763
      5      O     1.81875203     0.23154184    -0.86082666
      6      H    -1.56485488     0.94284971     0.77424220
      7      H    -0.98803481    -0.95311769    -0.75468535
      8      H     0.31659004    -0.40719975     2.78849347
      9      C    -0.20604401     0.44791848     2.34968376
     10      H     0.55462111     1.16746665     2.02982817
     11      H    -0.80248989     0.91676115     3.13802347
     12      C    -4.40965386    -2.53562494     2.35156783
     13      C    -4.64737724    -1.30920936     1.73273361
     14      C    -3.57731787    -0.49373764     1.36037214
     15      C    -2.25103206    -0.88029690     1.59453250
     16      C    -2.02882546    -2.11920116     2.21431321
     17      C    -3.09410547    -2.93753771     2.58833679
     18      H    -5.66700819    -0.98143610     1.54177202
     19      H    -3.77979536     0.46302715     0.88213953
     20      H    -1.01489780    -2.45599087     2.41470882
     21      H    -2.89512917    -3.89234092     3.07039443
     22      H    -5.23991119    -3.17368792     2.64514055
     23      H     0.11361908     1.29569537    -1.07400142
     24     Ti     6.71003747    -2.03005936    -3.34385596
     25     Cl     4.92996491    -1.13992563    -2.46624424
     26     Cl     6.31421276    -2.54445789    -5.42975860
     27     Cl     7.24274730    -3.83714950    -2.23826190
     28     Cl     8.36165206    -0.60437372    -3.24744287
 
Total System Charge             0.00000
 
 *** GOStep14 ***

 Energy gradients wrt nuclear displacements
 ==========================================

     Atom      Cartesian (a.u./angstrom)
                 X         Y         Z
 ----------------------------------------
     1 H     0.000014  0.000086 -0.000067
     2 C     0.000491 -0.000586 -0.001068
     3 C     0.000028  0.000822  0.002282
     4 C     0.000094 -0.000673 -0.000530
     5 O     0.000967 -0.000195 -0.000201
     6 H    -0.000143  0.000018  0.000240
     7 H    -0.000399  0.000473 -0.000869
     8 H    -0.000037  0.000067  0.000040
     9 C     0.000073 -0.000199  0.000106
    10 H     0.000143  0.000021 -0.000065
    11 H     0.000037  0.000112  0.000014
    12 C     0.000019  0.000461  0.000605
    13 C     0.000126 -0.000299 -0.000432
    14 C     0.000214 -0.000229 -0.000264
    15 C    -0.000366 -0.000081  0.000572
    16 C    -0.000131 -0.000231 -0.000344
    17 C     0.000125 -0.000062 -0.000534
    18 H    -0.000111  0.000068  0.000031
    19 H    -0.000053  0.000150  0.000016
    20 H     0.000097  0.000075  0.000167
    21 H    -0.000022 -0.000057  0.000172
    22 H    -0.000084 -0.000094 -0.000008
    23 H    -0.000249  0.000001 -0.000282
    24 Ti    0.000795 -0.000496 -0.000272
    25 Cl    0.000191 -0.000113 -0.000119
    26 Cl    0.000362  0.000529  0.002022
    27 Cl   -0.000533  0.001834 -0.001127
    28 Cl   -0.001649 -0.001402 -0.000085
 ----------------------------------------
 Mulliken charges used for AMS results%charges...

 dE(predicted):    -0.53636E-04, dE(actual):    -0.57062E-04, Trust radius:    1.000000, all in a.u.
 
----------------------------------------------------------------------
Geometry Convergence after Step  14       (Hartree/Angstrom,Angstrom)
----------------------------------------------------------------------
current energy                               -5.74878911 Hartree
energy change                      -0.00005706     0.00028000    T
constrained gradient max            0.00228096     0.00100000    F
constrained gradient rms            0.00057831     0.00066667    T
gradient max                        0.00228096
gradient rms                        0.00057831
cart. step max                      0.09500343     0.01000000    F
cart. step rms                      0.03492774     0.00666667    F
 
 
--------
Geometry
--------
Formula: C10H12Cl4OTi
Atoms
  Index Symbol   x (angstrom)   y (angstrom)   z (angstrom)
      1      H     0.24419837    -1.46851043     0.28005066
      2      C    -1.11803291     0.02758608     1.16184317
      3      C    -0.33489437    -0.59362269    -0.02801213
      4      C     0.58250701     0.38898019    -0.71637283
      5      O     1.77594110     0.24807083    -0.87268201
      6      H    -1.58062982     0.95141613     0.79075035
      7      H    -1.06470469    -0.91355264    -0.78622136
      8      H     0.34659314    -0.44619117     2.72825406
      9      C    -0.18700372     0.41900523     2.32360446
     10      H     0.56511186     1.14520514     1.99955093
     11      H    -0.76147813     0.86964702     3.13841713
     12      C    -4.41575828    -2.52757077     2.38480415
     13      C    -4.65811222    -1.28808574     1.79428825
     14      C    -3.59061995    -0.47574570     1.40821290
     15      C    -2.26209537    -0.87825034     1.60018468
     16      C    -2.03548625    -2.12655586     2.19891723
     17      C    -3.09831109    -2.94302136     2.58424627
     18      H    -5.67923095    -0.94956621     1.63240579
     19      H    -3.79658559     0.49053010     0.95113478
     20      H    -1.02004758    -2.47524938     2.36884255
     21      H    -2.89540701    -3.90812195     3.04354758
     22      H    -5.24393558    -3.16413695     2.68723933
     23      H     0.06989844     1.30533065    -1.10757300
     24     Ti     6.77850575    -2.03238684    -3.33010919
     25     Cl     4.98206428    -1.13951058    -2.48182794
     26     Cl     6.40921619    -2.57610325    -5.41474683
     27     Cl     7.30866717    -3.82353203    -2.19497200
     28     Cl     8.42278353    -0.59612662    -3.23337336
 
Total System Charge             0.00000
 
 *** GOStep15 ***

 Energy gradients wrt nuclear displacements
 ==========================================

     Atom      Cartesian (a.u./angstrom)
                 X         Y         Z
 ----------------------------------------
     1 H    -0.000074 -0.000031  0.000088
     2 C     0.000223  0.000181 -0.000192
     3 C     0.000529 -0.000163 -0.000037
     4 C     0.000192 -0.001103  0.000220
     5 O     0.000121  0.000325  0.000244
     6 H    -0.000206 -0.000009  0.000172
     7 H    -0.000405  0.000666 -0.000147
     8 H     0.000015 -0.000003  0.000030
     9 C     0.000141 -0.000023 -0.000051
    10 H    -0.000006 -0.000032 -0.000025
    11 H    -0.000033  0.000015  0.000021
    12 C     0.000071  0.000157  0.000249
    13 C     0.000073  0.000030 -0.000029
    14 C    -0.000029 -0.000029  0.000103
    15 C     0.000126 -0.000628 -0.000610
    16 C    -0.000044  0.000474  0.000625
    17 C    -0.000051 -0.000085 -0.000371
    18 H    -0.000071 -0.000040 -0.000197
    19 H    -0.000045  0.000151  0.000124
    20 H     0.000059 -0.000014  0.000115
    21 H     0.000018 -0.000133 -0.000098
    22 H    -0.000049 -0.000032  0.000064
    23 H    -0.000209  0.000212 -0.000433
    24 Ti    0.001180 -0.000706 -0.000623
    25 Cl   -0.000598  0.000302  0.000291
    26 Cl    0.000218  0.000290  0.001122
    27 Cl   -0.000282  0.000965 -0.000616
    28 Cl   -0.000865 -0.000737 -0.000038
 ----------------------------------------
 Mulliken charges used for AMS results%charges...

 dE(predicted):    -0.50566E-04, dE(actual):    -0.40642E-04, Trust radius:    1.000000, all in a.u.
 
----------------------------------------------------------------------
Geometry Convergence after Step  15       (Hartree/Angstrom,Angstrom)
----------------------------------------------------------------------
current energy                               -5.74882975 Hartree
energy change                      -0.00004064     0.00028000    T
constrained gradient max            0.00118028     0.00100000    F
constrained gradient rms            0.00037176     0.00066667    T
gradient max                        0.00118028
gradient rms                        0.00037176
cart. step max                      0.02772610     0.01000000    F
cart. step rms                      0.01003406     0.00666667    F
 
 
--------
Geometry
--------
Formula: C10H12Cl4OTi
Atoms
  Index Symbol   x (angstrom)   y (angstrom)   z (angstrom)
      1      H     0.26039259    -1.47711865     0.30246132
      2      C    -1.11599826     0.02217010     1.16189219
      3      C    -0.32187092    -0.60807348    -0.01618985
      4      C     0.59343904     0.37705531    -0.70437641
      5      O     1.78598994     0.23661071    -0.86555030
      6      H    -1.57490411     0.94299426     0.77887722
      7      H    -1.04358375    -0.94127874    -0.77602155
      8      H     0.33487302    -0.43852362     2.74464231
      9      C    -0.19565077     0.42327798     2.32880841
     10      H     0.55876977     1.14765149     2.00606074
     11      H    -0.77768264     0.87949412     3.13507607
     12      C    -4.42403023    -2.51992275     2.38390043
     13      C    -4.66144511    -1.28280207     1.78647231
     14      C    -3.59076997    -0.47510678     1.39940125
     15      C    -2.26382471    -0.87958619     1.59806853
     16      C    -2.04223588    -2.12756933     2.19947230
     17      C    -3.10824333    -2.93837597     2.58794270
     18      H    -5.68117949    -0.94122288     1.62265807
     19      H    -3.79284882     0.48950587     0.93724222
     20      H    -1.02821284    -2.47828690     2.37340025
     21      H    -2.90909530    -3.90102783     3.05385117
     22      H    -5.25472705    -3.15237406     2.68788055
     23      H     0.07996621     1.29533948    -1.08927504
     24     Ti     6.78125372    -2.02517289    -3.34423308
     25     Cl     4.98476079    -1.13968337    -2.48795221
     26     Cl     6.40555433    -2.56858200    -5.42926401
     27     Cl     7.32233070    -3.81683726    -2.21234998
     28     Cl     8.42212646    -0.58262366    -3.25249199
 
Total System Charge             0.00000
 
 *** GOStep16 ***

 Energy gradients wrt nuclear displacements
 ==========================================

     Atom      Cartesian (a.u./angstrom)
                 X         Y         Z
 ----------------------------------------
     1 H    -0.000221 -0.000306 -0.000127
     2 C     0.000363  0.000877  0.000138
     3 C     0.000350 -0.000931 -0.000716
     4 C     0.000592 -0.000439  0.000478
     5 O    -0.000650  0.000384  0.000280
     6 H    -0.000139  0.000060  0.000146
     7 H    -0.000096  0.000179  0.000212
     8 H     0.000033  0.000011  0.000010
     9 C     0.000077  0.000073 -0.000075
    10 H    -0.000054 -0.000072 -0.000005
    11 H    -0.000041 -0.000022  0.000003
    12 C     0.000038  0.000107  0.000262
    13 C     0.000018 -0.000056 -0.000223
    14 C    -0.000084 -0.000123 -0.000202
    15 C     0.000240 -0.000090  0.000060
    16 C     0.000025  0.000011 -0.000286
    17 C    -0.000080 -0.000037 -0.000088
    18 H    -0.000011  0.000051  0.000062
    19 H    -0.000009  0.000039  0.000045
    20 H     0.000002  0.000023  0.000122
    21 H     0.000015  0.000022  0.000068
    22 H    -0.000009 -0.000029 -0.000035
    23 H    -0.000002  0.000147 -0.000269
    24 Ti    0.000676 -0.000398 -0.000383
    25 Cl   -0.000812  0.000383  0.000394
    26 Cl    0.000083  0.000074  0.000319
    27 Cl   -0.000074  0.000265 -0.000178
    28 Cl   -0.000230 -0.000205 -0.000011
 ----------------------------------------
 Mulliken charges used for AMS results%charges...

 dE(predicted):    -0.13442E-04, dE(actual):    -0.15553E-04, Trust radius:    1.000000, all in a.u.
 
----------------------------------------------------------------------
Geometry Convergence after Step  16       (Hartree/Angstrom,Angstrom)
----------------------------------------------------------------------
current energy                               -5.74884530 Hartree
energy change                      -0.00001555     0.00028000    T
constrained gradient max            0.00093139     0.00100000    T
constrained gradient rms            0.00028222     0.00066667    T
gradient max                        0.00093139
gradient rms                        0.00028222
cart. step max                      0.01713319     0.01000000    F
cart. step rms                      0.00613396     0.00666667    T
 
 
--------
Geometry
--------
Formula: C10H12Cl4OTi
Atoms
  Index Symbol   x (angstrom)   y (angstrom)   z (angstrom)
      1      H     0.27451128    -1.47022184     0.31959452
      2      C    -1.11697183     0.02297046     1.16413367
      3      C    -0.31364908    -0.60824929    -0.00727124
      4      C     0.59823427     0.37677652    -0.70106677
      5      O     1.79036465     0.23548061    -0.86687187
      6      H    -1.57548345     0.94126461     0.77468336
      7      H    -1.02916607    -0.95466737    -0.76693136
      8      H     0.32602215    -0.42835337     2.75647208
      9      C    -0.20430221     0.43073497     2.33478534
     10      H     0.55004865     1.15609450     2.01394128
     11      H    -0.79198163     0.88810202     3.13625587
     12      C    -4.42555398    -2.52141883     2.37963707
     13      C    -4.66274964    -1.28217858     1.78656069
     14      C    -3.59197057    -0.47373655     1.40123773
     15      C    -2.26512528    -0.87917710     1.59830488
     16      C    -2.04375312    -2.12935523     2.19539945
     17      C    -3.10982461    -2.94098569     2.58187953
     18      H    -5.68241022    -0.94011989     1.62356627
     19      H    -3.79383147     0.49165895     0.94072266
     20      H    -1.02975488    -2.48145096     2.36649302
     21      H    -2.91082279    -3.90533213     3.04423580
     22      H    -5.25637045    -3.15459982     2.68162480
     23      H     0.08319129     1.29482518    -1.08371691
     24     Ti     6.78283470    -2.02793055    -3.35146210
     25     Cl     4.98640998    -1.14388188    -2.49418042
     26     Cl     6.40324677    -2.57862620    -5.43503501
     27     Cl     7.32986041    -3.81618043    -2.21489797
     28     Cl     8.42215050    -0.58151124    -3.26769076
 
Total System Charge             0.00000
 
 *** GOStep17 ***

 Energy gradients wrt nuclear displacements
 ==========================================

     Atom      Cartesian (a.u./angstrom)
                 X         Y         Z
 ----------------------------------------
     1 H    -0.000247 -0.000167 -0.000074
     2 C     0.000056  0.000414  0.000667
     3 C     0.000126 -0.000344 -0.001073
     4 C     0.000038 -0.000165 -0.000332
     5 O     0.000329  0.000140  0.000355
     6 H     0.000029 -0.000012  0.000002
     7 H     0.000086 -0.000084  0.000400
     8 H     0.000046  0.000044 -0.000009
     9 C    -0.000006  0.000025 -0.000086
    10 H    -0.000058 -0.000061  0.000043
    11 H    -0.000028 -0.000037 -0.000021
    12 C    -0.000006  0.000006  0.000145
    13 C    -0.000023  0.000014 -0.000082
    14 C    -0.000087 -0.000101 -0.000211
    15 C     0.000106  0.000252  0.000392
    16 C     0.000037 -0.000079 -0.000282
    17 C    -0.000057 -0.000067 -0.000017
    18 H     0.000034  0.000014  0.000044
    19 H     0.000015 -0.000046 -0.000033
    20 H    -0.000031  0.000010  0.000013
    21 H     0.000006  0.000070  0.000055
    22 H     0.000021  0.000001 -0.000060
    23 H    -0.000035  0.000058  0.000029
    24 Ti    0.000137 -0.000056 -0.000091
    25 Cl   -0.000791  0.000340  0.000369
    26 Cl   -0.000037 -0.000095 -0.000307
    27 Cl    0.000087 -0.000277  0.000160
    28 Cl    0.000257  0.000203  0.000006
 ----------------------------------------
 Mulliken charges used for AMS results%charges...

 dE(predicted):    -0.91159E-05, dE(actual):    -0.13294E-04, Trust radius:    1.000000, all in a.u.
 
----------------------------------------------------------------------
Geometry Convergence after Step  17       (Hartree/Angstrom,Angstrom)
----------------------------------------------------------------------
current energy                               -5.74885860 Hartree
energy change                      -0.00001329     0.00028000    T
constrained gradient max            0.00107379     0.00100000    F
constrained gradient rms            0.00022524     0.00066667    T
gradient max                        0.00107379
gradient rms                        0.00022524
cart. step max                      0.01977000     0.01000000    F
cart. step rms                      0.00805641     0.00666667    F
 
 
--------
Geometry
--------
Formula: C10H12Cl4OTi
Atoms
  Index Symbol   x (angstrom)   y (angstrom)   z (angstrom)
      1      H     0.29035514    -1.46171898     0.33936451
      2      C    -1.12006363     0.02397605     1.16595845
      3      C    -0.30502269    -0.60818206     0.00345240
      4      C     0.60186814     0.37779320    -0.69610604
      5      O     1.79322498     0.23661051    -0.86828508
      6      H    -1.57862345     0.93908191     0.76908449
      7      H    -1.01294843    -0.96840162    -0.75700539
      8      H     0.31301317    -0.41617514     2.76989723
      9      C    -0.21692717     0.43973672     2.34125457
     10      H     0.53732577     1.16637297     2.02275724
     11      H    -0.81144093     0.89833116     3.13694581
     12      C    -4.42806130    -2.52350678     2.37592157
     13      C    -4.66550218    -1.28073754     1.79044521
     14      C    -3.59490436    -0.47148052     1.40621847
     15      C    -2.26805989    -0.87970528     1.59694366
     16      C    -2.04638407    -2.13222394     2.18920589
     17      C    -3.11223808    -2.94477532     2.57418926
     18      H    -5.68523226    -0.93682536     1.63196090
     19      H    -3.79688717     0.49655497     0.95139168
     20      H    -1.03226148    -2.48599779     2.35598894
     21      H    -2.91309526    -3.91177163     3.03087362
     22      H    -5.25878416    -3.15712544     2.67718838
     23      H     0.08370751     1.29388013    -1.07846086
     24     Ti     6.79191758    -2.03285233    -3.36239252
     25     Cl     4.99511132    -1.14941717    -2.50623511
     26     Cl     6.40983592    -2.59172976    -5.44433709
     27     Cl     7.34359582    -3.81697177    -2.21973077
     28     Cl     8.42963452    -0.58280831    -3.28608579
 
Total System Charge             0.00000
 
 *** GOStep18 ***

 Energy gradients wrt nuclear displacements
 ==========================================

     Atom      Cartesian (a.u./angstrom)
                 X         Y         Z
 ----------------------------------------
     1 H    -0.000115 -0.000068 -0.000037
     2 C    -0.000313  0.000223  0.001078
     3 C     0.000075 -0.000111 -0.001179
     4 C    -0.000127  0.000303 -0.000457
     5 O     0.000614 -0.000100  0.000279
     6 H     0.000133 -0.000011 -0.000085
     7 H     0.000108 -0.000184  0.000456
     8 H     0.000053  0.000045 -0.000023
     9 C    -0.000040 -0.000051 -0.000164
    10 H    -0.000034 -0.000014  0.000069
    11 H    -0.000018 -0.000051 -0.000034
    12 C    -0.000026 -0.000169 -0.000226
    13 C    -0.000032  0.000056  0.000044
    14 C    -0.000045 -0.000006 -0.000093
    15 C    -0.000020  0.000140 -0.000099
    16 C     0.000046 -0.000031  0.000064
    17 C    -0.000016  0.000024  0.000216
    18 H     0.000052  0.000001  0.000050
    19 H     0.000029 -0.000041  0.000018
    20 H    -0.000039  0.000010 -0.000054
    21 H    -0.000002  0.000046 -0.000040
    22 H     0.000030  0.000063  0.000019
    23 H    -0.000015 -0.000174  0.000093
    24 Ti   -0.000408  0.000281  0.000211
    25 Cl   -0.000637  0.000238  0.000268
    26 Cl   -0.000155 -0.000238 -0.000852
    27 Cl    0.000227 -0.000746  0.000463
    28 Cl    0.000677  0.000563  0.000016
 ----------------------------------------
 Mulliken charges used for AMS results%charges...

 dE(predicted):    -0.82386E-05, dE(actual):    -0.14257E-04, Trust radius:    1.000000, all in a.u.
 
----------------------------------------------------------------------
Geometry Convergence after Step  18       (Hartree/Angstrom,Angstrom)
----------------------------------------------------------------------
[...]
    18     H      -0.002869   0.000754  -0.000147
    19     H       0.002987  -0.028530   0.011978
    20     H      -0.007546   0.003169  -0.001036
    21     H      -0.000433   0.000262  -0.000053
    22     H      -0.000357   0.000143  -0.000052
    23     H      -0.007815   0.021417  -0.008945
    24    Ti      -0.000002  -0.000000   0.000002
    25    Cl       0.000002  -0.000001  -0.000001
    26    Cl      -0.000000  -0.000000  -0.000001
    27    Cl       0.000000   0.000000  -0.000000
    28    Cl       0.000001   0.000001  -0.000000
 
 Mode:    76      Frequency (cm-1):     2999.3316     Intensity (km/mol):       17.2676
 Index  Atom      ---- Displacements (x/y/z) ----
     1     H       0.004476  -0.004478   0.001065
     2     C      -0.000365   0.001762   0.000135
     3     C       0.002288   0.001871   0.002958
     4     C      -0.000134  -0.000294   0.000107
     5     O       0.000156   0.000065   0.000072
     6     H       0.008187  -0.017565   0.006347
     7     H      -0.033131  -0.017593  -0.036331
     8     H       0.267605  -0.456334   0.214576
     9     C      -0.031508  -0.015230  -0.034854
    10     H       0.411293   0.406347  -0.195235
    11     H      -0.309289   0.225207   0.386679
    12     C      -0.000033  -0.000019  -0.000005
    13     C      -0.000095   0.000059   0.000005
    14     C      -0.000150  -0.000192   0.000072
    15     C       0.000402   0.000511  -0.000286
    16     C       0.001024  -0.000435   0.000225
    17     C      -0.000028  -0.000051   0.000032
    18     H       0.000961  -0.000483   0.000198
    19     H       0.000153   0.000728  -0.000444
    20     H      -0.011521   0.004615  -0.001073
    21     H      -0.000020  -0.000270   0.000176
    22     H       0.000068  -0.000051  -0.000015
    23     H      -0.000742   0.001946  -0.000686
    24    Ti      -0.000001  -0.000001  -0.000001
    25    Cl       0.000000   0.000000   0.000000
    26    Cl       0.000000   0.000000   0.000001
    27    Cl       0.000000  -0.000000   0.000000
    28    Cl       0.000001   0.000001   0.000000
 
 Mode:    77      Frequency (cm-1):     3070.5439     Intensity (km/mol):        3.8078
 Index  Atom      ---- Displacements (x/y/z) ----
     1     H      -0.466328   0.652696  -0.262808
     2     C       0.001542  -0.001875   0.001484
     3     C       0.053628  -0.046529   0.037708
     4     C       0.003054  -0.001625   0.000808
     5     O      -0.000819   0.000333  -0.000033
     6     H      -0.015996   0.028424  -0.008105
     7     H      -0.183645  -0.106715  -0.192976
     8     H       0.155059  -0.247803   0.117510
     9     C       0.004511   0.036925  -0.017432
    10     H      -0.213827  -0.201031   0.093829
    11     H       0.001734   0.008867  -0.006372
    12     C       0.000022  -0.000030  -0.000010
    13     C       0.000054   0.000006   0.000015
    14     C      -0.000062   0.000237  -0.000120
    15     C      -0.000132  -0.000270  -0.000176
    16     C      -0.002575   0.000910  -0.000119
    17     C       0.000117  -0.000220   0.000132
    18     H      -0.000739   0.000282  -0.000090
    19     H       0.000359  -0.002479   0.001075
    20     H       0.029665  -0.010606   0.002998
    21     H      -0.000897   0.004073  -0.001619
    22     H      -0.000106   0.000033  -0.000056
    23     H      -0.008577   0.017450  -0.008238
    24    Ti      -0.000003   0.000001   0.000002
    25    Cl       0.000003  -0.000001  -0.000001
    26    Cl      -0.000000  -0.000000  -0.000002
    27    Cl       0.000000  -0.000000  -0.000000
    28    Cl       0.000001   0.000001  -0.000000
 
 Mode:    78      Frequency (cm-1):     3073.5950     Intensity (km/mol):       29.6612
 Index  Atom      ---- Displacements (x/y/z) ----
     1     H      -0.212650   0.296864  -0.118108
     2     C       0.003333  -0.007505   0.004218
     3     C       0.024557  -0.021101   0.016814
     4     C       0.001260  -0.001120   0.000329
     5     O      -0.000251   0.000222   0.000071
     6     H      -0.044636   0.083778  -0.036236
     7     H      -0.083560  -0.047724  -0.087964
     8     H      -0.237862   0.363963  -0.172055
     9     C      -0.034815  -0.057168   0.050076
    10     H       0.484935   0.467273  -0.212743
    11     H       0.169187  -0.146744  -0.216857
    12     C      -0.000084  -0.000032   0.000022
    13     C       0.000122  -0.000151   0.000070
    14     C      -0.000043   0.001391  -0.000683
    15     C       0.000097  -0.000157   0.000006
    16     C      -0.003507   0.001351  -0.000458
    17     C       0.000233  -0.000461   0.000173
    18     H      -0.002895   0.001066  -0.000200
    19     H       0.002781  -0.015790   0.006637
    20     H       0.039832  -0.014079   0.004284
    21     H      -0.001627   0.007214  -0.002948
    22     H       0.000592   0.000718  -0.000323
    23     H      -0.004770   0.011470  -0.004833
    24    Ti       0.000003  -0.000004  -0.000000
    25    Cl      -0.000003   0.000002   0.000001
    26    Cl       0.000000   0.000000   0.000001
    27    Cl      -0.000001   0.000003  -0.000002
    28    Cl      -0.000000   0.000000  -0.000000
 
 Mode:    79      Frequency (cm-1):     3079.9203     Intensity (km/mol):       21.2136
 Index  Atom      ---- Displacements (x/y/z) ----
     1     H       0.080278  -0.112429   0.042815
     2     C      -0.004281   0.007058  -0.002451
     3     C      -0.008917   0.007751  -0.006504
     4     C      -0.000574   0.000624  -0.000360
     5     O       0.000137  -0.000082   0.000054
     6     H       0.042086  -0.075936   0.033071
     7     H       0.030306   0.017077   0.032260
     8     H       0.267110  -0.456744   0.236002
     9     C      -0.065206   0.055299   0.030805
    10     H       0.085003   0.112257  -0.039704
    11     H       0.427154  -0.317432  -0.563059
    12     C       0.000026   0.000007  -0.000010
    13     C      -0.000113   0.000098  -0.000032
    14     C       0.000229  -0.001165   0.000420
    15     C       0.000103   0.000041  -0.000151
    16     C       0.003697  -0.001202   0.000357
    17     C      -0.000250   0.000487  -0.000172
    18     H       0.002504  -0.000857   0.000241
    19     H      -0.002328   0.012923  -0.005174
    20     H      -0.042168   0.014897  -0.004069
    21     H       0.001681  -0.007502   0.003190
    22     H       0.000002  -0.000229   0.000076
    23     H       0.002598  -0.006278   0.002690
    24    Ti       0.000005  -0.000001  -0.000004
    25    Cl      -0.000005   0.000002   0.000002
    26    Cl       0.000000   0.000001   0.000003
    27    Cl      -0.000000   0.000000   0.000000
    28    Cl      -0.000002  -0.000002   0.000000
 
 Mode:    80      Frequency (cm-1):     3115.1486     Intensity (km/mol):        7.5075
 Index  Atom      ---- Displacements (x/y/z) ----
     1     H      -0.000268  -0.000081   0.000459
     2     C       0.000766  -0.001856   0.000820
     3     C       0.000033   0.000081  -0.000104
     4     C       0.000050  -0.000111   0.000012
     5     O      -0.000005   0.000014   0.000002
     6     H      -0.009482   0.024283  -0.010604
     7     H       0.000114  -0.000150   0.000079
     8     H      -0.002588   0.003352  -0.001969
     9     C      -0.000022  -0.000490   0.000201
    10     H       0.003741   0.003514  -0.001206
    11     H      -0.000328   0.000096   0.000762
    12     C       0.016662   0.012885  -0.006393
    13     C      -0.037927   0.014605  -0.004137
    14     C       0.014154  -0.060133   0.024786
    15     C      -0.002316  -0.000835   0.000485
    16     C      -0.008916   0.004224  -0.001346
    17     C       0.003804  -0.017400   0.007217
    18     H       0.463201  -0.164229   0.044525
    19     H      -0.153594   0.706925  -0.292054
    20     H       0.111444  -0.041506   0.011953
    21     H      -0.045063   0.208704  -0.086552
    22     H      -0.203454  -0.158264   0.078409
    23     H      -0.000389   0.000953  -0.000328
    24    Ti       0.000001  -0.000001  -0.000000
    25    Cl      -0.000001   0.000001   0.000000
    26    Cl      -0.000000   0.000000   0.000000
    27    Cl      -0.000000   0.000001  -0.000000
    28    Cl      -0.000000  -0.000000  -0.000000
 
 Mode:    81      Frequency (cm-1):     3123.3671     Intensity (km/mol):        0.4143
 Index  Atom      ---- Displacements (x/y/z) ----
     1     H       0.017874  -0.024624   0.009692
     2     C      -0.000606   0.001233  -0.000559
     3     C      -0.001869   0.001716  -0.001136
     4     C      -0.000066   0.000179  -0.000089
     5     O      -0.000004  -0.000024   0.000013
     6     H       0.006397  -0.014323   0.006173
     7     H       0.004548   0.002841   0.004858
     8     H       0.014336  -0.022833   0.011563
     9     C      -0.001217   0.002510  -0.000428
    10     H      -0.005514  -0.004775   0.002326
    11     H       0.005887  -0.004029  -0.008075
    12     C       0.024294   0.019938  -0.009810
    13     C      -0.002590  -0.000450   0.000337
    14     C      -0.007036   0.032919  -0.013614
    15     C       0.000784  -0.000548   0.000196
    16     C      -0.034001   0.013195  -0.003882
    17     C       0.011232  -0.052344   0.021716
    18     H       0.024703  -0.007426   0.001809
    19     H       0.081651  -0.379404   0.156802
    20     H       0.411609  -0.148315   0.042095
    21     H      -0.132489   0.618464  -0.256541
    22     H      -0.297671  -0.231884   0.114844
    23     H       0.000618  -0.001787   0.000812
    24    Ti       0.000002  -0.000001  -0.000001
    25    Cl      -0.000002   0.000001   0.000001
    26    Cl       0.000000   0.000000   0.000001
    27    Cl      -0.000000   0.000000  -0.000000
    28    Cl      -0.000001  -0.000000  -0.000000
 
 Mode:    82      Frequency (cm-1):     3133.3797     Intensity (km/mol):       12.4866
 Index  Atom      ---- Displacements (x/y/z) ----
     1     H      -0.013049   0.018272  -0.007524
     2     C      -0.000143   0.000690  -0.000303
     3     C       0.001297  -0.001429   0.000925
     4     C       0.000024   0.000056   0.000028
     5     O      -0.000030  -0.000007  -0.000002
     6     H       0.002530  -0.009285   0.004141
     7     H      -0.003123  -0.001861  -0.003500
     8     H      -0.008983   0.014932  -0.007307
     9     C       0.000882  -0.001517   0.000315
    10     H       0.000708   0.000595  -0.001008
    11     H      -0.003379   0.002466   0.004509
    12     C       0.032935   0.023122  -0.011630
    13     C      -0.047941   0.014563  -0.003573
    14     C      -0.006213   0.031627  -0.013106
    15     C       0.001895   0.000906  -0.000489
    16     C       0.035869  -0.014238   0.004228
    17     C      -0.005999   0.019448  -0.007969
    18     H       0.544383  -0.188173   0.050267
    19     H       0.075586  -0.352157   0.145562
    20     H      -0.424082   0.154138  -0.043904
    21     H       0.050158  -0.225879   0.093606
    22     H      -0.370439  -0.284913   0.141366
    23     H       0.000082   0.000097  -0.000207
    24    Ti      -0.000001   0.000001   0.000000
    25    Cl       0.000001  -0.000000  -0.000000
    26    Cl      -0.000000  -0.000000  -0.000000
    27    Cl       0.000000  -0.000000   0.000000
    28    Cl       0.000000   0.000000  -0.000000
 
 Mode:    83      Frequency (cm-1):     3141.6376     Intensity (km/mol):       30.3476
 Index  Atom      ---- Displacements (x/y/z) ----
     1     H       0.018462  -0.025587   0.010325
     2     C      -0.000492   0.000576  -0.000257
     3     C      -0.001899   0.001851  -0.001194
     4     C      -0.000059   0.000109  -0.000086
     5     O       0.000017  -0.000015   0.000011
     6     H       0.003287  -0.004032   0.001646
     7     H       0.004415   0.002747   0.004810
     8     H       0.013769  -0.022298   0.011086
     9     C      -0.001256   0.002270  -0.000460
    10     H      -0.003119  -0.002672   0.001705
    11     H       0.004955  -0.003459  -0.006760
    12     C      -0.018248  -0.017741   0.008544
    13     C      -0.040973   0.014412  -0.003892
    14     C      -0.001373   0.016005  -0.006733
    15     C       0.000729  -0.002198   0.000903
    16     C      -0.056130   0.019238  -0.005315
    17     C      -0.004259   0.032698  -0.013708
    18     H       0.459964  -0.161170   0.043402
    19     H       0.034390  -0.172133   0.071297
    20     H       0.637501  -0.227838   0.064351
    21     H       0.074575  -0.363081   0.150788
    22     H       0.227072   0.180806  -0.089286
    23     H       0.000426  -0.001424   0.000753
    24    Ti       0.000002   0.000000  -0.000002
    25    Cl      -0.000002   0.000001   0.000001
    26    Cl       0.000000   0.000000   0.000001
    27    Cl      -0.000000  -0.000000   0.000000
    28    Cl      -0.000001  -0.000001   0.000000
 
 Mode:    84      Frequency (cm-1):     3150.3178     Intensity (km/mol):       12.4807
 Index  Atom      ---- Displacements (x/y/z) ----
     1     H       0.007255  -0.010159   0.004196
     2     C      -0.000095  -0.000194   0.000094
     3     C      -0.000676   0.000806  -0.000484
     4     C      -0.000067  -0.000056   0.000000
     5     O       0.000056   0.000006  -0.000008
     6     H      -0.000347   0.003604  -0.001637
     7     H       0.001371   0.000935   0.001701
     8     H       0.005026  -0.008412   0.004108
     9     C      -0.000517   0.000746  -0.000189
    10     H       0.000472   0.000512   0.000247
    11     H       0.001473  -0.001135  -0.002098
    12     C       0.045226   0.034712  -0.017233
    13     C       0.035242  -0.014130   0.004089
    14     C       0.001203  -0.011505   0.004825
    15     C      -0.000639  -0.001079   0.000497
    16     C      -0.028932   0.008775  -0.002251
    17     C      -0.010118   0.041219  -0.017026
    18     H      -0.392090   0.139607  -0.037940
    19     H      -0.024271   0.120436  -0.049873
    20     H       0.316650  -0.111616   0.031296
    21     H       0.098800  -0.453181   0.187902
    22     H      -0.498868  -0.386673   0.191646
    23     H      -0.000065  -0.000011   0.000125
    24    Ti      -0.000002   0.000002   0.000001
    25    Cl       0.000002  -0.000001  -0.000001
    26    Cl      -0.000000  -0.000000  -0.000001
    27    Cl       0.000000  -0.000001   0.000001
    28    Cl       0.000000   0.000000  -0.000000

PES point character: Geometry corresponds to a local minimum on the PES.
                     (Hint: Very small negative frequencies do not count towards being a
                     transition state, as they usually indicate noise on a very flat PES. See
                     the PESPointCharacter%NegativeFrequenciesTolerance keyword documentation.)




 ============================
 Statistical Thermal Analysis  ***  ideal gas assumed  ***
 ============================
  
 Pressure:                  1.000000 atm.
 Temperature:             298.150000 K



 Moments of Inertia [amu*bohr^2] and principal axis
 ==================================================

        2917.0809      33608.9112      34322.5555
 ------------------------------------------------
          -0.8785         -0.0668          0.4731
           0.0864         -0.9961          0.0198
           0.4699          0.0583          0.8808


 The rotational contribution to the molecular entropy includes
 a term, dependent on the symmetry number sigma. The results 
 reported below were computed using sigma = 1, determined from
 the point group symmetry of the input geometry (NOSYM). 
 If this is not the correct symmetry, try symmetrizing the molecule before
 running the calculation (note: linear molecules should be aligned along one
 of the Cartesian axes).
 Contributions from frequencies below 20 1/cm are not included in vibrational sums.
 Their contributions, if any, are reported separately.


     Temp                                                        Transl      Rotat     Vibrat     Total
     ----                                                        ------      -----     ------     -----

     298.15   Entropy (cal/mol-K):                               43.330     36.463     51.263    131.056
              Nuclear Internal Energy (kcal/mol):                 0.889      0.889    130.537    132.314
              Constant Volume Heat Capacity (cal/mol-K):          2.981      2.981     49.554     55.515
          (c) Constant Volume Heat Capacity (cal/mol-K):          2.981      2.981     48.912     54.873

 Contributions from frequencies below 20 1/cm
 Frequency (1/cm):                                   10.349     3.310     8.588    15.142
 Entropy (cal/mol-K):                                 7.943    10.208     8.313     7.187
 Nuclear Internal Energy (kcal/mol):                  0.593     0.592     0.593     0.593
 Constant Volume Heat Capacity (cal/mol-K):           1.987     1.987     1.987     1.986

       Summary of energy terms
                                                   hartree              eV         kcal/mol           kJ/mol
                                      --------------------     -----------       ----------      -----------
      Energy from Engine:               -5.748927140297014       -156.4363         -3607.51        -15093.81
      Nuclear Internal Energy:           0.210855945065356          5.7377           132.31           553.60
  (c) Nuclear Internal Energy:           0.210371567308356          5.7245           132.01           552.33
      Internal Energy U:                -5.538071195231658       -150.6986         -3475.19        -14540.20
      pV/n = RT:                         0.000944186013486          0.0257             0.59             2.48
      Enthalpy H:                       -5.537127009218172       -150.6729         -3474.60        -14537.72
      -T*S:                             -0.062268729649594         -1.6944           -39.07          -163.49
  (c) -T*S:                             -0.070431075157351         -1.9165           -44.20          -184.92
      Gibbs free energy:                -5.599395738867766       -152.3673         -3513.67        -14701.21
 
 
 
  (c) The properties marked with this symbol have been corrected using 'low vibrational frequency free rotor
      interpolation corrections'. For those terms all positive frequencies are used (also ones below 20 1/cm),
      but the contribution to the partition function of small vibrational frequencies is modified as described
      in the following paper:
      S. Grimme, 'Supramolecular Binding Thermodynamics by Dispersion-Corrected Density Functional Theory'
      (Chem. Eur. J. 2012, 18, 9955-9964)
      Configuration: Dampener Frequency          :   100.000 1/cm
                     Dampener Alpha              :     4.000
                     Averaging Moment of Inertia : 1.000E-44 kg m2

--------------
Atomic charges
--------------
  Index   Atom    Charge
      1      H   -0.1797
      2      C    0.1514
      3      C    0.4316
      4      C    0.6531
      5      O   -0.4877
      6      H   -0.1950
      7      H   -0.1880
      8      H   -0.2160
      9      C    0.6887
     10      H   -0.2288
     11      H   -0.2357
     12      C    0.2362
     13      C    0.2411
     14      C    0.2745
     15      C    0.0443
     16      C    0.3035
     17      C    0.2477
     18      H   -0.2493
     19      H   -0.2650
     20      H   -0.2601
     21      H   -0.2502
     22      H   -0.2464
     23      H   -0.2704
     24     Ti    0.8963
     25     Cl   -0.1966
     26     Cl   -0.2335
     27     Cl   -0.2337
     28     Cl   -0.2323


Dipole moment vector    (Debye):    -2.88625792    0.06750667    1.06631920
              magnitude (Debye):     3.07767421


Final PES point is a local minimum. Geometry optimization successful!


AMS application finished. Exiting.
NORMAL TERMINATION
     Total cpu time:  120120.16
  Total system time:    2732.41
 Total elapsed time:  123426.48
