

 Parallel Execution: Process Information
 ==============================================================================
 Rank   Node Name                              NodeID   MyNodeRank  NodeMaster
    0   DESKTOP-1M8FOJT                           0          0          0
    1   DESKTOP-1M8FOJT                           0          1         -1
    2   DESKTOP-1M8FOJT                           0          2         -1
    3   DESKTOP-1M8FOJT                           0          3         -1
 ==============================================================================


May use up to 4096MB of RAM as shared memory on node 0

 *******************************************************************************
 *                                                                             *
 *  --------------------------------                                           *
 *   Amsterdam Modeling Suite (AMS)              2021.106                      *
 *  --------------------------------                                           *
 *                                               r99350 2021-12-03             *
 *                                                                             *
 *                                                                             *
 *                              =================                              *
 *                              |               |                              *
 *                              |     A M S     |                              *
 *                              |               |                              *
 *                              =================                              *
 *                                                                             *
 *                                                                             *
 *   Online information and documentation:  https://www.scm.com/support/       *
 *   E-mail:  support@scm.com   info@scm.com                                   *
 *                                                                             *
 *   Scientific publications using AMS results must be properly referenced     *
 *   See the User Manuals (or the web site) for recommended citations          *
 *   The terms and conditions of the End User License Agreement apply to       *
 *   the use of AMS, https://www.scm.com/license-terms/                        *
 *                                                                             *
 *********************  x86_64_windows_amdZen / intelmpi  **********************
 
 Licensed to: Mr. Yuman Hordijk / SCM / Amsterdam / Netherlands 2021-10-04 09:39:26
 SCM User ID: u24430
  
 AMS 2021.106  RunTime: Jan26-2022 15:45:19  ShM Nodes: 1  Procs: 4

 AMS jobname: ams
 AMS jobid  : 1261911057

 Start   directory: D:/Users/Yuman/Desktop/MasterProject/manual_calculations/substrate_conformers_tBu/tmp..16844.0.noindex/
 Results directory: D:/Users/Yuman/Desktop/MasterProject/manual_calculations/substrate_conformers_tBu/1.results/
 Scratch directory: Z:/SCMTMP/amstmp_ams_kid0.1261911057/


 Communication costs MPI_COMM_WORLD:      1.251 usec per message,   0.0035 usec per 8-byte item
 Communication costs for intra-node:      1.052 usec per message,   0.0040 usec per 8-byte item

 RNG seed: 230753831 -1975087343 1649055865 1951172473 1605901933 -583756588 1813045827 69319275



                      ************************************************************************
                      *  ADF 2021.106  RunTime: Jan26-2022 15:45:19  ShM Nodes: 1  Procs: 4  *
                      ************************************************************************
  
       ***************************
       *  GEOMETRY OPTIMIZATION  *
       ***************************

Optimization Method                    Quasi Newton
Optimization Coordinates               Delocalized Coordinates
Optimize lattice                       F
 
 ------------------------------------------------------
 Convergence criteria (Hartree,Angstrom)
 ------------------------------------------------------
 Maximum gradient               0.001000000000
 Maximum rms gradient           0.000666666667
 Maximum step allowed           0.010000000000
 Maximum rms step allowed       0.006666666667
 Maximum energy change allowe   0.000200000000
 Maximum stress energy allowe   0.000500000000
 
Initial model Hessian                  Automatic Hessian
 
------------------------------------
Quasi-Newton Optimizer Parameters
------------------------------------
Hessian Update Method                  BFGS
Maximum number of steps                  250
First GDIIS cycle                          0
Maximum GDIIS vectors                      0
Trust radius (bohr)                        0.200000
Trust radius varies                        T
Constraints converged at all steps         T
Use projector                              T
 
 Rigid motions settings for: old optimizer
 Atomic rotations (x,y,z):     T T T
 Atomic translations (x,y,z):  T T T
 Tolerance:                   1.000000000000000E-006
 
--------
Geometry
--------
Formula: C7H12O
Atoms
  Index Symbol   x (angstrom)   y (angstrom)   z (angstrom)
      1      C    -2.96464030    -1.81079070    -0.87026590
      2      C    -2.03249404    -1.13182777    -0.19522006
      3      C    -1.90017563     0.32433749    -0.32240398
      4      O    -1.08041788     0.97725965     0.27117462
      5      C    -3.21225250    -3.29532588    -0.84030076
      6      C    -4.66352885    -3.52400345    -0.37862360
      7      C    -3.04588121    -3.83051126    -2.27582599
      8      C    -2.25415831    -4.04044271     0.09667254
      9      H    -3.63754904    -1.26113646    -1.52799437
     10      H    -1.32902643    -1.61002550     0.47660735
     11      H    -2.62760471     0.79087475    -1.02275360
     12      H    -5.36140881    -3.01228740    -1.04170342
     13      H    -4.80052985    -3.14305023     0.63345437
     14      H    -4.89311350    -4.58954717    -0.38567929
     15      H    -2.02965257    -3.65264423    -2.62740151
     16      H    -3.74189344    -3.33365118    -2.95193283
     17      H    -3.24203091    -4.90240668    -2.29810611
     18      H    -1.22011840    -3.90265861    -0.21953367
     19      H    -2.47902171    -5.10715233     0.07932128
     20      H    -2.36082202    -3.68316379     1.12096613
 
Total System Charge             0.00000
Bonding info available!
 
 
----------------
ADF Engine Input
----------------
 
 Basis
 Type TZ2P
 Core None
 End
 XC
 GGA OLYP
 End
 

 Title: *** (NO TITLE) ***

 Using automatic Hessian for delocalized coordinates.
 *** GOStep1 ***

 Energy gradients wrt nuclear displacements
 ==========================================

     Atom      Cartesian (a.u./angstrom)
                 X         Y         Z
 ----------------------------------------
     1 C     0.002826  0.010832  0.001184
     2 C    -0.002616 -0.009630 -0.000956
     3 C     0.021718  0.028797  0.013749
     4 O    -0.033512 -0.034036 -0.022794
     5 C    -0.001326  0.003222 -0.001243
     6 C    -0.002078 -0.002600  0.000320
     7 C    -0.000150 -0.003420 -0.002028
     8 C     0.003297 -0.003071  0.003376
     9 H     0.001526 -0.004900  0.002123
    10 H    -0.001996  0.001577 -0.002150
    11 H     0.004090 -0.005952  0.004400
    12 H     0.006972 -0.000871  0.001445
    13 H     0.004815 -0.000394 -0.004467
    14 H     0.003876  0.005142 -0.000066
    15 H    -0.003632  0.001243  0.005458
    16 H     0.002384 -0.000039  0.006855
    17 H     0.001487  0.005700  0.002816
    18 H    -0.005228  0.002140 -0.001378
    19 H    -0.000539  0.004692 -0.001361
    20 H    -0.001915  0.001569 -0.005283
 ----------------------------------------
 Mulliken charges used for AMS results%charges...
 
----------------------------------------------------------------------
Geometry Convergence after Step   1       (Hartree/Angstrom,Angstrom)
----------------------------------------------------------------------
current energy                               -4.02640111 Hartree
energy change                      -4.02640111     0.00020000    F
constrained gradient max            0.03438277     0.00100000    F
constrained gradient rms            0.00919179     0.00066667    F
gradient max                        0.03438277
gradient rms                        0.00919179
cart. step max                      0.07673580     0.01000000    F
cart. step rms                      0.01878512     0.00666667    F
 
 
--------
Geometry
--------
Formula: C7H12O
Atoms
  Index Symbol   x (angstrom)   y (angstrom)   z (angstrom)
      1      C    -2.94906148    -1.80850062    -0.85970205
      2      C    -2.02218533    -1.10132212    -0.18594598
      3      C    -1.89549357     0.36088870    -0.32271832
      4      O    -1.06993951     1.05399545     0.26640648
      5      C    -3.20699774    -3.29968152    -0.83646606
      6      C    -4.66783612    -3.52908566    -0.37977366
      7      C    -3.05043205    -3.83623344    -2.28054308
      8      C    -2.25517862    -4.06569673     0.09793395
      9      H    -3.62174816    -1.25781866    -1.52125800
     10      H    -1.31553930    -1.56612740     0.49459349
     11      H    -2.62899713     0.81774889    -1.03078702
     12      H    -5.37510046    -3.01805639    -1.03850697
     13      H    -4.82240247    -3.16093674     0.63747691
     14      H    -4.90303655    -4.59674874    -0.39578209
     15      H    -2.03356562    -3.67893376    -2.64835880
     16      H    -3.74204002    -3.33906778    -2.96591098
     17      H    -3.26144159    -4.90868546    -2.30683723
     18      H    -1.21345008    -3.94613372    -0.20893165
     19      H    -2.49002552    -5.13256101     0.07403196
     20      H    -2.35184879    -3.72519676     1.13153030
 
Total System Charge             0.00000
Bonding info available!
 
 *** GOStep2 ***

 Energy gradients wrt nuclear displacements
 ==========================================

     Atom      Cartesian (a.u./angstrom)
                 X         Y         Z
 ----------------------------------------
     1 C    -0.002015 -0.000238 -0.001961
     2 C    -0.000423 -0.003638 -0.000130
     3 C    -0.009648 -0.004619 -0.006967
     4 O     0.011878  0.010766  0.008254
     5 C    -0.001531  0.001844 -0.001230
     6 C     0.000069 -0.002127 -0.000437
     7 C    -0.000626 -0.002013 -0.000002
     8 C     0.001316 -0.002330  0.001698
     9 H     0.000336 -0.002289  0.000999
    10 H    -0.001215  0.002006 -0.001292
    11 H    -0.000884 -0.002707 -0.000569
    12 H     0.002168 -0.000640  0.000773
    13 H     0.001500 -0.000268 -0.001593
    14 H     0.000978  0.001798  0.000310
    15 H    -0.001411  0.000361  0.001748
    16 H     0.000953 -0.000474  0.002155
    17 H     0.000773  0.001883  0.000645
    18 H    -0.001885  0.000518 -0.000250
    19 H     0.000132  0.001863 -0.000259
    20 H    -0.000465  0.000304 -0.001891
 ----------------------------------------
 Mulliken charges used for AMS results%charges...

 dE(predicted):    -0.15198E-02, dE(actual):    -0.93296E-03, Trust radius:    0.200000, all in a.u.
 
----------------------------------------------------------------------
Geometry Convergence after Step   2       (Hartree/Angstrom,Angstrom)
----------------------------------------------------------------------
current energy                               -4.02733407 Hartree
energy change                      -0.00093296     0.00020000    F
constrained gradient max            0.01229042     0.00100000    F
constrained gradient rms            0.00315502     0.00066667    F
gradient max                        0.01229042
gradient rms                        0.00315502
cart. step max                      0.00824877     0.01000000    T
cart. step rms                      0.00369834     0.00666667    T
 
 
--------
Geometry
--------
Formula: C7H12O
Atoms
  Index Symbol   x (angstrom)   y (angstrom)   z (angstrom)
      1      C    -2.94713997    -1.80804751    -0.85966830
      2      C    -2.02051384    -1.10132841    -0.18500081
      3      C    -1.89470541     0.35985992    -0.32277517
      4      O    -1.07326623     1.04764942     0.26593133
      5      C    -3.20733523    -3.30023029    -0.83719576
      6      C    -4.67106376    -3.52792857    -0.37932709
      7      C    -3.05078159    -3.83774377    -2.28372982
      8      C    -2.25236907    -4.06224513     0.09917940
      9      H    -3.61573782    -1.25308560    -1.52387999
     10      H    -1.31317530    -1.56849713     0.49517154
     11      H    -2.63159724     0.82570060    -1.02253825
     12      H    -5.38226088    -3.01955308    -1.03792013
     13      H    -4.83041791    -3.16087962     0.63881243
     14      H    -4.90686002    -4.59683271    -0.39500049
     15      H    -2.03324457    -3.68647795    -2.65568286
     16      H    -3.74101537    -3.34194499    -2.97344120
     17      H    -3.26554457    -4.91084185    -2.30976425
     18      H    -1.20902276    -3.94322233    -0.20640625
     19      H    -2.48365821    -5.13102139     0.07960411
     20      H    -2.34661034    -3.72148308     1.13408278
 
Total System Charge             0.00000
Bonding info available!
 
 *** GOStep3 ***

 Energy gradients wrt nuclear displacements
 ==========================================

     Atom      Cartesian (a.u./angstrom)
                 X         Y         Z
 ----------------------------------------
     1 C    -0.001056 -0.000548 -0.000544
     2 C     0.000172 -0.000296  0.000912
     3 C     0.000137  0.000570 -0.002405
     4 O     0.000155  0.001322  0.000786
     5 C    -0.001260  0.000074 -0.000791
     6 C     0.000267 -0.000571 -0.000145
     7 C    -0.000037 -0.000577  0.000029
     8 C     0.001121 -0.000440  0.001075
     9 H     0.000001 -0.000918  0.000035
    10 H    -0.000272  0.000657 -0.000508
    11 H    -0.000655 -0.000490  0.000412
    12 H     0.000381 -0.000437  0.000431
    13 H     0.000228 -0.000162 -0.000325
    14 H     0.000392  0.000531  0.000283
    15 H    -0.000375  0.000013  0.000287
    16 H     0.000350 -0.000468  0.000448
    17 H     0.000444  0.000525  0.000288
    18 H    -0.000343  0.000236  0.000129
    19 H     0.000232  0.000794  0.000036
    20 H     0.000118  0.000184 -0.000432
 ----------------------------------------
 Mulliken charges used for AMS results%charges...

 dE(predicted):    -0.12333E-03, dE(actual):    -0.18196E-03, Trust radius:    0.200000, all in a.u.
 
----------------------------------------------------------------------
Geometry Convergence after Step   3       (Hartree/Angstrom,Angstrom)
----------------------------------------------------------------------
current energy                               -4.02751603 Hartree
energy change                      -0.00018196     0.00020000    T
constrained gradient max            0.00208384     0.00100000    F
constrained gradient rms            0.00058383     0.00066667    T
gradient max                        0.00208384
gradient rms                        0.00058383
cart. step max                      0.01781903     0.01000000    F
cart. step rms                      0.00464035     0.00666667    T
 
 
--------
Geometry
--------
Formula: C7H12O
Atoms
  Index Symbol   x (angstrom)   y (angstrom)   z (angstrom)
      1      C    -2.94908698    -1.80637077    -0.85722658
      2      C    -2.02601084    -1.10013171    -0.17854202
      3      C    -1.90208508     0.36067262    -0.31416225
      4      O    -1.06782596     1.04302823     0.25886378
      5      C    -3.20750619    -3.29952343    -0.83681305
      6      C    -4.67184400    -3.53020738    -0.37833676
      7      C    -3.05130303    -3.83584117    -2.28488832
      8      C    -2.25062707    -4.06091519     0.09819316
      9      H    -3.61717567    -1.24858595    -1.52067098
     10      H    -1.32171112    -1.56817484     0.50508661
     11      H    -2.61458687     0.82525924    -1.04035729
     12      H    -5.38545313    -3.02335105    -1.03646104
     13      H    -4.83327479    -3.16526187     0.64080300
     14      H    -4.90556400    -4.60033724    -0.39543906
     15      H    -2.03340817    -3.68651343    -2.65829482
     16      H    -3.74147236    -3.33960623    -2.97530517
     17      H    -3.26770804    -4.90937869    -2.31188654
     18      H    -1.20684734    -3.93999235    -0.20719360
     19      H    -2.47885437    -5.13098930     0.07872307
     20      H    -2.34397509    -3.72193298     1.13435905
 
Total System Charge             0.00000
Bonding info available!
 
 *** GOStep4 ***

 Energy gradients wrt nuclear displacements
 ==========================================

     Atom      Cartesian (a.u./angstrom)
                 X         Y         Z
 ----------------------------------------
     1 C     0.000598  0.000031 -0.000183
     2 C     0.002125  0.000123 -0.002420
     3 C    -0.005156  0.003457  0.008651
     4 O    -0.000855 -0.002514 -0.004863
     5 C    -0.000870 -0.000165  0.000204
     6 C     0.000433 -0.000098  0.000028
     7 C     0.000273  0.000156  0.000173
     8 C     0.000543  0.000178  0.000431
     9 H    -0.000282 -0.000008 -0.000228
    10 H     0.000018  0.000057  0.000010
    11 H     0.002206 -0.000226 -0.002780
    12 H    -0.000283 -0.000295  0.000114
    13 H    -0.000175 -0.000091  0.000273
    14 H     0.000089 -0.000290  0.000254
    15 H     0.000187 -0.000115 -0.000241
    16 H    -0.000026 -0.000374 -0.000223
    17 H     0.000230 -0.000292  0.000193
    18 H     0.000340  0.000176  0.000148
    19 H     0.000324  0.000051  0.000239
    20 H     0.000280  0.000239  0.000219
 ----------------------------------------
 Mulliken charges used for AMS results%charges...

 dE(predicted):    -0.27964E-04, dE(actual):     0.83905E-04, Trust radius:    0.020000, all in a.u.
 
----------------------------------------------------------------------
Geometry Convergence after Step   4       (Hartree/Angstrom,Angstrom)
----------------------------------------------------------------------
current energy                               -4.02743212 Hartree
energy change                       0.00008390     0.00020000    T
constrained gradient max            0.00895874     0.00100000    F
constrained gradient rms            0.00167478     0.00066667    F
gradient max                        0.00895874
gradient rms                        0.00167478
cart. step max                      0.00392503     0.01000000    T
cart. step rms                      0.00121983     0.00666667    T
 
 
--------
Geometry
--------
Formula: C7H12O
Atoms
  Index Symbol   x (angstrom)   y (angstrom)   z (angstrom)
      1      C    -2.94864638    -1.80665035    -0.85819105
      2      C    -2.02504269    -1.10053057    -0.18007849
      3      C    -1.89928812     0.36005825    -0.31717648
      4      O    -1.06980879     1.04464691     0.26256998
      5      C    -3.20731709    -3.29959116    -0.83703666
      6      C    -4.67142034    -3.52958504    -0.37842887
      7      C    -3.05146452    -3.83662369    -2.28456274
      8      C    -2.25094946    -4.06098989     0.09798443
      9      H    -3.61653164    -1.24926461    -1.52196380
     10      H    -1.32099176    -1.56839788     0.50368955
     11      H    -2.61832132     0.82538824    -1.03643226
     12      H    -5.38444493    -3.02263838    -1.03690044
     13      H    -4.83214584    -3.16397571     0.64044605
     14      H    -4.90535109    -4.59956435    -0.39504588
     15      H    -2.03351463    -3.68753948    -2.65755163
     16      H    -3.74152838    -3.34016303    -2.97471857
     17      H    -3.26819046    -4.90999652    -2.31110894
     18      H    -1.20732696    -3.94040179    -0.20770180
     19      H    -2.47970108    -5.13087292     0.07879179
     20      H    -2.34433460    -3.72146151     1.13386702
 
Total System Charge             0.00000
Bonding info available!
 
 *** GOStep5 ***

 Energy gradients wrt nuclear displacements
 ==========================================

     Atom      Cartesian (a.u./angstrom)
                 X         Y         Z
 ----------------------------------------
     1 C     0.000317  0.000020 -0.000114
     2 C     0.001062 -0.000226 -0.001561
     3 C    -0.004108  0.001407  0.004304
     4 O     0.000493 -0.000304 -0.002244
     5 C    -0.000652 -0.000112  0.000006
     6 C     0.000394 -0.000106  0.000036
     7 C     0.000217 -0.000020  0.000186
     8 C     0.000479  0.000107  0.000381
     9 H    -0.000267 -0.000119 -0.000097
    10 H    -0.000101  0.000217 -0.000074
    11 H     0.001067 -0.000187 -0.001881
    12 H    -0.000099 -0.000326  0.000134
    13 H    -0.000041 -0.000111  0.000152
    14 H     0.000177 -0.000189  0.000241
    15 H     0.000085 -0.000089 -0.000064
    16 H     0.000010 -0.000375 -0.000028
    17 H     0.000250 -0.000192  0.000200
    18 H     0.000191  0.000210  0.000107
    19 H     0.000311  0.000138  0.000223
    20 H     0.000213  0.000255  0.000093
 ----------------------------------------
 Mulliken charges used for AMS results%charges...

 dE(predicted):    -0.60831E-04, dE(actual):    -0.57513E-04, Trust radius:    0.040000, all in a.u.
 
----------------------------------------------------------------------
Geometry Convergence after Step   5       (Hartree/Angstrom,Angstrom)
----------------------------------------------------------------------
current energy                               -4.02748964 Hartree
energy change                      -0.00005751     0.00020000    T
constrained gradient max            0.00462008     0.00100000    F
constrained gradient rms            0.00092163     0.00066667    F
gradient max                        0.00462008
gradient rms                        0.00092163
cart. step max                      0.01331015     0.01000000    F
cart. step rms                      0.00336741     0.00666667    T
 
 
--------
Geometry
--------
Formula: C7H12O
Atoms
  Index Symbol   x (angstrom)   y (angstrom)   z (angstrom)
      1      C    -2.94605665    -1.80693214    -0.86158063
      2      C    -2.02167661    -1.10080046    -0.18445461
      3      C    -1.89731697     0.35984981    -0.31947926
      4      O    -1.07504219     1.04593663     0.26905719
      5      C    -3.20622645    -3.29954098    -0.83771182
      6      C    -4.67057026    -3.52722121    -0.37876494
      7      C    -3.05177119    -3.83927951    -2.28420397
      8      C    -2.25141607    -4.06124228     0.09797100
      9      H    -3.61285830    -1.24994633    -1.52672154
     10      H    -1.31578961    -1.56882115     0.49720276
     11      H    -2.63000004     0.82783092    -1.02312212
     12      H    -5.38259414    -3.02060296    -1.03849554
     13      H    -4.83048471    -3.15937254     0.63936649
     14      H    -4.90555346    -4.59702042    -0.39342651
     15      H    -2.03331413    -3.69332289    -2.65692931
     16      H    -3.74056204    -3.34187346    -2.97489021
     17      H    -3.27132831    -4.91213572    -2.30898137
     18      H    -1.20762778    -3.94223333    -0.20775276
     19      H    -2.48154077    -5.13087104     0.07987516
     20      H    -2.34459041    -3.72055442     1.13349318
 
Total System Charge             0.00000
Bonding info available!
 
 *** GOStep6 ***

 Energy gradients wrt nuclear displacements
 ==========================================

     Atom      Cartesian (a.u./angstrom)
                 X         Y         Z
 ----------------------------------------
     1 C     0.000015  0.000065 -0.000162
     2 C    -0.000134  0.000164 -0.000201
     3 C    -0.000452  0.000205 -0.000228
     4 O    -0.000471  0.000249 -0.000436
     5 C    -0.000209  0.000022  0.000189
     6 C     0.000322 -0.000178  0.000048
     7 C     0.000152 -0.000067  0.000208
     8 C     0.000198  0.000051  0.000167
     9 H    -0.000108 -0.000126 -0.000232
    10 H    -0.000040  0.000304 -0.000247
    11 H    -0.000442  0.000035 -0.000301
    12 H     0.000013 -0.000322  0.000083
    13 H     0.000081 -0.000111  0.000109
    14 H     0.000189 -0.000244  0.000234
    15 H     0.000069 -0.000074  0.000070
    16 H    -0.000017 -0.000336  0.000077
    17 H     0.000226 -0.000235  0.000229
    18 H     0.000141  0.000254  0.000057
    19 H     0.000310  0.000093  0.000256
    20 H     0.000156  0.000250  0.000079
 ----------------------------------------
 Mulliken charges used for AMS results%charges...

 dE(predicted):    -0.32467E-04, dE(actual):    -0.37475E-04, Trust radius:    0.080000, all in a.u.
 
---------------------------------------------------------
Geometry Convergence after Step   6       ** CONVERGED **
---------------------------------------------------------
current energy                               -4.02752711 Hartree
energy change                      -0.00003747     0.00020000    T
constrained gradient max            0.00027912     0.00100000    T
constrained gradient rms            0.00006982     0.00066667    T
gradient max                        0.00027912
gradient rms                        0.00006982
cart. step max                      0.00906256     0.01000000    T
cart. step rms                      0.00261944     0.00666667    T
 
Geometry optimization converged

Optimized geometry:
 
--------
Geometry
--------
Formula: C7H12O
Atoms
  Index Symbol   x (angstrom)   y (angstrom)   z (angstrom)
      1      C    -2.94605665    -1.80693214    -0.86158063
      2      C    -2.02167661    -1.10080046    -0.18445461
      3      C    -1.89731697     0.35984981    -0.31947926
      4      O    -1.07504219     1.04593663     0.26905719
      5      C    -3.20622645    -3.29954098    -0.83771182
      6      C    -4.67057026    -3.52722121    -0.37876494
      7      C    -3.05177119    -3.83927951    -2.28420397
      8      C    -2.25141607    -4.06124228     0.09797100
      9      H    -3.61285830    -1.24994633    -1.52672154
     10      H    -1.31578961    -1.56882115     0.49720276
     11      H    -2.63000004     0.82783092    -1.02312212
     12      H    -5.38259414    -3.02060296    -1.03849554
     13      H    -4.83048471    -3.15937254     0.63936649
     14      H    -4.90555346    -4.59702042    -0.39342651
     15      H    -2.03331413    -3.69332289    -2.65692931
     16      H    -3.74056204    -3.34187346    -2.97489021
     17      H    -3.27132831    -4.91213572    -2.30898137
     18      H    -1.20762778    -3.94223333    -0.20775276
     19      H    -2.48154077    -5.13087104     0.07987516
     20      H    -2.34459041    -3.72055442     1.13349318
 
Total System Charge             0.00000
Bonding info available!
 
Performing a single point calculation on the final geometry ...

 *** adf ***



 ===========================
 A T T A C H E D   F I L E S
 ===========================
  
 RestartZ:/SCMTMP/amstmp_ams_kid0.1261911057/GOStep6.rkf*** GOStep6 ***



 ===============================
 M O D E L   P A R A M E T E R S
 ===============================
  
 DENSITY FUNCTIONAL POTENTIAL (scf)
    LDA:                               Exchange only                           == Not Default ==
    Gradient Corrections:              OPTX LYP                                == Not Default ==

 SPIN  (restricted / unrestr.)
    Molecule:                          Restricted                               
    Fragments:                         Restricted                               

 OTHER ASPECTS
    Relativistic Corrections:          scalar (ZORA,MAPA)                       

    Nuclear Charge Density Model:      Point Charge Nuclei                      
    Core Treatment:                    Frozen Orbital(s)                        

    Hyperfine or Zeeman Interaction:   ---                                      



 ===============
 G E O M E T R Y  ***  3D  Molecule  ***
 ===============
  

 ATOMS
 =====                            X Y Z                    CHARGE
                                (Angstrom)             Nucl     +Core       At.Mass
                       --------------------------    ----------------       -------
    1  C              -2.9461   -1.8069   -0.8616      6.00      6.00       12.0000
    2  C              -2.0217   -1.1008   -0.1845      6.00      6.00       12.0000
    3  C              -1.8973    0.3598   -0.3195      6.00      6.00       12.0000
    4  O              -1.0750    1.0459    0.2691      8.00      8.00       15.9949
    5  C              -3.2062   -3.2995   -0.8377      6.00      6.00       12.0000
    6  C              -4.6706   -3.5272   -0.3788      6.00      6.00       12.0000
    7  C              -3.0518   -3.8393   -2.2842      6.00      6.00       12.0000
    8  C              -2.2514   -4.0612    0.0980      6.00      6.00       12.0000
    9  H              -3.6129   -1.2499   -1.5267      1.00      1.00        1.0078
   10  H              -1.3158   -1.5688    0.4972      1.00      1.00        1.0078
   11  H              -2.6300    0.8278   -1.0231      1.00      1.00        1.0078
   12  H              -5.3826   -3.0206   -1.0385      1.00      1.00        1.0078
   13  H              -4.8305   -3.1594    0.6394      1.00      1.00        1.0078
   14  H              -4.9056   -4.5970   -0.3934      1.00      1.00        1.0078
   15  H              -2.0333   -3.6933   -2.6569      1.00      1.00        1.0078
   16  H              -3.7406   -3.3419   -2.9749      1.00      1.00        1.0078
   17  H              -3.2713   -4.9121   -2.3090      1.00      1.00        1.0078
   18  H              -1.2076   -3.9422   -0.2078      1.00      1.00        1.0078
   19  H              -2.4815   -5.1309    0.0799      1.00      1.00        1.0078
   20  H              -2.3446   -3.7206    1.1335      1.00      1.00        1.0078


 FRAGMENTS
 =========                                     Atoms in this Fragment     Cart. coord.s (Angstrom)
                                               -------------------------------------------------------
    1  C                                                 1  C           -2.9461   -1.8069   -0.8616
    2  C                                                 2  C           -2.0217   -1.1008   -0.1845
    3  C                                                 3  C           -1.8973    0.3598   -0.3195
    4  C                                                 5  C           -3.2062   -3.2995   -0.8377
    5  C                                                 6  C           -4.6706   -3.5272   -0.3788
    6  C                                                 7  C           -3.0518   -3.8393   -2.2842
    7  C                                                 8  C           -2.2514   -4.0612    0.0980
    8  O                                                 4  O           -1.0750    1.0459    0.2691
    9  H                                                 9  H           -3.6129   -1.2499   -1.5267
   10  H                                                10  H           -1.3158   -1.5688    0.4972
   11  H                                                11  H           -2.6300    0.8278   -1.0231
   12  H                                                12  H           -5.3826   -3.0206   -1.0385
   13  H                                                13  H           -4.8305   -3.1594    0.6394
   14  H                                                14  H           -4.9056   -4.5970   -0.3934
   15  H                                                15  H           -2.0333   -3.6933   -2.6569
   16  H                                                16  H           -3.7406   -3.3419   -2.9749
   17  H                                                17  H           -3.2713   -4.9121   -2.3090
   18  H                                                18  H           -1.2076   -3.9422   -0.2078
   19  H                                                19  H           -2.4815   -5.1309    0.0799
   20  H                                                20  H           -2.3446   -3.7206    1.1335



 =====================================
 S Y M M E T R Y ,   E L E C T R O N S
 =====================================
  
 Symmetry: NOSYM

 Irreducible Representations, including subspecies
 -------------------------------------------------
 A


 Configuration of Valence Electrons
 ==================================
 ( determined in the SCF procedure )

 Total:   62

 Net Charge: 0 (Nuclei minus Electrons)

 Aufbau principle for MO occupations will be applied through SCF cycle no.     150
 Thereafter, the program will assign electrons to MOs that are spatially
 similar to the occupied MOs in a "reference" cycle ("KeepOrbitals").
 The reference cycle is always the PREVIOUS cycle: it will evolve with
 the SCF procedure.
1
 ***************************************************************************************************



                                      ****************************************
                                      *  B U I L D : (Fragments, Functions)  *
                                      ****************************************
  



 =======
 S F O s  ***  (Symmetrized Fragment Orbitals)  ***
 =======
  
 SFOs are linear combinations of (valence) Fragment Orbitals (FOs), such that the SFOs transform as the
 irreducible representations of the (molecular) symmetry group. Each SFO is therefore characterized by
 an irrep of the molecule and by a few (or only one) generating FOs.
 The SFOs constitute a symmetry-adapted basis for the Fock matrix. The MO eigenvector coefficients in
 this basis provide a direct interpretation of the MOs in terms of Frontier Orbital Theory.

 The SFOs are combined with auxiliary Core Functions (CFs) to ensure orthogonalization on the (frozen)
 Core Orbitals (COs). The Core-orthogonalized SFOs (CSFOs) constitute the true Fock basis.

 The FOs, and hence also the (C)SFOs are combinations of the elementary basis functions (BAS). The basis
 functions that participate in the description of the SFOs depend on the irrep. The indices of the
 involved functions are printed below for each irrep.
 (The complete list of primitive basis functions is printed in another section)

 Total nr. of (C)SFOs (summation over all irreps) :   340

 NOTE: a (C)SFO that is defined as a combination of more than one FO is usually NOT normalized.



                                       === A ===
 Nr. of SFOs :  340
 Cartesian basis functions that participate in this irrep (total number =   384) :
      1     2     3     4     5     6     9    12     7    10
     13     8    11    14    15    16    17    18    19    20
     21    22    23    24    25    26    27    28    29    30
     31    32    33    34    35    36    39    42    37    40
     43    38    41    44    45    46    47    48    49    50
     51    52    53    54    55    56    57    58    59    60
     61    62    63    64    65    66    69    72    67    70
     73    68    71    74    75    76    77    78    79    80
     81    82    83    84    85    86    87    88    89    90
     91    92    93    94    95    96    99   102    97   100
    103    98   101   104   105   106   107   108   109   110
    111   112   113   114   115   116   117   118   119   120
    121   122   123   124   125   126   129   132   127   130
    133   128   131   134   135   136   137   138   139   140
    141   142   143   144   145   146   147   148   149   150
    151   152   153   154   155   156   159   162   157   160
    163   158   161   164   165   166   167   168   169   170
    171   172   173   174   175   176   177   178   179   180
    181   182   183   184   185   186   189   192   187   190
    193   188   191   194   195   196   197   198   199   200
    201   202   203   204   205   206   207   208   209   210
    211   212   213   214   215   216   219   222   217   220
    223   218   221   224   225   226   227   228   229   230
    231   232   233   234   235   236   237   238   239   240
    241   242   243   244   245   246   247   248   249   250
    251   252   253   254   255   256   257   258   259   260
    261   262   263   264   265   266   267   268   269   270
    271   272   273   274   275   276   277   278   279   280
    281   282   283   284   285   286   287   288   289   290
    291   292   293   294   295   296   297   298   299   300
    301   302   303   304   305   306   307   308   309   310
    311   312   313   314   315   316   317   318   319   320
    321   322   323   324   325   326   327   328   329   330
    331   332   333   334   335   336   337   338   339   340
    341   342   343   344   345   346   347   348   349   350
    351   352   353   354   355   356   357   358   359   360
    361   362   363   364   365   366   367   368   369   370
    371   372   373   374   375   376   377   378   379   380
    381   382   383   384

    SFO  (index         Fragment          Generating    Expansion in Fragment Orbitals
  indx  incl.CFs)   Occup   Orb.Energy   FragmentType  Coeff.   Orbital     on Fragment
 --------------------------------------------------------------------------------------
     1       1      2.000     -10.064 au  C             1.00      1 S               1
                        (    -273.865 eV)
     2       2      2.000      -0.507 au  C             1.00      2 S               1
                        (     -13.802 eV)
     3       3       --         0.384 au  C             1.00      3 S               1
                        (      10.456 eV)
     4       4       --         5.458 au  C             1.00      4 S               1
                        (     148.511 eV)
     5       5       --        49.970 au  C             1.00      5 S               1
                        (    1359.766 eV)
     6       6      0.667      -0.189 au  C             1.00      1 P:x             1
                        (      -5.135 eV)
     7       7       --         0.168 au  C             1.00      2 P:x             1
                        (       4.559 eV)
     8       8       --         2.056 au  C             1.00      3 P:x             1
                        (      55.959 eV)
     9       9      0.667      -0.189 au  C             1.00      1 P:y             1
                        (      -5.135 eV)
    10      10       --         0.168 au  C             1.00      2 P:y             1
                        (       4.559 eV)
    11      11       --         2.056 au  C             1.00      3 P:y             1
                        (      55.959 eV)
    12      12      0.667      -0.189 au  C             1.00      1 P:z             1
                        (      -5.135 eV)
    13      13       --         0.168 au  C             1.00      2 P:z             1
                        (       4.559 eV)
    14      14       --         2.056 au  C             1.00      3 P:z             1
                        (      55.959 eV)
    15      15       --         1.235 au  C             1.00      1 D:z2            1
                        (      33.605 eV)
    16      16       --         1.235 au  C             1.00      1 D:x2-y2         1
                        (      33.605 eV)
    17      17       --         1.235 au  C             1.00      1 D:xy            1
                        (      33.605 eV)
    18      18       --         1.235 au  C             1.00      1 D:xz            1
                        (      33.605 eV)
    19      19       --         1.235 au  C             1.00      1 D:yz            1
                        (      33.605 eV)
    20      20       --         4.005 au  C             1.00      1 F:z3            1
                        (     108.969 eV)
    21      21       --         4.005 au  C             1.00      1 F:z             1
                        (     108.969 eV)
    22      22       --         4.005 au  C             1.00      1 F:xyz           1
                        (     108.969 eV)
    23      23       --         4.005 au  C             1.00      1 F:z2x           1
                        (     108.969 eV)
    24      24       --         4.005 au  C             1.00      1 F:z2y           1
                        (     108.969 eV)
    25      25       --         4.005 au  C             1.00      1 F:x             1
                        (     108.969 eV)
    26      26       --         4.005 au  C             1.00      1 F:y             1
                        (     108.969 eV)
    27      27      2.000     -10.064 au  C             1.00      1 S               2
                        (    -273.865 eV)
    28      28      2.000      -0.507 au  C             1.00      2 S               2
                        (     -13.802 eV)
    29      29       --         0.384 au  C             1.00      3 S               2
                        (      10.456 eV)
    30      30       --         5.458 au  C             1.00      4 S               2
                        (     148.511 eV)
    31      31       --        49.970 au  C             1.00      5 S               2
                        (    1359.766 eV)
    32      32      0.667      -0.189 au  C             1.00      1 P:x             2
                        (      -5.135 eV)
    33      33       --         0.168 au  C             1.00      2 P:x             2
                        (       4.559 eV)
    34      34       --         2.056 au  C             1.00      3 P:x             2
                        (      55.959 eV)
    35      35      0.667      -0.189 au  C             1.00      1 P:y             2
                        (      -5.135 eV)
    36      36       --         0.168 au  C             1.00      2 P:y             2
                        (       4.559 eV)
    37      37       --         2.056 au  C             1.00      3 P:y             2
                        (      55.959 eV)
    38      38      0.667      -0.189 au  C             1.00      1 P:z             2
                        (      -5.135 eV)
    39      39       --         0.168 au  C             1.00      2 P:z             2
                        (       4.559 eV)
    40      40       --         2.056 au  C             1.00      3 P:z             2
                        (      55.959 eV)
    41      41       --         1.235 au  C             1.00      1 D:z2            2
                        (      33.605 eV)
    42      42       --         1.235 au  C             1.00      1 D:x2-y2         2
                        (      33.605 eV)
    43      43       --         1.235 au  C             1.00      1 D:xy            2
                        (      33.605 eV)
    44      44       --         1.235 au  C             1.00      1 D:xz            2
                        (      33.605 eV)
    45      45       --         1.235 au  C             1.00      1 D:yz            2
                        (      33.605 eV)
    46      46       --         4.005 au  C             1.00      1 F:z3            2
                        (     108.969 eV)
    47      47       --         4.005 au  C             1.00      1 F:z             2
                        (     108.969 eV)
    48      48       --         4.005 au  C             1.00      1 F:xyz           2
                        (     108.969 eV)
    49      49       --         4.005 au  C             1.00      1 F:z2x           2
                        (     108.969 eV)
    50      50       --         4.005 au  C             1.00      1 F:z2y           2
                        (     108.969 eV)
    51      51       --         4.005 au  C             1.00      1 F:x             2
                        (     108.969 eV)
    52      52       --         4.005 au  C             1.00      1 F:y             2
                        (     108.969 eV)
    53      53      2.000     -10.064 au  C             1.00      1 S               3
                        (    -273.865 eV)
    54      54      2.000      -0.507 au  C             1.00      2 S               3
                        (     -13.802 eV)
    55      55       --         0.384 au  C             1.00      3 S               3
                        (      10.456 eV)
    56      56       --         5.458 au  C             1.00      4 S               3
                        (     148.511 eV)
    57      57       --        49.970 au  C             1.00      5 S               3
                        (    1359.766 eV)
    58      58      0.667      -0.189 au  C             1.00      1 P:x             3
                        (      -5.135 eV)
    59      59       --         0.168 au  C             1.00      2 P:x             3
                        (       4.559 eV)
    60      60       --         2.056 au  C             1.00      3 P:x             3
                        (      55.959 eV)
    61      61      0.667      -0.189 au  C             1.00      1 P:y             3
                        (      -5.135 eV)
    62      62       --         0.168 au  C             1.00      2 P:y             3
                        (       4.559 eV)
    63      63       --         2.056 au  C             1.00      3 P:y             3
                        (      55.959 eV)
    64      64      0.667      -0.189 au  C             1.00      1 P:z             3
                        (      -5.135 eV)
    65      65       --         0.168 au  C             1.00      2 P:z             3
                        (       4.559 eV)
    66      66       --         2.056 au  C             1.00      3 P:z             3
                        (      55.959 eV)
    67      67       --         1.235 au  C             1.00      1 D:z2            3
                        (      33.605 eV)
    68      68       --         1.235 au  C             1.00      1 D:x2-y2         3
                        (      33.605 eV)
    69      69       --         1.235 au  C             1.00      1 D:xy            3
                        (      33.605 eV)
    70      70       --         1.235 au  C             1.00      1 D:xz            3
                        (      33.605 eV)
    71      71       --         1.235 au  C             1.00      1 D:yz            3
                        (      33.605 eV)
    72      72       --         4.005 au  C             1.00      1 F:z3            3
                        (     108.969 eV)
    73      73       --         4.005 au  C             1.00      1 F:z             3
                        (     108.969 eV)
    74      74       --         4.005 au  C             1.00      1 F:xyz           3
                        (     108.969 eV)
    75      75       --         4.005 au  C             1.00      1 F:z2x           3
                        (     108.969 eV)
    76      76       --         4.005 au  C             1.00      1 F:z2y           3
                        (     108.969 eV)
    77      77       --         4.005 au  C             1.00      1 F:x             3
                        (     108.969 eV)
    78      78       --         4.005 au  C             1.00      1 F:y             3
                        (     108.969 eV)
    79      79      2.000     -10.064 au  C             1.00      1 S               4
                        (    -273.865 eV)
    80      80      2.000      -0.507 au  C             1.00      2 S               4
                        (     -13.802 eV)
    81      81       --         0.384 au  C             1.00      3 S               4
                        (      10.456 eV)
    82      82       --         5.458 au  C             1.00      4 S               4
                        (     148.511 eV)
    83      83       --        49.970 au  C             1.00      5 S               4
                        (    1359.766 eV)
    84      84      0.667      -0.189 au  C             1.00      1 P:x             4
                        (      -5.135 eV)
    85      85       --         0.168 au  C             1.00      2 P:x             4
                        (       4.559 eV)
    86      86       --         2.056 au  C             1.00      3 P:x             4
                        (      55.959 eV)
    87      87      0.667      -0.189 au  C             1.00      1 P:y             4
                        (      -5.135 eV)
    88      88       --         0.168 au  C             1.00      2 P:y             4
                        (       4.559 eV)
    89      89       --         2.056 au  C             1.00      3 P:y             4
                        (      55.959 eV)
    90      90      0.667      -0.189 au  C             1.00      1 P:z             4
                        (      -5.135 eV)
    91      91       --         0.168 au  C             1.00      2 P:z             4
                        (       4.559 eV)
    92      92       --         2.056 au  C             1.00      3 P:z             4
                        (      55.959 eV)
    93      93       --         1.235 au  C             1.00      1 D:z2            4
                        (      33.605 eV)
    94      94       --         1.235 au  C             1.00      1 D:x2-y2         4
                        (      33.605 eV)
    95      95       --         1.235 au  C             1.00      1 D:xy            4
                        (      33.605 eV)
    96      96       --         1.235 au  C             1.00      1 D:xz            4
                        (      33.605 eV)
    97      97       --         1.235 au  C             1.00      1 D:yz            4
                        (      33.605 eV)
    98      98       --         4.005 au  C             1.00      1 F:z3            4
                        (     108.969 eV)
    99      99       --         4.005 au  C             1.00      1 F:z             4
                        (     108.969 eV)
   100     100       --         4.005 au  C             1.00      1 F:xyz           4
                        (     108.969 eV)
   101     101       --         4.005 au  C             1.00      1 F:z2x           4
                        (     108.969 eV)
   102     102       --         4.005 au  C             1.00      1 F:z2y           4
                        (     108.969 eV)
   103     103       --         4.005 au  C             1.00      1 F:x             4
                        (     108.969 eV)
   104     104       --         4.005 au  C             1.00      1 F:y             4
                        (     108.969 eV)
   105     105      2.000     -10.064 au  C             1.00      1 S               5
                        (    -273.865 eV)
   106     106      2.000      -0.507 au  C             1.00      2 S               5
                        (     -13.802 eV)
   107     107       --         0.384 au  C             1.00      3 S               5
                        (      10.456 eV)
   108     108       --         5.458 au  C             1.00      4 S               5
                        (     148.511 eV)
   109     109       --        49.970 au  C             1.00      5 S               5
                        (    1359.766 eV)
   110     110      0.667      -0.189 au  C             1.00      1 P:x             5
                        (      -5.135 eV)
   111     111       --         0.168 au  C             1.00      2 P:x             5
                        (       4.559 eV)
   112     112       --         2.056 au  C             1.00      3 P:x             5
                        (      55.959 eV)
   113     113      0.667      -0.189 au  C             1.00      1 P:y             5
                        (      -5.135 eV)
   114     114       --         0.168 au  C             1.00      2 P:y             5
                        (       4.559 eV)
   115     115       --         2.056 au  C             1.00      3 P:y             5
                        (      55.959 eV)
   116     116      0.667      -0.189 au  C             1.00      1 P:z             5
                        (      -5.135 eV)
   117     117       --         0.168 au  C             1.00      2 P:z             5
                        (       4.559 eV)
   118     118       --         2.056 au  C             1.00      3 P:z             5
                        (      55.959 eV)
   119     119       --         1.235 au  C             1.00      1 D:z2            5
                        (      33.605 eV)
   120     120       --         1.235 au  C             1.00      1 D:x2-y2         5
                        (      33.605 eV)
   121     121       --         1.235 au  C             1.00      1 D:xy            5
                        (      33.605 eV)
   122     122       --         1.235 au  C             1.00      1 D:xz            5
                        (      33.605 eV)
   123     123       --         1.235 au  C             1.00      1 D:yz            5
                        (      33.605 eV)
   124     124       --         4.005 au  C             1.00      1 F:z3            5
                        (     108.969 eV)
   125     125       --         4.005 au  C             1.00      1 F:z             5
                        (     108.969 eV)
   126     126       --         4.005 au  C             1.00      1 F:xyz           5
                        (     108.969 eV)
   127     127       --         4.005 au  C             1.00      1 F:z2x           5
                        (     108.969 eV)
   128     128       --         4.005 au  C             1.00      1 F:z2y           5
                        (     108.969 eV)
   129     129       --         4.005 au  C             1.00      1 F:x             5
                        (     108.969 eV)
   130     130       --         4.005 au  C             1.00      1 F:y             5
                        (     108.969 eV)
   131     131      2.000     -10.064 au  C             1.00      1 S               6
                        (    -273.865 eV)
   132     132      2.000      -0.507 au  C             1.00      2 S               6
                        (     -13.802 eV)
   133     133       --         0.384 au  C             1.00      3 S               6
                        (      10.456 eV)
   134     134       --         5.458 au  C             1.00      4 S               6
                        (     148.511 eV)
   135     135       --        49.970 au  C             1.00      5 S               6
                        (    1359.766 eV)
   136     136      0.667      -0.189 au  C             1.00      1 P:x             6
                        (      -5.135 eV)
   137     137       --         0.168 au  C             1.00      2 P:x             6
                        (       4.559 eV)
   138     138       --         2.056 au  C             1.00      3 P:x             6
                        (      55.959 eV)
   139     139      0.667      -0.189 au  C             1.00      1 P:y             6
                        (      -5.135 eV)
   140     140       --         0.168 au  C             1.00      2 P:y             6
                        (       4.559 eV)
   141     141       --         2.056 au  C             1.00      3 P:y             6
                        (      55.959 eV)
   142     142      0.667      -0.189 au  C             1.00      1 P:z             6
                        (      -5.135 eV)
   143     143       --         0.168 au  C             1.00      2 P:z             6
                        (       4.559 eV)
   144     144       --         2.056 au  C             1.00      3 P:z             6
                        (      55.959 eV)
   145     145       --         1.235 au  C             1.00      1 D:z2            6
                        (      33.605 eV)
   146     146       --         1.235 au  C             1.00      1 D:x2-y2         6
                        (      33.605 eV)
   147     147       --         1.235 au  C             1.00      1 D:xy            6
                        (      33.605 eV)
   148     148       --         1.235 au  C             1.00      1 D:xz            6
                        (      33.605 eV)
   149     149       --         1.235 au  C             1.00      1 D:yz            6
                        (      33.605 eV)
   150     150       --         4.005 au  C             1.00      1 F:z3            6
                        (     108.969 eV)
   151     151       --         4.005 au  C             1.00      1 F:z             6
                        (     108.969 eV)
   152     152       --         4.005 au  C             1.00      1 F:xyz           6
                        (     108.969 eV)
   153     153       --         4.005 au  C             1.00      1 F:z2x           6
                        (     108.969 eV)
   154     154       --         4.005 au  C             1.00      1 F:z2y           6
                        (     108.969 eV)
   155     155       --         4.005 au  C             1.00      1 F:x             6
                        (     108.969 eV)
   156     156       --         4.005 au  C             1.00      1 F:y             6
                        (     108.969 eV)
   157     157      2.000     -10.064 au  C             1.00      1 S               7
                        (    -273.865 eV)
   158     158      2.000      -0.507 au  C             1.00      2 S               7
                        (     -13.802 eV)
   159     159       --         0.384 au  C             1.00      3 S               7
                        (      10.456 eV)
   160     160       --         5.458 au  C             1.00      4 S               7
                        (     148.511 eV)
   161     161       --        49.970 au  C             1.00      5 S               7
                        (    1359.766 eV)
   162     162      0.667      -0.189 au  C             1.00      1 P:x             7
                        (      -5.135 eV)
   163     163       --         0.168 au  C             1.00      2 P:x             7
                        (       4.559 eV)
   164     164       --         2.056 au  C             1.00      3 P:x             7
                        (      55.959 eV)
   165     165      0.667      -0.189 au  C             1.00      1 P:y             7
                        (      -5.135 eV)
   166     166       --         0.168 au  C             1.00      2 P:y             7
                        (       4.559 eV)
   167     167       --         2.056 au  C             1.00      3 P:y             7
                        (      55.959 eV)
   168     168      0.667      -0.189 au  C             1.00      1 P:z             7
                        (      -5.135 eV)
   169     169       --         0.168 au  C             1.00      2 P:z             7
                        (       4.559 eV)
   170     170       --         2.056 au  C             1.00      3 P:z             7
                        (      55.959 eV)
   171     171       --         1.235 au  C             1.00      1 D:z2            7
                        (      33.605 eV)
   172     172       --         1.235 au  C             1.00      1 D:x2-y2         7
                        (      33.605 eV)
   173     173       --         1.235 au  C             1.00      1 D:xy            7
                        (      33.605 eV)
   174     174       --         1.235 au  C             1.00      1 D:xz            7
                        (      33.605 eV)
   175     175       --         1.235 au  C             1.00      1 D:yz            7
                        (      33.605 eV)
   176     176       --         4.005 au  C             1.00      1 F:z3            7
                        (     108.969 eV)
   177     177       --         4.005 au  C             1.00      1 F:z             7
                        (     108.969 eV)
   178     178       --         4.005 au  C             1.00      1 F:xyz           7
                        (     108.969 eV)
   179     179       --         4.005 au  C             1.00      1 F:z2x           7
                        (     108.969 eV)
   180     180       --         4.005 au  C             1.00      1 F:z2y           7
                        (     108.969 eV)
   181     181       --         4.005 au  C             1.00      1 F:x             7
                        (     108.969 eV)
   182     182       --         4.005 au  C             1.00      1 F:y             7
                        (     108.969 eV)
   183     183      2.000     -18.926 au  O             1.00      1 S               8
                        (    -515.001 eV)
   184     184      2.000      -0.887 au  O             1.00      2 S               8
                        (     -24.136 eV)
   185     185       --         0.804 au  O             1.00      3 S               8
                        (      21.890 eV)
   186     186       --        13.488 au  O             1.00      4 S               8
                        (     367.032 eV)
   187     187       --       121.767 au  O             1.00      5 S               8
                        (    3313.451 eV)
   188     188      1.333      -0.329 au  O             1.00      1 P:x             8
                        (      -8.949 eV)
   189     189       --         0.351 au  O             1.00      2 P:x             8
                        (       9.557 eV)
   190     190       --         3.863 au  O             1.00      3 P:x             8
                        (     105.120 eV)
   191     191      1.333      -0.329 au  O             1.00      1 P:y             8
                        (      -8.949 eV)
   192     192       --         0.351 au  O             1.00      2 P:y             8
                        (       9.557 eV)
   193     193       --         3.863 au  O             1.00      3 P:y             8
                        (     105.120 eV)
   194     194      1.333      -0.329 au  O             1.00      1 P:z             8
                        (      -8.949 eV)
   195     195       --         0.351 au  O             1.00      2 P:z             8
                        (       9.557 eV)
   196     196       --         3.863 au  O             1.00      3 P:z             8
                        (     105.120 eV)
   197     197       --         1.072 au  O             1.00      1 D:z2            8
                        (      29.175 eV)
   198     198       --         1.072 au  O             1.00      1 D:x2-y2         8
                        (      29.175 eV)
   199     199       --         1.072 au  O             1.00      1 D:xy            8
                        (      29.175 eV)
   200     200       --         1.072 au  O             1.00      1 D:xz            8
                        (      29.175 eV)
   201     201       --         1.072 au  O             1.00      1 D:yz            8
                        (      29.175 eV)
   202     202       --         3.353 au  O             1.00      1 F:z3            8
                        (      91.230 eV)
   203     203       --         3.353 au  O             1.00      1 F:z             8
                        (      91.230 eV)
   204     204       --         3.353 au  O             1.00      1 F:xyz           8
                        (      91.230 eV)
   205     205       --         3.353 au  O             1.00      1 F:z2x           8
                        (      91.230 eV)
   206     206       --         3.353 au  O             1.00      1 F:z2y           8
                        (      91.230 eV)
   207     207       --         3.353 au  O             1.00      1 F:x             8
                        (      91.230 eV)
   208     208       --         3.353 au  O             1.00      1 F:y             8
                        (      91.230 eV)
   209     209      1.000      -0.238 au  H             1.00      1 S               9
                        (      -6.484 eV)
   210     210       --         0.077 au  H             1.00      2 S               9
                        (       2.096 eV)
   211     211       --         1.521 au  H             1.00      3 S               9
                        (      41.380 eV)
   212     212       --         0.410 au  H             1.00      1 P:x             9
                        (      11.162 eV)
   213     213       --         0.410 au  H             1.00      1 P:y             9
                        (      11.162 eV)
   214     214       --         0.410 au  H             1.00      1 P:z             9
                        (      11.162 eV)
   215     215       --         2.567 au  H             1.00      1 D:z2            9
                        (      69.838 eV)
   216     216       --         2.567 au  H             1.00      1 D:x2-y2         9
                        (      69.838 eV)
   217     217       --         2.567 au  H             1.00      1 D:xy            9
                        (      69.838 eV)
   218     218       --         2.567 au  H             1.00      1 D:xz            9
                        (      69.838 eV)
   219     219       --         2.567 au  H             1.00      1 D:yz            9
                        (      69.838 eV)
   220     220      1.000      -0.238 au  H             1.00      1 S              10
                        (      -6.484 eV)
   221     221       --         0.077 au  H             1.00      2 S              10
                        (       2.096 eV)
   222     222       --         1.521 au  H             1.00      3 S              10
                        (      41.380 eV)
   223     223       --         0.410 au  H             1.00      1 P:x            10
                        (      11.162 eV)
   224     224       --         0.410 au  H             1.00      1 P:y            10
                        (      11.162 eV)
   225     225       --         0.410 au  H             1.00      1 P:z            10
                        (      11.162 eV)
   226     226       --         2.567 au  H             1.00      1 D:z2           10
                        (      69.838 eV)
   227     227       --         2.567 au  H             1.00      1 D:x2-y2        10
                        (      69.838 eV)
   228     228       --         2.567 au  H             1.00      1 D:xy           10
                        (      69.838 eV)
   229     229       --         2.567 au  H             1.00      1 D:xz           10
                        (      69.838 eV)
   230     230       --         2.567 au  H             1.00      1 D:yz           10
                        (      69.838 eV)
   231     231      1.000      -0.238 au  H             1.00      1 S              11
                        (      -6.484 eV)
   232     232       --         0.077 au  H             1.00      2 S              11
                        (       2.096 eV)
   233     233       --         1.521 au  H             1.00      3 S              11
                        (      41.380 eV)
   234     234       --         0.410 au  H             1.00      1 P:x            11
                        (      11.162 eV)
   235     235       --         0.410 au  H             1.00      1 P:y            11
                        (      11.162 eV)
   236     236       --         0.410 au  H             1.00      1 P:z            11
                        (      11.162 eV)
   237     237       --         2.567 au  H             1.00      1 D:z2           11
                        (      69.838 eV)
   238     238       --         2.567 au  H             1.00      1 D:x2-y2        11
                        (      69.838 eV)
   239     239       --         2.567 au  H             1.00      1 D:xy           11
                        (      69.838 eV)
   240     240       --         2.567 au  H             1.00      1 D:xz           11
                        (      69.838 eV)
   241     241       --         2.567 au  H             1.00      1 D:yz           11
                        (      69.838 eV)
   242     242      1.000      -0.238 au  H             1.00      1 S              12
                        (      -6.484 eV)
   243     243       --         0.077 au  H             1.00      2 S              12
                        (       2.096 eV)
   244     244       --         1.521 au  H             1.00      3 S              12
                        (      41.380 eV)
   245     245       --         0.410 au  H             1.00      1 P:x            12
                        (      11.162 eV)
   246     246       --         0.410 au  H             1.00      1 P:y            12
                        (      11.162 eV)
   247     247       --         0.410 au  H             1.00      1 P:z            12
                        (      11.162 eV)
   248     248       --         2.567 au  H             1.00      1 D:z2           12
                        (      69.838 eV)
   249     249       --         2.567 au  H             1.00      1 D:x2-y2        12
                        (      69.838 eV)
   250     250       --         2.567 au  H             1.00      1 D:xy           12
                        (      69.838 eV)
   251     251       --         2.567 au  H             1.00      1 D:xz           12
                        (      69.838 eV)
   252     252       --         2.567 au  H             1.00      1 D:yz           12
                        (      69.838 eV)
   253     253      1.000      -0.238 au  H             1.00      1 S              13
                        (      -6.484 eV)
   254     254       --         0.077 au  H             1.00      2 S              13
                        (       2.096 eV)
   255     255       --         1.521 au  H             1.00      3 S              13
                        (      41.380 eV)
   256     256       --         0.410 au  H             1.00      1 P:x            13
                        (      11.162 eV)
   257     257       --         0.410 au  H             1.00      1 P:y            13
                        (      11.162 eV)
   258     258       --         0.410 au  H             1.00      1 P:z            13
                        (      11.162 eV)
   259     259       --         2.567 au  H             1.00      1 D:z2           13
                        (      69.838 eV)
   260     260       --         2.567 au  H             1.00      1 D:x2-y2        13
                        (      69.838 eV)
   261     261       --         2.567 au  H             1.00      1 D:xy           13
                        (      69.838 eV)
   262     262       --         2.567 au  H             1.00      1 D:xz           13
                        (      69.838 eV)
   263     263       --         2.567 au  H             1.00      1 D:yz           13
                        (      69.838 eV)
   264     264      1.000      -0.238 au  H             1.00      1 S              14
                        (      -6.484 eV)
   265     265       --         0.077 au  H             1.00      2 S              14
                        (       2.096 eV)
   266     266       --         1.521 au  H             1.00      3 S              14
                        (      41.380 eV)
   267     267       --         0.410 au  H             1.00      1 P:x            14
                        (      11.162 eV)
   268     268       --         0.410 au  H             1.00      1 P:y            14
                        (      11.162 eV)
   269     269       --         0.410 au  H             1.00      1 P:z            14
                        (      11.162 eV)
   270     270       --         2.567 au  H             1.00      1 D:z2           14
                        (      69.838 eV)
   271     271       --         2.567 au  H             1.00      1 D:x2-y2        14
                        (      69.838 eV)
   272     272       --         2.567 au  H             1.00      1 D:xy           14
                        (      69.838 eV)
   273     273       --         2.567 au  H             1.00      1 D:xz           14
                        (      69.838 eV)
   274     274       --         2.567 au  H             1.00      1 D:yz           14
                        (      69.838 eV)
   275     275      1.000      -0.238 au  H             1.00      1 S              15
                        (      -6.484 eV)
   276     276       --         0.077 au  H             1.00      2 S              15
                        (       2.096 eV)
   277     277       --         1.521 au  H             1.00      3 S              15
                        (      41.380 eV)
   278     278       --         0.410 au  H             1.00      1 P:x            15
                        (      11.162 eV)
   279     279       --         0.410 au  H             1.00      1 P:y            15
                        (      11.162 eV)
   280     280       --         0.410 au  H             1.00      1 P:z            15
                        (      11.162 eV)
   281     281       --         2.567 au  H             1.00      1 D:z2           15
                        (      69.838 eV)
   282     282       --         2.567 au  H             1.00      1 D:x2-y2        15
                        (      69.838 eV)
   283     283       --         2.567 au  H             1.00      1 D:xy           15
                        (      69.838 eV)
   284     284       --         2.567 au  H             1.00      1 D:xz           15
                        (      69.838 eV)
   285     285       --         2.567 au  H             1.00      1 D:yz           15
                        (      69.838 eV)
   286     286      1.000      -0.238 au  H             1.00      1 S              16
                        (      -6.484 eV)
   287     287       --         0.077 au  H             1.00      2 S              16
                        (       2.096 eV)
   288     288       --         1.521 au  H             1.00      3 S              16
                        (      41.380 eV)
   289     289       --         0.410 au  H             1.00      1 P:x            16
                        (      11.162 eV)
   290     290       --         0.410 au  H             1.00      1 P:y            16
                        (      11.162 eV)
   291     291       --         0.410 au  H             1.00      1 P:z            16
                        (      11.162 eV)
   292     292       --         2.567 au  H             1.00      1 D:z2           16
                        (      69.838 eV)
   293     293       --         2.567 au  H             1.00      1 D:x2-y2        16
                        (      69.838 eV)
   294     294       --         2.567 au  H             1.00      1 D:xy           16
                        (      69.838 eV)
   295     295       --         2.567 au  H             1.00      1 D:xz           16
                        (      69.838 eV)
   296     296       --         2.567 au  H             1.00      1 D:yz           16
                        (      69.838 eV)
   297     297      1.000      -0.238 au  H             1.00      1 S              17
                        (      -6.484 eV)
   298     298       --         0.077 au  H             1.00      2 S              17
                        (       2.096 eV)
   299     299       --         1.521 au  H             1.00      3 S              17
                        (      41.380 eV)
   300     300       --         0.410 au  H             1.00      1 P:x            17
                        (      11.162 eV)
   301     301       --         0.410 au  H             1.00      1 P:y            17
                        (      11.162 eV)
   302     302       --         0.410 au  H             1.00      1 P:z            17
                        (      11.162 eV)
   303     303       --         2.567 au  H             1.00      1 D:z2           17
                        (      69.838 eV)
   304     304       --         2.567 au  H             1.00      1 D:x2-y2        17
                        (      69.838 eV)
   305     305       --         2.567 au  H             1.00      1 D:xy           17
                        (      69.838 eV)
   306     306       --         2.567 au  H             1.00      1 D:xz           17
                        (      69.838 eV)
   307     307       --         2.567 au  H             1.00      1 D:yz           17
                        (      69.838 eV)
   308     308      1.000      -0.238 au  H             1.00      1 S              18
                        (      -6.484 eV)
   309     309       --         0.077 au  H             1.00      2 S              18
                        (       2.096 eV)
   310     310       --         1.521 au  H             1.00      3 S              18
                        (      41.380 eV)
   311     311       --         0.410 au  H             1.00      1 P:x            18
                        (      11.162 eV)
   312     312       --         0.410 au  H             1.00      1 P:y            18
                        (      11.162 eV)
   313     313       --         0.410 au  H             1.00      1 P:z            18
                        (      11.162 eV)
   314     314       --         2.567 au  H             1.00      1 D:z2           18
                        (      69.838 eV)
   315     315       --         2.567 au  H             1.00      1 D:x2-y2        18
                        (      69.838 eV)
   316     316       --         2.567 au  H             1.00      1 D:xy           18
                        (      69.838 eV)
   317     317       --         2.567 au  H             1.00      1 D:xz           18
                        (      69.838 eV)
   318     318       --         2.567 au  H             1.00      1 D:yz           18
                        (      69.838 eV)
   319     319      1.000      -0.238 au  H             1.00      1 S              19
                        (      -6.484 eV)
   320     320       --         0.077 au  H             1.00      2 S              19
                        (       2.096 eV)
   321     321       --         1.521 au  H             1.00      3 S              19
                        (      41.380 eV)
   322     322       --         0.410 au  H             1.00      1 P:x            19
                        (      11.162 eV)
   323     323       --         0.410 au  H             1.00      1 P:y            19
                        (      11.162 eV)
   324     324       --         0.410 au  H             1.00      1 P:z            19
                        (      11.162 eV)
   325     325       --         2.567 au  H             1.00      1 D:z2           19
                        (      69.838 eV)
   326     326       --         2.567 au  H             1.00      1 D:x2-y2        19
                        (      69.838 eV)
   327     327       --         2.567 au  H             1.00      1 D:xy           19
                        (      69.838 eV)
   328     328       --         2.567 au  H             1.00      1 D:xz           19
                        (      69.838 eV)
   329     329       --         2.567 au  H             1.00      1 D:yz           19
                        (      69.838 eV)
   330     330      1.000      -0.238 au  H             1.00      1 S              20
                        (      -6.484 eV)
   331     331       --         0.077 au  H             1.00      2 S              20
                        (       2.096 eV)
   332     332       --         1.521 au  H             1.00      3 S              20
                        (      41.380 eV)
   333     333       --         0.410 au  H             1.00      1 P:x            20
                        (      11.162 eV)
   334     334       --         0.410 au  H             1.00      1 P:y            20
                        (      11.162 eV)
   335     335       --         0.410 au  H             1.00      1 P:z            20
[...]
                                    2.48%     1 P:x            -5.135  0.67     3 C
                                    1.91%     1 S              -6.484  1.00    12 H
                                   -1.85%     1 P:y            -5.135  0.67     1 C
                                   -1.79%     2 P:y             4.559  0.00     6 C
                                   -1.69%     2 P:z             4.559  0.00     1 C
                                    1.56%     2 S               2.096  0.00    17 H
                                   -1.54%     2 P:z             4.559  0.00     4 C
                                    1.43%     2 S               2.096  0.00    16 H
                                    1.36%     2 P:z             4.559  0.00     3 C
                                    1.35%     1 S              -6.484  1.00    20 H
                                    1.26%     2 P:y             4.559  0.00     2 C
                                   -1.23%     2 S             -13.802  2.00     3 C
                                   -1.20%     2 P:x             4.559  0.00     4 C
                                   -1.19%     2 P:y             4.559  0.00     1 C
                                   -1.14%     3 S              21.890  0.00     8 O
       1.954  0.00    42 A         21.73%     1 S              -6.484  1.00     9 H
                                   19.01%     2 S               2.096  0.00     9 H
                                   16.07%     2 S               2.096  0.00    10 H
                                   11.67%     1 S              -6.484  1.00    11 H
                                  -10.64%     3 S              10.456  0.00     4 C
                                   10.41%     1 S              -6.484  1.00    10 H
                                    6.09%     2 S             -13.802  2.00     4 C
                                   -5.60%     3 S              10.456  0.00     2 C
                                   -4.57%     2 S               2.096  0.00    11 H
                                    4.37%     1 P:y            -5.135  0.67     6 C
                                    4.20%     2 P:y             4.559  0.00     6 C
                                    4.13%     1 P:x            -5.135  0.67     5 C
                                   -4.07%     2 P:y             4.559  0.00     2 C
                                    3.91%     2 P:x             4.559  0.00     5 C
                                   -3.90%     3 S              10.456  0.00     1 C
                                   -3.76%     2 P:y             4.559  0.00     3 C
                                    3.74%     1 P:z            -5.135  0.67     6 C
                                    3.44%     1 S              -6.484  1.00    14 H
                                    3.15%     1 P:y            -5.135  0.67     5 C
                                    3.04%     2 P:z             4.559  0.00     6 C
                                    2.78%     2 P:y             4.559  0.00     7 C
                                    2.40%     1 P:y            -5.135  0.67     7 C
                                    2.21%     2 P:y             4.559  0.00     5 C
                                   -2.16%     2 P:y             4.559  0.00     4 C
                                   -2.12%     2 P:z             4.559  0.00     1 C
                                   -2.04%     2 P:y             4.559  0.00     1 C
                                   -2.04%     1 P:y            -5.135  0.67     2 C
                                    1.99%     1 S              -6.484  1.00    17 H
                                   -1.90%     2 S               2.096  0.00    14 H
                                    1.86%     1 P:x            -5.135  0.67     1 C
                                    1.82%     1 P:z            -5.135  0.67     1 C
                                    1.81%     1 P:y            -5.135  0.67     1 C
                                    1.55%     2 P:z             4.559  0.00     7 C
                                   -1.50%     2 P:x             4.559  0.00     1 C
                                    1.48%     3 S              41.380  0.00     9 H
                                   -1.47%     1 P:y            -5.135  0.67     3 C
                                    1.37%     2 P:x             4.559  0.00     7 C
                                    1.35%     1 P:z            -5.135  0.67     5 C
                                    1.29%     2 S             -13.802  2.00     3 C
                                    1.13%     1 S              -6.484  1.00    12 H
                                   -1.11%     2 P:z             4.559  0.00     3 C
                                   -1.03%     2 S               2.096  0.00    17 H
       1.994  0.00    43 A         27.71%     1 S              -6.484  1.00    17 H
                                   26.24%     1 S              -6.484  1.00    14 H
                                  -19.51%     2 P:y             4.559  0.00     5 C
                                  -17.28%     2 P:y             4.559  0.00     6 C
                                   13.72%     2 S               2.096  0.00    14 H
                                   12.74%     2 S               2.096  0.00    17 H
                                    7.71%     1 S              -6.484  1.00    16 H
                                    7.43%     1 S              -6.484  1.00    12 H
                                    3.87%     1 S              -6.484  1.00    13 H
                                    3.77%     2 S               2.096  0.00    12 H
                                    3.73%     2 S               2.096  0.00    16 H
                                    3.66%     1 S              -6.484  1.00    15 H
                                    3.63%     1 P:y            -5.135  0.67     5 C
                                    3.42%     3 S              41.380  0.00    17 H
                                    3.35%     3 S              41.380  0.00    14 H
                                    3.34%     1 P:y            -5.135  0.67     6 C
                                   -2.65%     2 P:z             4.559  0.00     6 C
                                    1.87%     2 P:z             4.559  0.00     1 C
                                    1.24%     1 P:z            -5.135  0.67     6 C
                                    1.01%     2 P:z             4.559  0.00     3 C
                                    1.00%     2 P:x             4.559  0.00     1 C
       2.503  0.00    44 A        -13.41%     3 S              10.456  0.00     4 C
                                   13.32%     1 S              -6.484  1.00    10 H
                                   13.11%     1 S              -6.484  1.00    18 H
                                   12.01%     1 S              -6.484  1.00    20 H
                                   11.32%     1 P:x            -5.135  0.67     7 C
                                   10.98%     2 S             -13.802  2.00     4 C
                                   10.69%     1 P:z            -5.135  0.67     6 C
                                   10.29%     1 P:x            -5.135  0.67     5 C
                                    8.76%     2 P:z             4.559  0.00     6 C
                                   -7.83%     2 P:y             4.559  0.00     4 C
                                    6.80%     2 P:x             4.559  0.00     5 C
                                    6.62%     1 P:z            -5.135  0.67     7 C
                                    6.56%     1 S              -6.484  1.00    19 H
                                   -6.29%     2 P:y             4.559  0.00     1 C
                                   -5.87%     2 S               2.096  0.00    19 H
                                    5.56%     1 S              -6.484  1.00     9 H
                                   -4.11%     2 P:y             4.559  0.00     7 C
                                    4.01%     2 S               2.096  0.00     9 H
                                   -3.85%     1 P:y            -5.135  0.67     1 C
                                    2.94%     1 S              -6.484  1.00    16 H
                                    2.81%     1 S              -6.484  1.00    11 H
                                    2.34%     1 S              -6.484  1.00    12 H
                                   -1.92%     1 P:y            -5.135  0.67     4 C
                                   -1.73%     2 S               2.096  0.00    10 H
                                   -1.55%     2 P:x             4.559  0.00     2 C
                                    1.53%     2 P:z             4.559  0.00     5 C
                                   -1.45%     2 S               2.096  0.00    16 H
                                   -1.31%     2 P:z             4.559  0.00     2 C
                                    1.28%     1 P:z            -5.135  0.67     2 C
                                    1.26%     1 P:x            -5.135  0.67     2 C
                                    1.22%     1 S              -6.484  1.00    14 H
                                    1.17%     1 S              -6.484  1.00    17 H
                                    1.14%     2 S               2.096  0.00    15 H
                                   -1.14%     2 S               2.096  0.00    12 H
       2.589  0.00    45 A         23.91%     1 S              -6.484  1.00    19 H
                                  -13.57%     2 P:y             4.559  0.00     7 C
                                    7.01%     1 P:y            -5.135  0.67     7 C
                                    6.85%     1 S              -6.484  1.00     9 H
                                    6.63%     2 P:x             4.559  0.00     3 C
                                    6.21%     1 S              -6.484  1.00    18 H
                                    6.09%     1 S              -6.484  1.00    20 H
                                    5.13%     1 S              -6.484  1.00    17 H
                                    5.06%     1 P:y            -5.135  0.67     3 C
                                    5.04%     1 S              -6.484  1.00    14 H
                                    4.96%     2 P:y             4.559  0.00     3 C
                                    4.85%     2 P:y             4.559  0.00     2 C
                                   -4.33%     3 S              21.890  0.00     8 O
                                    4.29%     1 S              -6.484  1.00    12 H
                                    4.15%     1 S              -6.484  1.00    16 H
                                    3.76%     2 S               2.096  0.00    10 H
                                    3.34%     1 P:x            -5.135  0.67     3 C
                                    3.30%     3 S              41.380  0.00    19 H
                                    3.28%     2 P:z             4.559  0.00     3 C
                                    3.24%     2 S               2.096  0.00    19 H
                                   -3.03%     2 P:y             4.559  0.00     5 C
                                   -2.70%     2 P:x             4.559  0.00     2 C
                                    2.70%     1 P:z            -5.135  0.67     6 C
                                    2.64%     2 S               2.096  0.00    18 H
                                    2.56%     2 S               2.096  0.00    20 H
                                   -2.52%     2 P:y             4.559  0.00     6 C
                                    2.16%     2 S             -13.802  2.00     4 C
                                   -2.12%     2 P:z             4.559  0.00     2 C
                                    2.05%     1 P:x            -5.135  0.67     5 C
                                   -1.98%     3 S              10.456  0.00     4 C
                                    1.98%     1 P:y            -5.135  0.67     5 C
                                   -1.90%     2 P:x             4.559  0.00     7 C
                                    1.65%     1 S              -6.484  1.00    15 H
                                   -1.48%     2 S             -13.802  2.00     3 C
                                    1.48%     1 S              -6.484  1.00    13 H
                                    1.45%     1 P:y            -5.135  0.67     2 C
                                    1.38%     1 P:z            -5.135  0.67     3 C
                                    1.27%     1 P:y            -5.135  0.67     6 C
                                   -1.17%     3 S              10.456  0.00     3 C
                                    1.17%     2 S               2.096  0.00    11 H
                                    1.13%     1 P:y            11.162  0.00     9 H
                                    1.04%     2 S               2.096  0.00     9 H
                                   -1.04%     1 P:x            -5.135  0.67     2 C
       2.698  0.00    46 A         18.43%     1 S              -6.484  1.00    20 H
                                   17.18%     1 S              -6.484  1.00    13 H
                                   17.06%     1 S              -6.484  1.00    15 H
                                   16.90%     1 S              -6.484  1.00    18 H
                                   15.19%     1 S              -6.484  1.00    12 H
                                  -14.77%     2 P:x             4.559  0.00     6 C
                                   14.74%     1 S              -6.484  1.00    16 H
                                  -14.19%     2 P:z             4.559  0.00     5 C
                                   -9.47%     2 P:z             4.559  0.00     7 C
                                    6.66%     1 P:x            -5.135  0.67     6 C
                                   -6.39%     2 P:x             4.559  0.00     7 C
                                    6.11%     1 P:z            -5.135  0.67     5 C
                                    4.44%     1 P:z            -5.135  0.67     7 C
                                    2.92%     2 S               2.096  0.00    13 H
                                    2.80%     1 P:x            -5.135  0.67     7 C
                                    2.70%     2 S               2.096  0.00    15 H
                                    2.30%     3 S              41.380  0.00    20 H
                                    2.27%     3 S              41.380  0.00    12 H
                                    2.27%     3 S              41.380  0.00    16 H
                                    2.24%     3 S              41.380  0.00    13 H
                                    2.22%     3 S              41.380  0.00    15 H
                                    2.18%     3 S              41.380  0.00    18 H
                                    2.04%     2 S               2.096  0.00    18 H
                                    2.00%     2 S               2.096  0.00    20 H
                                    1.83%     2 S               2.096  0.00    16 H
                                   -1.56%     2 P:x             4.559  0.00     5 C
                                    1.52%     2 S               2.096  0.00    12 H
                                    1.06%     1 P:x            -5.135  0.67     5 C

 Energy gradients wrt nuclear displacements
 ==========================================

     Atom      Cartesian (a.u./angstrom)
                 X         Y         Z
 ----------------------------------------
     1 C     0.000015  0.000065 -0.000162
     2 C    -0.000134  0.000164 -0.000201
     3 C    -0.000452  0.000205 -0.000228
     4 O    -0.000471  0.000249 -0.000436
     5 C    -0.000209  0.000022  0.000189
     6 C     0.000322 -0.000178  0.000048
     7 C     0.000152 -0.000067  0.000208
     8 C     0.000198  0.000051  0.000167
     9 H    -0.000108 -0.000126 -0.000232
    10 H    -0.000040  0.000304 -0.000247
    11 H    -0.000442  0.000035 -0.000301
    12 H     0.000013 -0.000322  0.000083
    13 H     0.000081 -0.000111  0.000109
    14 H     0.000189 -0.000244  0.000234
    15 H     0.000069 -0.000074  0.000070
    16 H    -0.000017 -0.000336  0.000077
    17 H     0.000226 -0.000235  0.000229
    18 H     0.000141  0.000254  0.000057
    19 H     0.000310  0.000093  0.000256
    20 H     0.000156  0.000250  0.000079
 ----------------------------------------



 =======================================================================
 Electrostatic potential at the Nuclei due to electrons and other nuclei
 =======================================================================
  
         Atom                  Potential
         ----                  ---------
     1)   C                  14.76140942
     2)   C                  14.78143084
     3)   C                  14.71727853
     4)   O                  22.40986244
     5)   C                  14.74192642
     6)   C                  14.78487544
     7)   C                  14.78491570
     8)   C                  14.78965041
     9)   H                   1.09117553
    10)   H                   1.09746106
    11)   H                   1.10606305
    12)   H                   1.11192461
    13)   H                   1.11375364
    14)   H                   1.11117329
    15)   H                   1.11371046
    16)   H                   1.11195004
    17)   H                   1.11113476
    18)   H                   1.11548748
    19)   H                   1.11471725
    20)   H                   1.11545896
 Mulliken charges used for AMS results%charges...


    =====================
     CALCULATION RESULTS
    =====================

Energy (hartree)            -4.02752711

Gradients (hartree/bohr)
  Index   Atom            d/dx            d/dy            d/dz
      1      C    0.0000080753    0.0000345310   -0.0000857473
      2      C   -0.0000709159    0.0000870133   -0.0001063646
      3      C   -0.0002391583    0.0001085989   -0.0001205577
      4      O   -0.0002493691    0.0001317425   -0.0002309331
      5      C   -0.0001105697    0.0000116816    0.0000998367
      6      C    0.0001703206   -0.0000942410    0.0000255848
      7      C    0.0000806711   -0.0000353837    0.0001102468
      8      C    0.0001049865    0.0000268449    0.0000885323
      9      H   -0.0000570919   -0.0000669121   -0.0001228318
     10      H   -0.0000211298    0.0001606795   -0.0001305278
     11      H   -0.0002340961    0.0000187774   -0.0001592340
     12      H    0.0000070436   -0.0001705261    0.0000439602
     13      H    0.0000429791   -0.0000587174    0.0000577009
     14      H    0.0000997954   -0.0001289893    0.0001240537
     15      H    0.0000362490   -0.0000390269    0.0000369603
     16      H   -0.0000090502   -0.0001779634    0.0000406984
     17      H    0.0001194274   -0.0001241088    0.0001213058
     18      H    0.0000748062    0.0001344141    0.0000302680
     19      H    0.0001642832    0.0000490699    0.0001354063
     20      H    0.0000827437    0.0001325155    0.0000416422


--------------
Atomic charges
--------------
  Index   Atom    Charge
      1      C    0.3599
      2      C    0.1874
      3      C    0.6440
      4      O   -0.4982
      5      C   -0.0426
      6      C    0.7247
      7      C    0.7256
      8      C    0.7355
      9      H   -0.2081
     10      H   -0.2042
     11      H   -0.2942
     12      H   -0.2426
     13      H   -0.2322
     14      H   -0.2272
     15      H   -0.2325
     16      H   -0.2428
     17      H   -0.2273
     18      H   -0.2359
     19      H   -0.2534
     20      H   -0.2360


Dipole moment vector    (Debye):    -2.29857523   -3.42228657   -1.39952548
              magnitude (Debye):     4.35363814


AMS application finished. Exiting.
NORMAL TERMINATION
     Total cpu time:     191.94
  Total system time:       5.41
 Total elapsed time:     201.45
