

 Parallel Execution: Process Information
 ==============================================================================
 Rank   Node Name                              NodeID   MyNodeRank  NodeMaster
    0   DESKTOP-1M8FOJT                           0          0          0
    1   DESKTOP-1M8FOJT                           0          1         -1
    2   DESKTOP-1M8FOJT                           0          2         -1
    3   DESKTOP-1M8FOJT                           0          3         -1
 ==============================================================================


May use up to 4096MB of RAM as shared memory on node 0

 *******************************************************************************
 *                                                                             *
 *  --------------------------------                                           *
 *   Amsterdam Modeling Suite (AMS)              2021.106                      *
 *  --------------------------------                                           *
 *                                               r99350 2021-12-03             *
 *                                                                             *
 *                                                                             *
 *                              =================                              *
 *                              |               |                              *
 *                              |     A M S     |                              *
 *                              |               |                              *
 *                              =================                              *
 *                                                                             *
 *                                                                             *
 *   Online information and documentation:  https://www.scm.com/support/       *
 *   E-mail:  support@scm.com   info@scm.com                                   *
 *                                                                             *
 *   Scientific publications using AMS results must be properly referenced     *
 *   See the User Manuals (or the web site) for recommended citations          *
 *   The terms and conditions of the End User License Agreement apply to       *
 *   the use of AMS, https://www.scm.com/license-terms/                        *
 *                                                                             *
 *********************  x86_64_windows_amdZen / intelmpi  **********************
 
 Licensed to: Mr. Yuman Hordijk / SCM / Amsterdam / Netherlands 2021-10-04 09:39:26
 SCM User ID: u24430
  
 AMS 2021.106  RunTime: Jan26-2022 14:12:22  ShM Nodes: 1  Procs: 4

 AMS jobname: ams
 AMS jobid  : 1835567044

 Start   directory: D:/Users/Yuman/Desktop/MasterProject/manual_calculations/substrate_conformers/tmp..9552.0.noindex/
 Results directory: D:/Users/Yuman/Desktop/MasterProject/manual_calculations/substrate_conformers/RPh_1.results/
 Scratch directory: Z:/SCMTMP/amstmp_ams_kid0.1835567044/


 Communication costs MPI_COMM_WORLD:      1.551 usec per message,   0.0044 usec per 8-byte item
 Communication costs for intra-node:      1.651 usec per message,   0.0043 usec per 8-byte item

 RNG seed: -135259012 -1184302196 -1023936265 206015150 -475624923 1705142405 -1284615946 1397720958



                      ************************************************************************
                      *  ADF 2021.106  RunTime: Jan26-2022 14:12:23  ShM Nodes: 1  Procs: 4  *
                      ************************************************************************
  
       ***************************
       *  GEOMETRY OPTIMIZATION  *
       ***************************

Optimization Method                    Quasi Newton
Optimization Coordinates               Delocalized Coordinates
Optimize lattice                       F
 
 ------------------------------------------------------
 Convergence criteria (Hartree,Angstrom)
 ------------------------------------------------------
 Maximum gradient               0.001000000000
 Maximum rms gradient           0.000666666667
 Maximum step allowed           0.010000000000
 Maximum rms step allowed       0.006666666667
 Maximum energy change allowe   0.000180000000
 Maximum stress energy allowe   0.000500000000
 
Initial model Hessian                  Automatic Hessian
 
------------------------------------
Quasi-Newton Optimizer Parameters
------------------------------------
Hessian Update Method                  BFGS
Maximum number of steps                  250
First GDIIS cycle                          0
Maximum GDIIS vectors                      0
Trust radius (bohr)                        0.200000
Trust radius varies                        T
Constraints converged at all steps         T
Use projector                              T
 
 Rigid motions settings for: old optimizer
 Atomic rotations (x,y,z):     T T T
 Atomic translations (x,y,z):  T T T
 Tolerance:                   1.000000000000000E-006
 
--------
Geometry
--------
Formula: C9H8O
Atoms
  Index Symbol   x (angstrom)   y (angstrom)   z (angstrom)
      1      C    -1.17294274     0.26453897     0.00260244
      2      C     0.08710924    -0.21279954    -0.00236713
      3      C     1.21717572     0.71989209     0.02177147
      4      O     1.10073519     1.92180880     0.04712949
      5      C    -2.40397901    -0.50345183    -0.01789554
      6      C    -3.62722721     0.18150472    -0.01236216
      7      C    -4.82658153    -0.50985718    -0.03190111
      8      C    -4.82923137    -1.89867706    -0.05688227
      9      C    -3.62435130    -2.59153469    -0.06208725
     10      C    -2.42289076    -1.90483660    -0.04275335
     11      H    -3.62998791     1.26607398     0.00711675
     12      H    -5.76430481     0.03455865    -0.02751188
     13      H    -5.76777779    -2.44102238    -0.07201071
     14      H    -3.62395281    -3.67581379    -0.08151752
     15      H    -1.49301365    -2.46220868    -0.04711336
     16      H     0.31458002    -1.27221727    -0.02232653
     17      H     2.21294877     0.22960297     0.01633474
     18      H    -1.29278006     1.34670691     0.02774550
 
Total System Charge             0.00000
Bonding info available!
 
 
----------------
ADF Engine Input
----------------
 
 Basis
 Type TZ2P
 Core None
 End
 XC
 GGA OLYP
 End
 

 Title: *** (NO TITLE) ***

 Using automatic Hessian for delocalized coordinates.
 *** GOStep1 ***

 Energy gradients wrt nuclear displacements
 ==========================================

     Atom      Cartesian (a.u./angstrom)
                 X         Y         Z
 ----------------------------------------
     1 C     0.008710  0.005563 -0.000479
     2 C    -0.000497 -0.004163 -0.000038
     3 C     0.001927  0.032618  0.000252
     4 O    -0.008599 -0.050210 -0.000893
     5 C    -0.006748 -0.004101 -0.000185
     6 C     0.000676 -0.003606 -0.000123
     7 C     0.008159 -0.002277 -0.000086
     8 C     0.008234  0.001872  0.000152
     9 C    -0.004267  0.008506  0.000239
    10 C    -0.000174  0.007140  0.000305
    11 H    -0.000527 -0.003083 -0.000083
    12 H     0.003822 -0.001709  0.000007
    13 H     0.004092  0.002713  0.000093
    14 H     0.000027  0.004793  0.000100
    15 H    -0.000755  0.001909  0.000021
    16 H    -0.001803  0.004218  0.000280
    17 H    -0.009503 -0.000311  0.000062
    18 H    -0.002775  0.000128  0.000376
 ----------------------------------------
 Mulliken charges used for AMS results%charges...
 
----------------------------------------------------------------------
Geometry Convergence after Step   1       (Hartree/Angstrom,Angstrom)
----------------------------------------------------------------------
current energy                               -4.11418284 Hartree
energy change                      -4.11418284     0.00018000    F
constrained gradient max            0.04953026     0.00100000    F
constrained gradient rms            0.00896558     0.00066667    F
gradient max                        0.04953026
gradient rms                        0.00896558
cart. step max                      0.08912415     0.01000000    F
cart. step rms                      0.03635249     0.00666667    F
 
 
--------
Geometry
--------
Formula: C9H8O
Atoms
  Index Symbol   x (angstrom)   y (angstrom)   z (angstrom)
      1      C    -1.16116130     0.23244224     0.01071711
      2      C     0.12819868    -0.18046324     0.00559934
      3      C     1.24722815     0.78465206     0.02212757
      4      O     1.15080385     2.01093295     0.03479280
      5      C    -2.39365250    -0.54949296    -0.01201215
      6      C    -3.61201632     0.15645100    -0.00821777
      7      C    -4.83465916    -0.50546053    -0.03230509
      8      C    -4.87151763    -1.89803623    -0.06145143
      9      C    -3.67550858    -2.61973254    -0.06524040
     10      C    -2.45307896    -1.95827636    -0.04070516
     11      H    -3.58981873     1.24264579     0.01308174
     12      H    -5.75983471     0.06472710    -0.02959956
     13      H    -5.82519730    -2.41884300    -0.08048492
     14      H    -3.70087880    -3.70618007    -0.08693384
     15      H    -1.53956527    -2.54351496    -0.04400472
     16      H     0.39755809    -1.23288934    -0.01385215
     17      H     2.25226795     0.30190495     0.00840949
     18      H    -1.30563946     1.31140123     0.02605068
 
Total System Charge             0.00000
Bonding info available!
 
 *** GOStep2 ***

 Energy gradients wrt nuclear displacements
 ==========================================

     Atom      Cartesian (a.u./angstrom)
                 X         Y         Z
 ----------------------------------------
     1 C     0.000419  0.004095  0.001028
     2 C     0.003543 -0.007106 -0.000825
     3 C     0.002243 -0.014365  0.002488
     4 O    -0.000750  0.016621 -0.000787
     5 C    -0.001828 -0.001149 -0.000084
     6 C     0.002266 -0.000662 -0.000107
     7 C     0.000174  0.000200  0.000159
     8 C     0.000451  0.000040 -0.000089
     9 C    -0.002342  0.000014 -0.000029
    10 C    -0.000231  0.000619 -0.000095
    11 H     0.000326 -0.000664 -0.000109
    12 H     0.000758 -0.000271 -0.000071
    13 H     0.000722  0.001347  0.000050
    14 H    -0.000610  0.001308  0.000097
    15 H    -0.001869  0.000995  0.000010
    16 H    -0.002120  0.002097 -0.000162
    17 H    -0.001247 -0.001532 -0.000933
    18 H     0.000095 -0.001588 -0.000541
 ----------------------------------------
 Mulliken charges used for AMS results%charges...

 dE(predicted):    -0.22061E-02, dE(actual):    -0.12297E-02, Trust radius:    0.200000, all in a.u.
 
----------------------------------------------------------------------
Geometry Convergence after Step   2       (Hartree/Angstrom,Angstrom)
----------------------------------------------------------------------
current energy                               -4.11541252 Hartree
energy change                      -0.00122968     0.00018000    F
constrained gradient max            0.01724243     0.00100000    F
constrained gradient rms            0.00337399     0.00066667    F
gradient max                        0.01724243
gradient rms                        0.00337399
cart. step max                      0.03113914     0.01000000    F
cart. step rms                      0.00640575     0.00666667    T
 
 
--------
Geometry
--------
Formula: C9H8O
Atoms
  Index Symbol   x (angstrom)   y (angstrom)   z (angstrom)
      1      C    -1.16234535     0.23305168    -0.00278256
      2      C     0.12776301    -0.17681469    -0.00634653
      3      C     1.24989881     0.78457069     0.00920160
      4      O     1.15703472     2.00421436     0.04871331
      5      C    -2.39485554    -0.54840565    -0.01902403
      6      C    -3.61505539     0.15757326    -0.01039324
      7      C    -4.83778730    -0.50535476    -0.02958197
      8      C    -4.87278743    -1.89894688    -0.05639978
      9      C    -3.67473565    -2.62017480    -0.06345181
     10      C    -2.45221764    -1.95822959    -0.04447748
     11      H    -3.59333080     1.24434626     0.01053705
     12      H    -5.76346447     0.06520721    -0.02336397
     13      H    -5.82647795    -2.42145335    -0.07153089
     14      H    -3.69938871    -3.70730403    -0.08404398
     15      H    -1.53760572    -2.54358826    -0.05017887
     16      H     0.40035311    -1.23022325    -0.01961132
     17      H     2.25507908     0.30116464     0.03954863
     18      H    -1.30654880     1.31263526     0.01915739
 
Total System Charge             0.00000
Bonding info available!
 
 *** GOStep3 ***

 Energy gradients wrt nuclear displacements
 ==========================================

     Atom      Cartesian (a.u./angstrom)
                 X         Y         Z
 ----------------------------------------
     1 C    -0.000255  0.001589 -0.000616
     2 C     0.002599 -0.001900  0.003289
     3 C     0.000652 -0.001343 -0.012469
     4 O     0.000818 -0.000327  0.004244
     5 C    -0.000540 -0.000527 -0.000447
     6 C     0.000764  0.000348  0.000119
     7 C    -0.000480  0.000992 -0.000095
     8 C    -0.000506  0.000176  0.000094
     9 C    -0.000868 -0.000381  0.000009
    10 C     0.000182 -0.000117  0.000237
    11 H     0.000249  0.000074  0.000040
    12 H     0.000178  0.000395  0.000021
    13 H    -0.000153  0.000918  0.000064
    14 H    -0.000485  0.000513  0.000027
    15 H    -0.000834  0.000131  0.000119
    16 H    -0.000992  0.000553  0.000529
    17 H    -0.000662 -0.000150  0.004114
    18 H     0.000333 -0.000944  0.000723
 ----------------------------------------
 Mulliken charges used for AMS results%charges...

 dE(predicted):    -0.11558E-03, dE(actual):    -0.24519E-04, Trust radius:    0.200000, all in a.u.
 
----------------------------------------------------------------------
Geometry Convergence after Step   3       (Hartree/Angstrom,Angstrom)
----------------------------------------------------------------------
current energy                               -4.11543704 Hartree
energy change                      -0.00002452     0.00018000    T
constrained gradient max            0.01239645     0.00100000    F
constrained gradient rms            0.00202805     0.00066667    F
gradient max                        0.01239645
gradient rms                        0.00202805
cart. step max                      0.02281515     0.01000000    F
cart. step rms                      0.00505137     0.00666667    T
 
 
--------
Geometry
--------
Formula: C9H8O
Atoms
  Index Symbol   x (angstrom)   y (angstrom)   z (angstrom)
      1      C    -1.16436224     0.23474582    -0.00339248
      2      C     0.12509104    -0.17487172    -0.00076271
      3      C     1.25083861     0.78113664     0.03201675
      4      O     1.16191191     1.99504029     0.04180377
      5      C    -2.39669009    -0.54534660    -0.02075288
      6      C    -3.61892550     0.15978242    -0.01211672
      7      C    -4.84060605    -0.50547505    -0.03102879
      8      C    -4.87219795    -1.89986915    -0.05647808
      9      C    -3.67169378    -2.61932248    -0.06345874
     10      C    -2.45010778    -1.95584369    -0.04549611
     11      H    -3.59870098     1.24709043     0.00910417
     12      H    -5.76729776     0.06450853    -0.02426479
     13      H    -5.82518335    -2.42511958    -0.07097877
     14      H    -3.69456647    -3.70708086    -0.08345018
     15      H    -1.53358694    -2.54013748    -0.05108240
     16      H     0.39963743    -1.22955454    -0.01670992
     17      H     2.25705766     0.29732086     0.01970651
     18      H    -1.30708978     1.31526424     0.02331291
 
Total System Charge             0.00000
Bonding info available!
 
 *** GOStep4 ***

 Energy gradients wrt nuclear displacements
 ==========================================

     Atom      Cartesian (a.u./angstrom)
                 X         Y         Z
 ----------------------------------------
     1 C    -0.000392 -0.001200 -0.002330
     2 C     0.000850  0.003512 -0.001686
     3 C    -0.001336  0.012279  0.006369
     4 O     0.002020 -0.018357 -0.002200
     5 C     0.000613  0.000066  0.000540
     6 C    -0.000860  0.001192  0.000200
     7 C    -0.000668  0.001537 -0.000425
     8 C    -0.001046  0.000425  0.000200
     9 C     0.000580 -0.000262  0.000034
    10 C     0.000473 -0.000530  0.000234
    11 H     0.000166  0.000749  0.000099
    12 H    -0.000278  0.001040  0.000051
    13 H    -0.000916  0.000493  0.000002
    14 H    -0.000348 -0.000181 -0.000048
    15 H     0.000324 -0.000725  0.000069
    16 H     0.000257 -0.001119  0.000218
    17 H     0.000109  0.001170 -0.002043
    18 H     0.000453 -0.000087  0.000716
 ----------------------------------------
 Mulliken charges used for AMS results%charges...

 dE(predicted):    -0.19322E-03, dE(actual):    -0.11064E-03, Trust radius:    0.200000, all in a.u.
 
----------------------------------------------------------------------
Geometry Convergence after Step   4       (Hartree/Angstrom,Angstrom)
----------------------------------------------------------------------
current energy                               -4.11554768 Hartree
energy change                      -0.00011064     0.00018000    T
constrained gradient max            0.01771215     0.00100000    F
constrained gradient rms            0.00326564     0.00066667    F
gradient max                        0.01771215
gradient rms                        0.00326564
cart. step max                      0.01542656     0.01000000    F
cart. step rms                      0.00456512     0.00666667    T
 
 
--------
Geometry
--------
Formula: C9H8O
Atoms
  Index Symbol   x (angstrom)   y (angstrom)   z (angstrom)
      1      C    -1.16345447     0.23370374     0.01203408
      2      C     0.12512335    -0.17803421     0.00668309
      3      C     1.24845521     0.78204558     0.02043098
      4      O     1.15663090     2.00334874     0.03293418
      5      C    -2.39559303    -0.54652070    -0.01146039
      6      C    -3.61609403     0.15859328    -0.00797097
      7      C    -4.83763663    -0.50573351    -0.03160069
      8      C    -4.87113604    -1.89907242    -0.06125341
      9      C    -3.67253739    -2.61892049    -0.06552200
     10      C    -2.45107479    -1.95604037    -0.04117351
     11      H    -3.59508436     1.24544157     0.01329927
     12      H    -5.76369889     0.06433952    -0.02865832
     13      H    -5.82413146    -2.42292614    -0.08060344
     14      H    -3.69643609    -3.70612895    -0.08768911
     15      H    -1.53547860    -2.54034316    -0.04543943
     16      H     0.39808713    -1.23198389    -0.01285303
     17      H     2.25370082     0.29636126     0.01134456
     18      H    -1.30611365     1.31413824     0.02346970
 
Total System Charge             0.00000
Bonding info available!
 
 *** GOStep5 ***

 Energy gradients wrt nuclear displacements
 ==========================================

     Atom      Cartesian (a.u./angstrom)
                 X         Y         Z
 ----------------------------------------
     1 C     0.000650  0.000248  0.001773
     2 C     0.000294 -0.001218 -0.000263
     3 C     0.000578 -0.003596  0.001165
     4 O     0.000208  0.002814 -0.000471
     5 C    -0.000349 -0.000271 -0.000121
     6 C     0.000398  0.000176 -0.000285
     7 C     0.000157  0.000533  0.000308
     8 C    -0.000063  0.000401 -0.000132
     9 C    -0.000675  0.000349  0.000066
    10 C    -0.000196  0.000234 -0.000228
    11 H     0.000312  0.000168 -0.000132
    12 H     0.000212  0.000535 -0.000052
    13 H    -0.000224  0.000777 -0.000019
    14 H    -0.000537  0.000420  0.000108
    15 H    -0.000488 -0.000028 -0.000053
    16 H    -0.000519 -0.000261 -0.000372
    17 H    -0.000016 -0.000938 -0.000435
    18 H     0.000260 -0.000344 -0.000858
 ----------------------------------------
 Mulliken charges used for AMS results%charges...

 dE(predicted):    -0.12231E-03, dE(actual):    -0.18534E-04, Trust radius:    0.200000, all in a.u.
 
----------------------------------------------------------------------
Geometry Convergence after Step   5       (Hartree/Angstrom,Angstrom)
----------------------------------------------------------------------
current energy                               -4.11556622 Hartree
energy change                      -0.00001853     0.00018000    T
constrained gradient max            0.00344619     0.00100000    F
constrained gradient rms            0.00073119     0.00066667    F
gradient max                        0.00344619
gradient rms                        0.00073119
cart. step max                      0.01459378     0.01000000    F
cart. step rms                      0.00346729     0.00666667    T
 
 
--------
Geometry
--------
Formula: C9H8O
Atoms
  Index Symbol   x (angstrom)   y (angstrom)   z (angstrom)
      1      C    -1.16345359     0.23364520    -0.00059285
      2      C     0.12552159    -0.17725233    -0.00032932
      3      C     1.24893171     0.78270609     0.02182657
      4      O     1.15751576     2.00321102     0.03826027
      5      C    -2.39558540    -0.54670409    -0.01847872
      6      C    -3.61623025     0.15842313    -0.00994379
      7      C    -4.83800873    -0.50577451    -0.03022564
      8      C    -4.87171607    -1.89921756    -0.05770357
      9      C    -3.67303518    -2.61922104    -0.06478876
     10      C    -2.45137990    -1.95644304    -0.04473755
     11      H    -3.59493913     1.24531523     0.01162089
     12      H    -5.76395835     0.06460306    -0.02418908
     13      H    -5.82483512    -2.42314536    -0.07315000
     14      H    -3.69724354    -3.70652315    -0.08595647
     15      H    -1.53583642    -2.54095998    -0.05026782
     16      H     0.39973624    -1.23118040    -0.01330674
     17      H     2.25427890     0.29679564     0.02593834
     18      H    -1.30623454     1.31399017     0.02199580
 
Total System Charge             0.00000
Bonding info available!
 
 *** GOStep6 ***

 Energy gradients wrt nuclear displacements
 ==========================================

     Atom      Cartesian (a.u./angstrom)
                 X         Y         Z
 ----------------------------------------
     1 C     0.000304  0.000088 -0.001251
     2 C     0.000341 -0.000702  0.000104
     3 C     0.000359 -0.001895 -0.000746
     4 O     0.000445  0.000768  0.000298
     5 C    -0.000130 -0.000109 -0.000043
     6 C     0.000275  0.000224  0.000215
     7 C     0.000049  0.000545 -0.000218
     8 C    -0.000190  0.000429  0.000095
     9 C    -0.000532  0.000270 -0.000060
    10 C    -0.000228  0.000116  0.000250
    11 H     0.000343  0.000232  0.000029
    12 H     0.000145  0.000615 -0.000019
    13 H    -0.000313  0.000719  0.000069
    14 H    -0.000562  0.000318 -0.000003
    15 H    -0.000432 -0.000097  0.000095
    16 H    -0.000301 -0.000414  0.000335
    17 H     0.000109 -0.000829  0.000228
    18 H     0.000317 -0.000276  0.000622
 ----------------------------------------
 Mulliken charges used for AMS results%charges...

 dE(predicted):    -0.13929E-04, dE(actual):    -0.96398E-05, Trust radius:    0.200000, all in a.u.
 
----------------------------------------------------------------------
Geometry Convergence after Step   6       (Hartree/Angstrom,Angstrom)
----------------------------------------------------------------------
current energy                               -4.11557586 Hartree
energy change                      -0.00000964     0.00018000    T
constrained gradient max            0.00140066     0.00100000    F
constrained gradient rms            0.00035699     0.00066667    T
gradient max                        0.00140066
gradient rms                        0.00035699
cart. step max                      0.00502435     0.01000000    T
cart. step rms                      0.00132982     0.00666667    T
 
 
--------
Geometry
--------
Formula: C9H8O
Atoms
  Index Symbol   x (angstrom)   y (angstrom)   z (angstrom)
      1      C    -1.16366293     0.23364374     0.00443150
      2      C     0.12536261    -0.17705067     0.00255393
      3      C     1.24907720     0.78257137     0.02106846
      4      O     1.15792478     2.00224297     0.03570852
      5      C    -2.39577388    -0.54652989    -0.01537708
      6      C    -3.61660849     0.15856955    -0.00896317
      7      C    -4.83832478    -0.50577513    -0.03048564
      8      C    -4.87173514    -1.89926832    -0.05902116
      9      C    -3.67283302    -2.61917882    -0.06500284
     10      C    -2.45125193    -1.95632276    -0.04335987
     11      H    -3.59540559     1.24550801     0.01264339
     12      H    -5.76432731     0.06463094    -0.02546201
     13      H    -5.82477508    -2.42340442    -0.07642703
     14      H    -3.69694280    -3.70652148    -0.08691647
     15      H    -1.53554585    -2.54074867    -0.04881236
     16      H     0.40006647    -1.23097123    -0.01304295
     17      H     2.25451853     0.29666830     0.02141733
     18      H    -1.30623481     1.31420460     0.02101902
 
Total System Charge             0.00000
Bonding info available!
 
 *** GOStep7 ***

 Energy gradients wrt nuclear displacements
 ==========================================

     Atom      Cartesian (a.u./angstrom)
                 X         Y         Z
 ----------------------------------------
     1 C     0.000159 -0.000204  0.000130
     2 C     0.000274 -0.000169  0.000071
     3 C     0.000160 -0.000066 -0.000224
     4 O     0.000597 -0.001576  0.000049
     5 C     0.000013 -0.000015  0.000031
     6 C     0.000115  0.000315 -0.000074
     7 C    -0.000001  0.000586  0.000002
     8 C    -0.000266  0.000467  0.000004
     9 C    -0.000376  0.000244  0.000062
    10 C    -0.000201  0.000055 -0.000007
    11 H     0.000341  0.000293 -0.000029
    12 H     0.000101  0.000683 -0.000009
    13 H    -0.000378  0.000682 -0.000003
    14 H    -0.000558  0.000254  0.000033
    15 H    -0.000335 -0.000166  0.000014
    16 H    -0.000147 -0.000530 -0.000027
    17 H     0.000150 -0.000678  0.000073
    18 H     0.000350 -0.000175 -0.000096
 ----------------------------------------
 Mulliken charges used for AMS results%charges...

 dE(predicted):    -0.44528E-05, dE(actual):    -0.11444E-04, Trust radius:    0.200000, all in a.u.
 
---------------------------------------------------------
Geometry Convergence after Step   7       ** CONVERGED **
---------------------------------------------------------
current energy                               -4.11558730 Hartree
energy change                      -0.00001144     0.00018000    T
constrained gradient max            0.00094080     0.00100000    T
constrained gradient rms            0.00016744     0.00066667    T
gradient max                        0.00094080
gradient rms                        0.00016744
cart. step max                      0.00199748     0.01000000    T
cart. step rms                      0.00043179     0.00666667    T
 
Geometry optimization converged

Optimized geometry:
 
--------
Geometry
--------
Formula: C9H8O
Atoms
  Index Symbol   x (angstrom)   y (angstrom)   z (angstrom)
      1      C    -1.16366293     0.23364374     0.00443150
      2      C     0.12536261    -0.17705067     0.00255393
      3      C     1.24907720     0.78257137     0.02106846
      4      O     1.15792478     2.00224297     0.03570852
      5      C    -2.39577388    -0.54652989    -0.01537708
      6      C    -3.61660849     0.15856955    -0.00896317
      7      C    -4.83832478    -0.50577513    -0.03048564
      8      C    -4.87173514    -1.89926832    -0.05902116
      9      C    -3.67283302    -2.61917882    -0.06500284
     10      C    -2.45125193    -1.95632276    -0.04335987
     11      H    -3.59540559     1.24550801     0.01264339
     12      H    -5.76432731     0.06463094    -0.02546201
     13      H    -5.82477508    -2.42340442    -0.07642703
     14      H    -3.69694280    -3.70652148    -0.08691647
     15      H    -1.53554585    -2.54074867    -0.04881236
     16      H     0.40006647    -1.23097123    -0.01304295
     17      H     2.25451853     0.29666830     0.02141733
     18      H    -1.30623481     1.31420460     0.02101902
 
Total System Charge             0.00000
Bonding info available!
 
Performing a single point calculation on the final geometry ...

 *** adf ***



 ===========================
 A T T A C H E D   F I L E S
 ===========================
  
 RestartZ:/SCMTMP/amstmp_ams_kid0.1835567044/GOStep7.rkf*** GOStep7 ***



 ===============================
 M O D E L   P A R A M E T E R S
 ===============================
  
 DENSITY FUNCTIONAL POTENTIAL (scf)
    LDA:                               Exchange only                           == Not Default ==
    Gradient Corrections:              OPTX LYP                                == Not Default ==

 SPIN  (restricted / unrestr.)
    Molecule:                          Restricted                               
    Fragments:                         Restricted                               

 OTHER ASPECTS
    Relativistic Corrections:          scalar (ZORA,MAPA)                       

    Nuclear Charge Density Model:      Point Charge Nuclei                      
    Core Treatment:                    Frozen Orbital(s)                        

    Hyperfine or Zeeman Interaction:   ---                                      



 ===============
 G E O M E T R Y  ***  3D  Molecule  ***
 ===============
  

 ATOMS
 =====                            X Y Z                    CHARGE
                                (Angstrom)             Nucl     +Core       At.Mass
                       --------------------------    ----------------       -------
    1  C              -1.1637    0.2336    0.0044      6.00      6.00       12.0000
    2  C               0.1254   -0.1771    0.0026      6.00      6.00       12.0000
    3  C               1.2491    0.7826    0.0211      6.00      6.00       12.0000
    4  O               1.1579    2.0022    0.0357      8.00      8.00       15.9949
    5  C              -2.3958   -0.5465   -0.0154      6.00      6.00       12.0000
    6  C              -3.6166    0.1586   -0.0090      6.00      6.00       12.0000
    7  C              -4.8383   -0.5058   -0.0305      6.00      6.00       12.0000
    8  C              -4.8717   -1.8993   -0.0590      6.00      6.00       12.0000
    9  C              -3.6728   -2.6192   -0.0650      6.00      6.00       12.0000
   10  C              -2.4513   -1.9563   -0.0434      6.00      6.00       12.0000
   11  H              -3.5954    1.2455    0.0126      1.00      1.00        1.0078
   12  H              -5.7643    0.0646   -0.0255      1.00      1.00        1.0078
   13  H              -5.8248   -2.4234   -0.0764      1.00      1.00        1.0078
   14  H              -3.6969   -3.7065   -0.0869      1.00      1.00        1.0078
   15  H              -1.5355   -2.5407   -0.0488      1.00      1.00        1.0078
   16  H               0.4001   -1.2310   -0.0130      1.00      1.00        1.0078
   17  H               2.2545    0.2967    0.0214      1.00      1.00        1.0078
   18  H              -1.3062    1.3142    0.0210      1.00      1.00        1.0078


 FRAGMENTS
 =========                                     Atoms in this Fragment     Cart. coord.s (Angstrom)
                                               -------------------------------------------------------
    1  C                                                 1  C           -1.1637    0.2336    0.0044
    2  C                                                 2  C            0.1254   -0.1771    0.0026
    3  C                                                 3  C            1.2491    0.7826    0.0211
    4  C                                                 5  C           -2.3958   -0.5465   -0.0154
    5  C                                                 6  C           -3.6166    0.1586   -0.0090
    6  C                                                 7  C           -4.8383   -0.5058   -0.0305
    7  C                                                 8  C           -4.8717   -1.8993   -0.0590
    8  C                                                 9  C           -3.6728   -2.6192   -0.0650
    9  C                                                10  C           -2.4513   -1.9563   -0.0434
   10  O                                                 4  O            1.1579    2.0022    0.0357
   11  H                                                11  H           -3.5954    1.2455    0.0126
   12  H                                                12  H           -5.7643    0.0646   -0.0255
   13  H                                                13  H           -5.8248   -2.4234   -0.0764
   14  H                                                14  H           -3.6969   -3.7065   -0.0869
   15  H                                                15  H           -1.5355   -2.5407   -0.0488
   16  H                                                16  H            0.4001   -1.2310   -0.0130
   17  H                                                17  H            2.2545    0.2967    0.0214
   18  H                                                18  H           -1.3062    1.3142    0.0210


 Interatomic Distance Matrix (Angstrom)
 --------------------------------------

   1)     0.000
   2)     1.353   0.000
   3)     2.474   1.478   0.000
   4)     2.919   2.412   1.223   0.000
   5)     1.458   2.548   3.880   4.374   0.000
   6)     2.454   3.757   4.906   5.118   1.410   0.000
   7)     3.748   4.975   6.222   6.500   2.443   1.391   0.000
   8)     4.278   5.286   6.683   7.182   2.822   2.411   1.394   0.000
   9)     3.800   4.516   5.984   6.686   2.435   2.779   2.414   1.398   0.000
  10)     2.541   3.132   4.604   5.357   1.411   2.415   2.793   2.421   1.390   0.000
  11)     2.634   3.983   4.867   4.813   2.157   1.087   2.148   3.395   3.866   3.401
          0.000
  12)     4.604   5.895   7.050   7.189   3.424   2.150   1.088   2.157   3.403   3.881
          2.470   0.000
  13)     5.366   6.361   7.767   8.268   3.910   3.398   2.157   1.088   2.161   3.406
          4.294   2.489   0.000
  14)     4.685   5.203   6.680   7.495   3.418   3.867   3.399   2.156   1.088   2.149
          4.954   4.301   2.485   0.000
  15)     2.800   2.889   4.336   5.282   2.172   3.409   3.879   3.397   2.139   1.086
          4.311   4.967   4.291   2.456   0.000
  16)     2.143   1.089   2.185   3.321   2.878   4.250   5.288   5.314   4.303   2.942
          4.701   6.299   6.338   4.787   2.337   0.000
  17)     3.419   2.181   1.117   2.028   4.726   5.873   7.138   7.457   6.606   5.218
          5.926   8.022   8.525   7.173   4.735   2.403   0.000
  18)     1.090   2.067   2.610   2.558   2.157   2.583   3.974   4.801   4.591   3.466
          2.290   4.630   5.865   5.562   3.862   3.064   3.703   0.000

 Min. Distance =    1.0863
 Max. Distance =    8.5255



 =====================================
 S Y M M E T R Y ,   E L E C T R O N S
 =====================================
  
 Symmetry: NOSYM

 Irreducible Representations, including subspecies
 -------------------------------------------------
 A


 Configuration of Valence Electrons
 ==================================
 ( determined in the SCF procedure )

 Total:   70

 Net Charge: 0 (Nuclei minus Electrons)

 Aufbau principle for MO occupations will be applied through SCF cycle no.     150
 Thereafter, the program will assign electrons to MOs that are spatially
 similar to the occupied MOs in a "reference" cycle ("KeepOrbitals").
 The reference cycle is always the PREVIOUS cycle: it will evolve with
 the SCF procedure.
1
 ***************************************************************************************************



                                      ****************************************
                                      *  B U I L D : (Fragments, Functions)  *
                                      ****************************************
  



 =======
 S F O s  ***  (Symmetrized Fragment Orbitals)  ***
 =======
  
 SFOs are linear combinations of (valence) Fragment Orbitals (FOs), such that the SFOs transform as the
 irreducible representations of the (molecular) symmetry group. Each SFO is therefore characterized by
 an irrep of the molecule and by a few (or only one) generating FOs.
 The SFOs constitute a symmetry-adapted basis for the Fock matrix. The MO eigenvector coefficients in
 this basis provide a direct interpretation of the MOs in terms of Frontier Orbital Theory.

 The SFOs are combined with auxiliary Core Functions (CFs) to ensure orthogonalization on the (frozen)
 Core Orbitals (COs). The Core-orthogonalized SFOs (CSFOs) constitute the true Fock basis.

 The FOs, and hence also the (C)SFOs are combinations of the elementary basis functions (BAS). The basis
 functions that participate in the description of the SFOs depend on the irrep. The indices of the
 involved functions are printed below for each irrep.
 (The complete list of primitive basis functions is printed in another section)

 Total nr. of (C)SFOs (summation over all irreps) :   348

 NOTE: a (C)SFO that is defined as a combination of more than one FO is usually NOT normalized.



                                       === A ===
 Nr. of SFOs :  348
 Cartesian basis functions that participate in this irrep (total number =   396) :
      1     2     3     4     5     6     9    12     7    10
     13     8    11    14    15    16    17    18    19    20
     21    22    23    24    25    26    27    28    29    30
     31    32    33    34    35    36    39    42    37    40
     43    38    41    44    45    46    47    48    49    50
     51    52    53    54    55    56    57    58    59    60
     61    62    63    64    65    66    69    72    67    70
     73    68    71    74    75    76    77    78    79    80
     81    82    83    84    85    86    87    88    89    90
     91    92    93    94    95    96    99   102    97   100
    103    98   101   104   105   106   107   108   109   110
    111   112   113   114   115   116   117   118   119   120
    121   122   123   124   125   126   129   132   127   130
    133   128   131   134   135   136   137   138   139   140
    141   142   143   144   145   146   147   148   149   150
    151   152   153   154   155   156   159   162   157   160
    163   158   161   164   165   166   167   168   169   170
    171   172   173   174   175   176   177   178   179   180
    181   182   183   184   185   186   189   192   187   190
    193   188   191   194   195   196   197   198   199   200
    201   202   203   204   205   206   207   208   209   210
    211   212   213   214   215   216   219   222   217   220
    223   218   221   224   225   226   227   228   229   230
    231   232   233   234   235   236   237   238   239   240
    241   242   243   244   245   246   249   252   247   250
    253   248   251   254   255   256   257   258   259   260
    261   262   263   264   265   266   267   268   269   270
    271   272   273   274   275   276   279   282   277   280
    283   278   281   284   285   286   287   288   289   290
    291   292   293   294   295   296   297   298   299   300
    301   302   303   304   305   306   307   308   309   310
    311   312   313   314   315   316   317   318   319   320
    321   322   323   324   325   326   327   328   329   330
    331   332   333   334   335   336   337   338   339   340
    341   342   343   344   345   346   347   348   349   350
    351   352   353   354   355   356   357   358   359   360
    361   362   363   364   365   366   367   368   369   370
    371   372   373   374   375   376   377   378   379   380
    381   382   383   384   385   386   387   388   389   390
    391   392   393   394   395   396

    SFO  (index         Fragment          Generating    Expansion in Fragment Orbitals
  indx  incl.CFs)   Occup   Orb.Energy   FragmentType  Coeff.   Orbital     on Fragment
 --------------------------------------------------------------------------------------
     1       1      2.000     -10.064 au  C             1.00      1 S               1
                        (    -273.865 eV)
     2       2      2.000      -0.507 au  C             1.00      2 S               1
                        (     -13.802 eV)
     3       3       --         0.384 au  C             1.00      3 S               1
                        (      10.456 eV)
     4       4       --         5.458 au  C             1.00      4 S               1
                        (     148.511 eV)
     5       5       --        49.970 au  C             1.00      5 S               1
                        (    1359.766 eV)
     6       6      0.667      -0.189 au  C             1.00      1 P:x             1
                        (      -5.135 eV)
     7       7       --         0.168 au  C             1.00      2 P:x             1
                        (       4.559 eV)
     8       8       --         2.056 au  C             1.00      3 P:x             1
                        (      55.959 eV)
     9       9      0.667      -0.189 au  C             1.00      1 P:y             1
                        (      -5.135 eV)
    10      10       --         0.168 au  C             1.00      2 P:y             1
                        (       4.559 eV)
    11      11       --         2.056 au  C             1.00      3 P:y             1
                        (      55.959 eV)
    12      12      0.667      -0.189 au  C             1.00      1 P:z             1
                        (      -5.135 eV)
    13      13       --         0.168 au  C             1.00      2 P:z             1
                        (       4.559 eV)
    14      14       --         2.056 au  C             1.00      3 P:z             1
                        (      55.959 eV)
    15      15       --         1.235 au  C             1.00      1 D:z2            1
                        (      33.605 eV)
    16      16       --         1.235 au  C             1.00      1 D:x2-y2         1
                        (      33.605 eV)
    17      17       --         1.235 au  C             1.00      1 D:xy            1
                        (      33.605 eV)
    18      18       --         1.235 au  C             1.00      1 D:xz            1
                        (      33.605 eV)
    19      19       --         1.235 au  C             1.00      1 D:yz            1
                        (      33.605 eV)
    20      20       --         4.005 au  C             1.00      1 F:z3            1
                        (     108.969 eV)
    21      21       --         4.005 au  C             1.00      1 F:z             1
                        (     108.969 eV)
    22      22       --         4.005 au  C             1.00      1 F:xyz           1
                        (     108.969 eV)
    23      23       --         4.005 au  C             1.00      1 F:z2x           1
                        (     108.969 eV)
    24      24       --         4.005 au  C             1.00      1 F:z2y           1
                        (     108.969 eV)
    25      25       --         4.005 au  C             1.00      1 F:x             1
                        (     108.969 eV)
    26      26       --         4.005 au  C             1.00      1 F:y             1
                        (     108.969 eV)
    27      27      2.000     -10.064 au  C             1.00      1 S               2
                        (    -273.865 eV)
    28      28      2.000      -0.507 au  C             1.00      2 S               2
                        (     -13.802 eV)
    29      29       --         0.384 au  C             1.00      3 S               2
                        (      10.456 eV)
    30      30       --         5.458 au  C             1.00      4 S               2
                        (     148.511 eV)
    31      31       --        49.970 au  C             1.00      5 S               2
                        (    1359.766 eV)
    32      32      0.667      -0.189 au  C             1.00      1 P:x             2
                        (      -5.135 eV)
    33      33       --         0.168 au  C             1.00      2 P:x             2
                        (       4.559 eV)
    34      34       --         2.056 au  C             1.00      3 P:x             2
                        (      55.959 eV)
    35      35      0.667      -0.189 au  C             1.00      1 P:y             2
                        (      -5.135 eV)
    36      36       --         0.168 au  C             1.00      2 P:y             2
                        (       4.559 eV)
    37      37       --         2.056 au  C             1.00      3 P:y             2
                        (      55.959 eV)
    38      38      0.667      -0.189 au  C             1.00      1 P:z             2
                        (      -5.135 eV)
    39      39       --         0.168 au  C             1.00      2 P:z             2
                        (       4.559 eV)
    40      40       --         2.056 au  C             1.00      3 P:z             2
                        (      55.959 eV)
    41      41       --         1.235 au  C             1.00      1 D:z2            2
                        (      33.605 eV)
    42      42       --         1.235 au  C             1.00      1 D:x2-y2         2
                        (      33.605 eV)
    43      43       --         1.235 au  C             1.00      1 D:xy            2
                        (      33.605 eV)
    44      44       --         1.235 au  C             1.00      1 D:xz            2
                        (      33.605 eV)
    45      45       --         1.235 au  C             1.00      1 D:yz            2
                        (      33.605 eV)
    46      46       --         4.005 au  C             1.00      1 F:z3            2
                        (     108.969 eV)
    47      47       --         4.005 au  C             1.00      1 F:z             2
                        (     108.969 eV)
    48      48       --         4.005 au  C             1.00      1 F:xyz           2
                        (     108.969 eV)
    49      49       --         4.005 au  C             1.00      1 F:z2x           2
                        (     108.969 eV)
    50      50       --         4.005 au  C             1.00      1 F:z2y           2
                        (     108.969 eV)
    51      51       --         4.005 au  C             1.00      1 F:x             2
                        (     108.969 eV)
    52      52       --         4.005 au  C             1.00      1 F:y             2
                        (     108.969 eV)
    53      53      2.000     -10.064 au  C             1.00      1 S               3
                        (    -273.865 eV)
    54      54      2.000      -0.507 au  C             1.00      2 S               3
                        (     -13.802 eV)
    55      55       --         0.384 au  C             1.00      3 S               3
                        (      10.456 eV)
    56      56       --         5.458 au  C             1.00      4 S               3
                        (     148.511 eV)
    57      57       --        49.970 au  C             1.00      5 S               3
                        (    1359.766 eV)
    58      58      0.667      -0.189 au  C             1.00      1 P:x             3
                        (      -5.135 eV)
    59      59       --         0.168 au  C             1.00      2 P:x             3
                        (       4.559 eV)
    60      60       --         2.056 au  C             1.00      3 P:x             3
                        (      55.959 eV)
    61      61      0.667      -0.189 au  C             1.00      1 P:y             3
                        (      -5.135 eV)
    62      62       --         0.168 au  C             1.00      2 P:y             3
                        (       4.559 eV)
    63      63       --         2.056 au  C             1.00      3 P:y             3
                        (      55.959 eV)
    64      64      0.667      -0.189 au  C             1.00      1 P:z             3
                        (      -5.135 eV)
    65      65       --         0.168 au  C             1.00      2 P:z             3
                        (       4.559 eV)
    66      66       --         2.056 au  C             1.00      3 P:z             3
                        (      55.959 eV)
    67      67       --         1.235 au  C             1.00      1 D:z2            3
                        (      33.605 eV)
    68      68       --         1.235 au  C             1.00      1 D:x2-y2         3
                        (      33.605 eV)
    69      69       --         1.235 au  C             1.00      1 D:xy            3
                        (      33.605 eV)
    70      70       --         1.235 au  C             1.00      1 D:xz            3
                        (      33.605 eV)
    71      71       --         1.235 au  C             1.00      1 D:yz            3
                        (      33.605 eV)
    72      72       --         4.005 au  C             1.00      1 F:z3            3
                        (     108.969 eV)
    73      73       --         4.005 au  C             1.00      1 F:z             3
                        (     108.969 eV)
    74      74       --         4.005 au  C             1.00      1 F:xyz           3
                        (     108.969 eV)
    75      75       --         4.005 au  C             1.00      1 F:z2x           3
                        (     108.969 eV)
    76      76       --         4.005 au  C             1.00      1 F:z2y           3
                        (     108.969 eV)
    77      77       --         4.005 au  C             1.00      1 F:x             3
                        (     108.969 eV)
    78      78       --         4.005 au  C             1.00      1 F:y             3
                        (     108.969 eV)
    79      79      2.000     -10.064 au  C             1.00      1 S               4
                        (    -273.865 eV)
    80      80      2.000      -0.507 au  C             1.00      2 S               4
                        (     -13.802 eV)
    81      81       --         0.384 au  C             1.00      3 S               4
                        (      10.456 eV)
    82      82       --         5.458 au  C             1.00      4 S               4
                        (     148.511 eV)
    83      83       --        49.970 au  C             1.00      5 S               4
                        (    1359.766 eV)
    84      84      0.667      -0.189 au  C             1.00      1 P:x             4
                        (      -5.135 eV)
    85      85       --         0.168 au  C             1.00      2 P:x             4
                        (       4.559 eV)
    86      86       --         2.056 au  C             1.00      3 P:x             4
                        (      55.959 eV)
    87      87      0.667      -0.189 au  C             1.00      1 P:y             4
                        (      -5.135 eV)
    88      88       --         0.168 au  C             1.00      2 P:y             4
                        (       4.559 eV)
    89      89       --         2.056 au  C             1.00      3 P:y             4
                        (      55.959 eV)
    90      90      0.667      -0.189 au  C             1.00      1 P:z             4
                        (      -5.135 eV)
    91      91       --         0.168 au  C             1.00      2 P:z             4
                        (       4.559 eV)
    92      92       --         2.056 au  C             1.00      3 P:z             4
                        (      55.959 eV)
    93      93       --         1.235 au  C             1.00      1 D:z2            4
                        (      33.605 eV)
    94      94       --         1.235 au  C             1.00      1 D:x2-y2         4
                        (      33.605 eV)
    95      95       --         1.235 au  C             1.00      1 D:xy            4
                        (      33.605 eV)
    96      96       --         1.235 au  C             1.00      1 D:xz            4
                        (      33.605 eV)
    97      97       --         1.235 au  C             1.00      1 D:yz            4
                        (      33.605 eV)
    98      98       --         4.005 au  C             1.00      1 F:z3            4
                        (     108.969 eV)
    99      99       --         4.005 au  C             1.00      1 F:z             4
                        (     108.969 eV)
   100     100       --         4.005 au  C             1.00      1 F:xyz           4
                        (     108.969 eV)
   101     101       --         4.005 au  C             1.00      1 F:z2x           4
                        (     108.969 eV)
   102     102       --         4.005 au  C             1.00      1 F:z2y           4
                        (     108.969 eV)
   103     103       --         4.005 au  C             1.00      1 F:x             4
                        (     108.969 eV)
   104     104       --         4.005 au  C             1.00      1 F:y             4
                        (     108.969 eV)
   105     105      2.000     -10.064 au  C             1.00      1 S               5
                        (    -273.865 eV)
   106     106      2.000      -0.507 au  C             1.00      2 S               5
                        (     -13.802 eV)
   107     107       --         0.384 au  C             1.00      3 S               5
                        (      10.456 eV)
   108     108       --         5.458 au  C             1.00      4 S               5
                        (     148.511 eV)
   109     109       --        49.970 au  C             1.00      5 S               5
                        (    1359.766 eV)
   110     110      0.667      -0.189 au  C             1.00      1 P:x             5
                        (      -5.135 eV)
   111     111       --         0.168 au  C             1.00      2 P:x             5
                        (       4.559 eV)
   112     112       --         2.056 au  C             1.00      3 P:x             5
                        (      55.959 eV)
   113     113      0.667      -0.189 au  C             1.00      1 P:y             5
                        (      -5.135 eV)
   114     114       --         0.168 au  C             1.00      2 P:y             5
                        (       4.559 eV)
   115     115       --         2.056 au  C             1.00      3 P:y             5
                        (      55.959 eV)
   116     116      0.667      -0.189 au  C             1.00      1 P:z             5
                        (      -5.135 eV)
   117     117       --         0.168 au  C             1.00      2 P:z             5
                        (       4.559 eV)
   118     118       --         2.056 au  C             1.00      3 P:z             5
                        (      55.959 eV)
   119     119       --         1.235 au  C             1.00      1 D:z2            5
                        (      33.605 eV)
   120     120       --         1.235 au  C             1.00      1 D:x2-y2         5
                        (      33.605 eV)
   121     121       --         1.235 au  C             1.00      1 D:xy            5
                        (      33.605 eV)
   122     122       --         1.235 au  C             1.00      1 D:xz            5
                        (      33.605 eV)
   123     123       --         1.235 au  C             1.00      1 D:yz            5
                        (      33.605 eV)
   124     124       --         4.005 au  C             1.00      1 F:z3            5
                        (     108.969 eV)
   125     125       --         4.005 au  C             1.00      1 F:z             5
                        (     108.969 eV)
   126     126       --         4.005 au  C             1.00      1 F:xyz           5
                        (     108.969 eV)
   127     127       --         4.005 au  C             1.00      1 F:z2x           5
                        (     108.969 eV)
   128     128       --         4.005 au  C             1.00      1 F:z2y           5
                        (     108.969 eV)
   129     129       --         4.005 au  C             1.00      1 F:x             5
                        (     108.969 eV)
   130     130       --         4.005 au  C             1.00      1 F:y             5
                        (     108.969 eV)
   131     131      2.000     -10.064 au  C             1.00      1 S               6
                        (    -273.865 eV)
   132     132      2.000      -0.507 au  C             1.00      2 S               6
                        (     -13.802 eV)
   133     133       --         0.384 au  C             1.00      3 S               6
                        (      10.456 eV)
   134     134       --         5.458 au  C             1.00      4 S               6
                        (     148.511 eV)
   135     135       --        49.970 au  C             1.00      5 S               6
                        (    1359.766 eV)
   136     136      0.667      -0.189 au  C             1.00      1 P:x             6
                        (      -5.135 eV)
   137     137       --         0.168 au  C             1.00      2 P:x             6
                        (       4.559 eV)
   138     138       --         2.056 au  C             1.00      3 P:x             6
                        (      55.959 eV)
   139     139      0.667      -0.189 au  C             1.00      1 P:y             6
                        (      -5.135 eV)
   140     140       --         0.168 au  C             1.00      2 P:y             6
                        (       4.559 eV)
   141     141       --         2.056 au  C             1.00      3 P:y             6
                        (      55.959 eV)
   142     142      0.667      -0.189 au  C             1.00      1 P:z             6
                        (      -5.135 eV)
   143     143       --         0.168 au  C             1.00      2 P:z             6
                        (       4.559 eV)
   144     144       --         2.056 au  C             1.00      3 P:z             6
                        (      55.959 eV)
   145     145       --         1.235 au  C             1.00      1 D:z2            6
                        (      33.605 eV)
   146     146       --         1.235 au  C             1.00      1 D:x2-y2         6
                        (      33.605 eV)
   147     147       --         1.235 au  C             1.00      1 D:xy            6
                        (      33.605 eV)
   148     148       --         1.235 au  C             1.00      1 D:xz            6
                        (      33.605 eV)
   149     149       --         1.235 au  C             1.00      1 D:yz            6
                        (      33.605 eV)
   150     150       --         4.005 au  C             1.00      1 F:z3            6
                        (     108.969 eV)
   151     151       --         4.005 au  C             1.00      1 F:z             6
                        (     108.969 eV)
   152     152       --         4.005 au  C             1.00      1 F:xyz           6
                        (     108.969 eV)
   153     153       --         4.005 au  C             1.00      1 F:z2x           6
                        (     108.969 eV)
   154     154       --         4.005 au  C             1.00      1 F:z2y           6
                        (     108.969 eV)
   155     155       --         4.005 au  C             1.00      1 F:x             6
                        (     108.969 eV)
   156     156       --         4.005 au  C             1.00      1 F:y             6
                        (     108.969 eV)
   157     157      2.000     -10.064 au  C             1.00      1 S               7
                        (    -273.865 eV)
   158     158      2.000      -0.507 au  C             1.00      2 S               7
                        (     -13.802 eV)
   159     159       --         0.384 au  C             1.00      3 S               7
                        (      10.456 eV)
   160     160       --         5.458 au  C             1.00      4 S               7
                        (     148.511 eV)
   161     161       --        49.970 au  C             1.00      5 S               7
                        (    1359.766 eV)
   162     162      0.667      -0.189 au  C             1.00      1 P:x             7
                        (      -5.135 eV)
   163     163       --         0.168 au  C             1.00      2 P:x             7
                        (       4.559 eV)
   164     164       --         2.056 au  C             1.00      3 P:x             7
                        (      55.959 eV)
   165     165      0.667      -0.189 au  C             1.00      1 P:y             7
                        (      -5.135 eV)
   166     166       --         0.168 au  C             1.00      2 P:y             7
                        (       4.559 eV)
   167     167       --         2.056 au  C             1.00      3 P:y             7
                        (      55.959 eV)
   168     168      0.667      -0.189 au  C             1.00      1 P:z             7
                        (      -5.135 eV)
   169     169       --         0.168 au  C             1.00      2 P:z             7
                        (       4.559 eV)
   170     170       --         2.056 au  C             1.00      3 P:z             7
                        (      55.959 eV)
   171     171       --         1.235 au  C             1.00      1 D:z2            7
                        (      33.605 eV)
   172     172       --         1.235 au  C             1.00      1 D:x2-y2         7
                        (      33.605 eV)
   173     173       --         1.235 au  C             1.00      1 D:xy            7
                        (      33.605 eV)
   174     174       --         1.235 au  C             1.00      1 D:xz            7
                        (      33.605 eV)
   175     175       --         1.235 au  C             1.00      1 D:yz            7
                        (      33.605 eV)
   176     176       --         4.005 au  C             1.00      1 F:z3            7
                        (     108.969 eV)
   177     177       --         4.005 au  C             1.00      1 F:z             7
                        (     108.969 eV)
   178     178       --         4.005 au  C             1.00      1 F:xyz           7
                        (     108.969 eV)
   179     179       --         4.005 au  C             1.00      1 F:z2x           7
                        (     108.969 eV)
   180     180       --         4.005 au  C             1.00      1 F:z2y           7
                        (     108.969 eV)
   181     181       --         4.005 au  C             1.00      1 F:x             7
                        (     108.969 eV)
   182     182       --         4.005 au  C             1.00      1 F:y             7
                        (     108.969 eV)
   183     183      2.000     -10.064 au  C             1.00      1 S               8
                        (    -273.865 eV)
   184     184      2.000      -0.507 au  C             1.00      2 S               8
                        (     -13.802 eV)
   185     185       --         0.384 au  C             1.00      3 S               8
                        (      10.456 eV)
   186     186       --         5.458 au  C             1.00      4 S               8
                        (     148.511 eV)
   187     187       --        49.970 au  C             1.00      5 S               8
                        (    1359.766 eV)
   188     188      0.667      -0.189 au  C             1.00      1 P:x             8
                        (      -5.135 eV)
   189     189       --         0.168 au  C             1.00      2 P:x             8
                        (       4.559 eV)
   190     190       --         2.056 au  C             1.00      3 P:x             8
                        (      55.959 eV)
   191     191      0.667      -0.189 au  C             1.00      1 P:y             8
                        (      -5.135 eV)
   192     192       --         0.168 au  C             1.00      2 P:y             8
                        (       4.559 eV)
   193     193       --         2.056 au  C             1.00      3 P:y             8
                        (      55.959 eV)
   194     194      0.667      -0.189 au  C             1.00      1 P:z             8
                        (      -5.135 eV)
   195     195       --         0.168 au  C             1.00      2 P:z             8
                        (       4.559 eV)
   196     196       --         2.056 au  C             1.00      3 P:z             8
                        (      55.959 eV)
   197     197       --         1.235 au  C             1.00      1 D:z2            8
                        (      33.605 eV)
   198     198       --         1.235 au  C             1.00      1 D:x2-y2         8
                        (      33.605 eV)
   199     199       --         1.235 au  C             1.00      1 D:xy            8
                        (      33.605 eV)
   200     200       --         1.235 au  C             1.00      1 D:xz            8
                        (      33.605 eV)
   201     201       --         1.235 au  C             1.00      1 D:yz            8
                        (      33.605 eV)
   202     202       --         4.005 au  C             1.00      1 F:z3            8
                        (     108.969 eV)
   203     203       --         4.005 au  C             1.00      1 F:z             8
                        (     108.969 eV)
   204     204       --         4.005 au  C             1.00      1 F:xyz           8
                        (     108.969 eV)
   205     205       --         4.005 au  C             1.00      1 F:z2x           8
                        (     108.969 eV)
   206     206       --         4.005 au  C             1.00      1 F:z2y           8
                        (     108.969 eV)
   207     207       --         4.005 au  C             1.00      1 F:x             8
                        (     108.969 eV)
   208     208       --         4.005 au  C             1.00      1 F:y             8
                        (     108.969 eV)
   209     209      2.000     -10.064 au  C             1.00      1 S               9
                        (    -273.865 eV)
   210     210      2.000      -0.507 au  C             1.00      2 S               9
                        (     -13.802 eV)
   211     211       --         0.384 au  C             1.00      3 S               9
                        (      10.456 eV)
   212     212       --         5.458 au  C             1.00      4 S               9
                        (     148.511 eV)
   213     213       --        49.970 au  C             1.00      5 S               9
                        (    1359.766 eV)
   214     214      0.667      -0.189 au  C             1.00      1 P:x             9
                        (      -5.135 eV)
   215     215       --         0.168 au  C             1.00      2 P:x             9
                        (       4.559 eV)
   216     216       --         2.056 au  C             1.00      3 P:x             9
                        (      55.959 eV)
   217     217      0.667      -0.189 au  C             1.00      1 P:y             9
                        (      -5.135 eV)
   218     218       --         0.168 au  C             1.00      2 P:y             9
                        (       4.559 eV)
   219     219       --         2.056 au  C             1.00      3 P:y             9
                        (      55.959 eV)
   220     220      0.667      -0.189 au  C             1.00      1 P:z             9
                        (      -5.135 eV)
   221     221       --         0.168 au  C             1.00      2 P:z             9
                        (       4.559 eV)
   222     222       --         2.056 au  C             1.00      3 P:z             9
                        (      55.959 eV)
   223     223       --         1.235 au  C             1.00      1 D:z2            9
                        (      33.605 eV)
   224     224       --         1.235 au  C             1.00      1 D:x2-y2         9
                        (      33.605 eV)
   225     225       --         1.235 au  C             1.00      1 D:xy            9
                        (      33.605 eV)
   226     226       --         1.235 au  C             1.00      1 D:xz            9
                        (      33.605 eV)
   227     227       --         1.235 au  C             1.00      1 D:yz            9
                        (      33.605 eV)
   228     228       --         4.005 au  C             1.00      1 F:z3            9
                        (     108.969 eV)
   229     229       --         4.005 au  C             1.00      1 F:z             9
                        (     108.969 eV)
   230     230       --         4.005 au  C             1.00      1 F:xyz           9
                        (     108.969 eV)
   231     231       --         4.005 au  C             1.00      1 F:z2x           9
                        (     108.969 eV)
   232     232       --         4.005 au  C             1.00      1 F:z2y           9
                        (     108.969 eV)
   233     233       --         4.005 au  C             1.00      1 F:x             9
                        (     108.969 eV)
   234     234       --         4.005 au  C             1.00      1 F:y             9
                        (     108.969 eV)
   235     235      2.000     -18.926 au  O             1.00      1 S              10
                        (    -515.001 eV)
   236     236      2.000      -0.887 au  O             1.00      2 S              10
                        (     -24.136 eV)
   237     237       --         0.804 au  O             1.00      3 S              10
                        (      21.890 eV)
   238     238       --        13.488 au  O             1.00      4 S              10
                        (     367.032 eV)
   239     239       --       121.767 au  O             1.00      5 S              10
                        (    3313.451 eV)
   240     240      1.333      -0.329 au  O             1.00      1 P:x            10
                        (      -8.949 eV)
   241     241       --         0.351 au  O             1.00      2 P:x            10
                        (       9.557 eV)
   242     242       --         3.863 au  O             1.00      3 P:x            10
                        (     105.120 eV)
   243     243      1.333      -0.329 au  O             1.00      1 P:y            10
                        (      -8.949 eV)
   244     244       --         0.351 au  O             1.00      2 P:y            10
                        (       9.557 eV)
   245     245       --         3.863 au  O             1.00      3 P:y            10
                        (     105.120 eV)
   246     246      1.333      -0.329 au  O             1.00      1 P:z            10
                        (      -8.949 eV)
   247     247       --         0.351 au  O             1.00      2 P:z            10
                        (       9.557 eV)
   248     248       --         3.863 au  O             1.00      3 P:z            10
                        (     105.120 eV)
   249     249       --         1.072 au  O             1.00      1 D:z2           10
                        (      29.175 eV)
   250     250       --         1.072 au  O             1.00      1 D:x2-y2        10
                        (      29.175 eV)
   251     251       --         1.072 au  O             1.00      1 D:xy           10
                        (      29.175 eV)
   252     252       --         1.072 au  O             1.00      1 D:xz           10
                        (      29.175 eV)
   253     253       --         1.072 au  O             1.00      1 D:yz           10
                        (      29.175 eV)
   254     254       --         3.353 au  O             1.00      1 F:z3           10
                        (      91.230 eV)
   255     255       --         3.353 au  O             1.00      1 F:z            10
                        (      91.230 eV)
   256     256       --         3.353 au  O             1.00      1 F:xyz          10
                        (      91.230 eV)
   257     257       --         3.353 au  O             1.00      1 F:z2x          10
                        (      91.230 eV)
   258     258       --         3.353 au  O             1.00      1 F:z2y          10
                        (      91.230 eV)
   259     259       --         3.353 au  O             1.00      1 F:x            10
                        (      91.230 eV)
   260     260       --         3.353 au  O             1.00      1 F:y            10
                        (      91.230 eV)
   261     261      1.000      -0.238 au  H             1.00      1 S              11
                        (      -6.484 eV)
   262     262       --         0.077 au  H             1.00      2 S              11
                        (       2.096 eV)
   263     263       --         1.521 au  H             1.00      3 S              11
                        (      41.380 eV)
   264     264       --         0.410 au  H             1.00      1 P:x            11
                        (      11.162 eV)
   265     265       --         0.410 au  H             1.00      1 P:y            11
                        (      11.162 eV)
   266     266       --         0.410 au  H             1.00      1 P:z            11
                        (      11.162 eV)
   267     267       --         2.567 au  H             1.00      1 D:z2           11
                        (      69.838 eV)
   268     268       --         2.567 au  H             1.00      1 D:x2-y2        11
                        (      69.838 eV)
   269     269       --         2.567 au  H             1.00      1 D:xy           11
                        (      69.838 eV)
   270     270       --         2.567 au  H             1.00      1 D:xz           11
                        (      69.838 eV)
   271     271       --         2.567 au  H             1.00      1 D:yz           11
                        (      69.838 eV)
   272     272      1.000      -0.238 au  H             1.00      1 S              12
                        (      -6.484 eV)
   273     273       --         0.077 au  H             1.00      2 S              12
                        (       2.096 eV)
   274     274       --         1.521 au  H             1.00      3 S              12
                        (      41.380 eV)
   275     275       --         0.410 au  H             1.00      1 P:x            12
                        (      11.162 eV)
   276     276       --         0.410 au  H             1.00      1 P:y            12
                        (      11.162 eV)
   277     277       --         0.410 au  H             1.00      1 P:z            12
                        (      11.162 eV)
   278     278       --         2.567 au  H             1.00      1 D:z2           12
                        (      69.838 eV)
   279     279       --         2.567 au  H             1.00      1 D:x2-y2        12
                        (      69.838 eV)
   280     280       --         2.567 au  H             1.00      1 D:xy           12
                        (      69.838 eV)
   281     281       --         2.567 au  H             1.00      1 D:xz           12
                        (      69.838 eV)
   282     282       --         2.567 au  H             1.00      1 D:yz           12
                        (      69.838 eV)
   283     283      1.000      -0.238 au  H             1.00      1 S              13
                        (      -6.484 eV)
   284     284       --         0.077 au  H             1.00      2 S              13
                        (       2.096 eV)
   285     285       --         1.521 au  H             1.00      3 S              13
                        (      41.380 eV)
   286     286       --         0.410 au  H             1.00      1 P:x            13
                        (      11.162 eV)
   287     287       --         0.410 au  H             1.00      1 P:y            13
                        (      11.162 eV)
   288     288       --         0.410 au  H             1.00      1 P:z            13
                        (      11.162 eV)
   289     289       --         2.567 au  H             1.00      1 D:z2           13
                        (      69.838 eV)
   290     290       --         2.567 au  H             1.00      1 D:x2-y2        13
                        (      69.838 eV)
   291     291       --         2.567 au  H             1.00      1 D:xy           13
                        (      69.838 eV)
   292     292       --         2.567 au  H             1.00      1 D:xz           13
                        (      69.838 eV)
   293     293       --         2.567 au  H             1.00      1 D:yz           13
                        (      69.838 eV)
   294     294      1.000      -0.238 au  H             1.00      1 S              14
                        (      -6.484 eV)
   295     295       --         0.077 au  H             1.00      2 S              14
                        (       2.096 eV)
   296     296       --         1.521 au  H             1.00      3 S              14
                        (      41.380 eV)
   297     297       --         0.410 au  H             1.00      1 P:x            14
                        (      11.162 eV)
   298     298       --         0.410 au  H             1.00      1 P:y            14
                        (      11.162 eV)
   299     299       --         0.410 au  H             1.00      1 P:z            14
                        (      11.162 eV)
   300     300       --         2.567 au  H             1.00      1 D:z2           14
                        (      69.838 eV)
   301     301       --         2.567 au  H             1.00      1 D:x2-y2        14
                        (      69.838 eV)
   302     302       --         2.567 au  H             1.00      1 D:xy           14
                        (      69.838 eV)
   303     303       --         2.567 au  H             1.00      1 D:xz           14
                        (      69.838 eV)
   304     304       --         2.567 au  H             1.00      1 D:yz           14
                        (      69.838 eV)
   305     305      1.000      -0.238 au  H             1.00      1 S              15
                        (      -6.484 eV)
   306     306       --         0.077 au  H             1.00      2 S              15
                        (       2.096 eV)
   307     307       --         1.521 au  H             1.00      3 S              15
                        (      41.380 eV)
   308     308       --         0.410 au  H             1.00      1 P:x            15
                        (      11.162 eV)
   309     309       --         0.410 au  H             1.00      1 P:y            15
                        (      11.162 eV)
   310     310       --         0.410 au  H             1.00      1 P:z            15
[...]
                                   -1.44%     3 S              10.456  0.00     1 C
                                   -1.43%     2 P:y             4.559  0.00     2 C
                                   -1.42%     2 P:x             4.559  0.00     7 C
                                   -1.29%     2 P:x             4.559  0.00     2 C
                                    1.24%     1 S              -6.484  1.00    18 H
                                   -1.05%     2 P:x             4.559  0.00     3 C
                                   -1.04%     2 P:y             4.559  0.00     1 C
       0.398  0.00    42 A         20.08%     2 S               2.096  0.00    13 H
                                   16.69%     2 S               2.096  0.00    17 H
                                   16.21%     2 S               2.096  0.00    15 H
                                   16.12%     1 S              -6.484  1.00    17 H
                                   14.48%     1 S              -6.484  1.00    13 H
                                  -12.71%     2 P:x             4.559  0.00     7 C
                                   12.14%     2 S               2.096  0.00    18 H
                                   11.71%     1 S              -6.484  1.00    15 H
                                   11.69%     2 S               2.096  0.00    11 H
                                   10.63%     2 S               2.096  0.00    12 H
                                   10.23%     1 S              -6.484  1.00    18 H
                                   -9.67%     2 P:x             4.559  0.00     3 C
                                    9.41%     1 S              -6.484  1.00    11 H
                                   -9.03%     2 P:x             4.559  0.00     6 C
                                   -8.72%     2 P:x             4.559  0.00     2 C
                                    8.57%     2 S               2.096  0.00    14 H
                                   -7.42%     2 P:y             4.559  0.00     5 C
                                    7.08%     1 S              -6.484  1.00    12 H
                                    5.88%     1 S              -6.484  1.00    14 H
                                   -5.11%     2 P:y             4.559  0.00     1 C
                                   -4.92%     2 P:x             4.559  0.00     5 C
                                   -4.22%     2 P:y             4.559  0.00     8 C
                                   -4.15%     2 P:x             4.559  0.00     1 C
                                   -3.68%     2 P:x             4.559  0.00     9 C
                                   -3.04%     1 P:x            -5.135  0.67     2 C
                                   -2.20%     2 P:x             4.559  0.00     8 C
                                    2.19%     2 P:y             4.559  0.00     4 C
                                   -1.99%     2 P:y             4.559  0.00     9 C
                                    1.75%     1 P:y            -5.135  0.67     1 C
                                   -1.63%     1 P:x            -5.135  0.67     7 C
                                   -1.55%     1 P:x            -5.135  0.67     6 C
                                   -1.30%     1 P:x            -5.135  0.67     1 C
                                    1.26%     1 S              -6.484  1.00    16 H
                                    1.14%     1 P:y            -5.135  0.67     7 C
                                   -1.12%     1 P:x            -5.135  0.67     3 C
                                    1.11%     1 P:x            -5.135  0.67     9 C
                                    1.09%     2 S             -13.802  2.00     3 C
                                   -1.01%     1 P:x            -5.135  0.67     5 C
       0.770  0.00    43 A         32.99%     1 P:z            -5.135  0.67     2 C
                                   25.90%     1 P:z            -5.135  0.67     3 C
                                   20.21%     1 P:z            -5.135  0.67     1 C
                                    8.77%     1 P:z            -5.135  0.67     7 C
                                    8.74%     1 P:z            -5.135  0.67     6 C
                                    8.18%     1 P:z            -8.949  1.33    10 O
                                   -7.18%     2 P:z             4.559  0.00     2 C
                                    4.11%     1 P:z            -5.135  0.67     8 C
                                   -3.99%     2 P:z             4.559  0.00     1 C
                                   -2.86%     2 P:z             4.559  0.00     3 C
                                   -2.20%     2 P:z             9.557  0.00    10 O
                                    2.15%     1 P:z            -5.135  0.67     5 C
                                    2.09%     1 P:z            11.162  0.00    16 H
                                   -1.77%     2 P:z             4.559  0.00     7 C
                                    1.60%     1 P:z            -5.135  0.67     4 C
                                   -1.30%     2 P:z             4.559  0.00     6 C
                                    1.24%     1 P:z            11.162  0.00    17 H
                                    1.12%     1 P:z            11.162  0.00    18 H
                                   -1.10%     2 P:z             4.559  0.00     8 C
       0.845  0.00    44 A         23.15%     2 S               2.096  0.00    17 H
                                   19.07%     2 S               2.096  0.00    12 H
                                   18.77%     2 S               2.096  0.00    18 H
                                   18.76%     1 S              -6.484  1.00    12 H
                                   13.89%     1 S              -6.484  1.00    18 H
                                   12.60%     1 S              -6.484  1.00    17 H
                                  -12.29%     2 P:x             4.559  0.00     6 C
                                  -10.94%     2 P:y             4.559  0.00     1 C
                                   10.79%     1 S              -6.484  1.00    15 H
                                   -8.11%     2 P:x             4.559  0.00     9 C
                                    7.61%     2 S               2.096  0.00    14 H
                                    6.34%     2 S               2.096  0.00    15 H
                                    4.61%     2 S               2.096  0.00    13 H
                                   -4.54%     2 P:y             4.559  0.00     6 C
                                    4.54%     1 S              -6.484  1.00    14 H
                                    4.34%     1 S              -6.484  1.00    13 H
                                    4.14%     1 S              -6.484  1.00    16 H
                                   -4.12%     2 P:y             4.559  0.00     2 C
                                   -4.04%     2 P:y             4.559  0.00     8 C
                                   -3.96%     2 P:x             4.559  0.00     3 C
                                    3.26%     2 S               2.096  0.00    11 H
                                   -3.03%     3 S              10.456  0.00     3 C
                                   -2.76%     2 P:y             4.559  0.00     5 C
                                    2.00%     1 S              -6.484  1.00    11 H
                                   -1.99%     2 P:y             4.559  0.00     7 C
                                   -1.86%     2 P:x             4.559  0.00     5 C
                                    1.57%     3 S              41.380  0.00    12 H
                                    1.44%     1 P:x            -5.135  0.67     7 C
                                    1.42%     1 P:y            -5.135  0.67     3 C
                                   -1.40%     2 P:y             4.559  0.00     9 C
                                    1.34%     2 S             -13.802  2.00     6 C
                                   -1.23%     3 S              10.456  0.00     6 C
                                   -1.15%     2 S               2.096  0.00    16 H
                                   -1.09%     3 S              10.456  0.00     1 C
                                    1.06%     3 S              41.380  0.00    15 H
       1.251  0.00    45 A         24.02%     1 S              -6.484  1.00    13 H
                                   23.23%     1 S              -6.484  1.00    14 H
                                  -18.92%     2 P:y             4.559  0.00     8 C
                                   16.66%     2 S               2.096  0.00    13 H
                                  -15.79%     2 P:x             4.559  0.00     7 C
                                   13.60%     2 S               2.096  0.00    18 H
                                   12.84%     1 S              -6.484  1.00    18 H
                                   12.57%     2 S               2.096  0.00    14 H
                                   12.26%     2 S               2.096  0.00    16 H
                                   11.18%     1 S              -6.484  1.00    17 H
                                   -9.68%     2 P:x             4.559  0.00     3 C
                                    9.17%     1 S              -6.484  1.00    16 H
                                    8.89%     1 S              -6.484  1.00    12 H
                                    5.06%     2 S               2.096  0.00    12 H
                                   -4.79%     2 P:y             4.559  0.00     2 C
                                   -4.46%     2 P:x             4.559  0.00     9 C
                                   -3.59%     2 P:y             4.559  0.00     6 C
                                    3.52%     2 S               2.096  0.00    15 H
                                    3.37%     1 S              -6.484  1.00    15 H
                                   -3.24%     2 P:y             4.559  0.00     1 C
                                    3.00%     2 S               2.096  0.00    17 H
                                    2.94%     1 P:y            -5.135  0.67     1 C
                                   -2.81%     2 P:x             4.559  0.00     6 C
                                   -2.80%     2 P:x             4.559  0.00     4 C
                                   -2.58%     2 P:y             4.559  0.00     7 C
                                    2.46%     2 P:y             4.559  0.00     9 C
                                    2.42%     3 S              41.380  0.00    13 H
                                    2.36%     3 S              41.380  0.00    14 H
                                    2.11%     1 P:x            -5.135  0.67     6 C
                                   -2.11%     1 P:x            -5.135  0.67     3 C
                                   -1.94%     2 P:x             4.559  0.00     2 C
                                   -1.84%     1 P:x            -5.135  0.67     7 C
                                   -1.79%     3 S              10.456  0.00     4 C
                                    1.74%     2 S             -13.802  2.00     7 C
                                    1.73%     1 P:y            -5.135  0.67     9 C
                                    1.70%     2 S             -13.802  2.00     8 C
                                   -1.54%     1 P:y            -5.135  0.67     8 C
                                   -1.52%     3 S              10.456  0.00     2 C
                                   -1.42%     3 S              10.456  0.00     1 C
                                   -1.37%     1 P:y            -5.135  0.67     6 C
                                   -1.29%     1 P:x            -5.135  0.67     9 C
                                    1.15%     2 S             -13.802  2.00     3 C
                                   -1.01%     1 P:x            -5.135  0.67     4 C
                                    1.00%     3 S              41.380  0.00    17 H
       2.128  0.00    46 A         37.31%     1 S              -6.484  1.00    11 H
                                   28.31%     1 S              -6.484  1.00    18 H
                                  -19.94%     2 P:y             4.559  0.00     5 C
                                   13.78%     1 S              -6.484  1.00    12 H
                                   13.63%     2 S               2.096  0.00    18 H
                                  -13.22%     2 P:y             4.559  0.00     1 C
                                   10.59%     2 S               2.096  0.00    11 H
                                  -10.49%     2 P:x             4.559  0.00     6 C
                                    9.73%     2 P:y             4.559  0.00     3 C
                                    5.36%     1 P:y            -5.135  0.67     3 C
                                    5.35%     1 S              -6.484  1.00    13 H
                                    4.46%     2 S               2.096  0.00    15 H
                                    4.07%     2 S               2.096  0.00    12 H
                                    4.01%     1 S              -6.484  1.00    16 H
                                   -3.69%     2 P:x             4.559  0.00     2 C
                                    3.66%     3 S              41.380  0.00    11 H
                                    3.65%     2 P:x             4.559  0.00     1 C
                                    3.23%     2 P:x             4.559  0.00     8 C
                                   -3.14%     3 S              21.890  0.00    10 O
                                   -2.93%     2 S               2.096  0.00    16 H
                                    2.93%     2 P:y             4.559  0.00     6 C
                                    2.60%     2 P:y             4.559  0.00     2 C
                                   -2.54%     2 P:x             4.559  0.00     4 C
                                    2.36%     2 S             -13.802  2.00     5 C
                                   -2.26%     2 P:y             4.559  0.00     7 C
                                   -2.11%     1 P:x            -5.135  0.67     4 C
                                    1.98%     3 S              41.380  0.00    12 H
                                   -1.92%     1 P:x            -5.135  0.67     2 C
                                    1.91%     1 P:y            -5.135  0.67     6 C
                                    1.90%     1 P:x            -5.135  0.67     8 C
                                    1.79%     2 S               2.096  0.00    17 H
                                   -1.77%     2 P:y             4.559  0.00     9 C
                                   -1.59%     3 S              10.456  0.00     1 C
                                   -1.57%     3 S              10.456  0.00     5 C
                                   -1.48%     1 P:x            -5.135  0.67     6 C
                                    1.37%     1 P:x            -5.135  0.67     7 C
                                   -1.32%     2 S             -13.802  2.00     3 C
                                   -1.25%     3 S              10.456  0.00     3 C
                                   -1.21%     2 P:x             4.559  0.00     7 C
                                    1.18%     1 P:x            -5.135  0.67     1 C
                                   -1.14%     1 P:y            -5.135  0.67     7 C
                                    1.05%     2 S               2.096  0.00    13 H
                                    1.04%     1 P:y            -5.135  0.67     1 C
                                    1.00%     1 S              -6.484  1.00    15 H

 Energy gradients wrt nuclear displacements
 ==========================================

     Atom      Cartesian (a.u./angstrom)
                 X         Y         Z
 ----------------------------------------
     1 C     0.000159 -0.000204  0.000130
     2 C     0.000274 -0.000169  0.000071
     3 C     0.000160 -0.000066 -0.000224
     4 O     0.000597 -0.001576  0.000049
     5 C     0.000013 -0.000015  0.000031
     6 C     0.000115  0.000315 -0.000074
     7 C    -0.000001  0.000586  0.000002
     8 C    -0.000266  0.000467  0.000004
     9 C    -0.000376  0.000244  0.000062
    10 C    -0.000201  0.000055 -0.000007
    11 H     0.000341  0.000293 -0.000029
    12 H     0.000101  0.000683 -0.000009
    13 H    -0.000378  0.000682 -0.000003
    14 H    -0.000558  0.000254  0.000033
    15 H    -0.000335 -0.000166  0.000014
    16 H    -0.000147 -0.000530 -0.000027
    17 H     0.000150 -0.000678  0.000073
    18 H     0.000350 -0.000175 -0.000096
 ----------------------------------------



 =======================================================================
 Electrostatic potential at the Nuclei due to electrons and other nuclei
 =======================================================================
  
         Atom                  Potential
         ----                  ---------
     1)   C                  14.76234613
     2)   C                  14.77930110
     3)   C                  14.71767423
     4)   O                  22.41135796
     5)   C                  14.75652313
     6)   C                  14.77058817
     7)   C                  14.77237028
     8)   C                  14.76950784
     9)   C                  14.77103376
    10)   C                  14.76880826
    11)   H                   1.09392955
    12)   H                   1.09439100
    13)   H                   1.09307891
    14)   H                   1.09416116
    15)   H                   1.09243385
    16)   H                   1.09362793
    17)   H                   1.10940877
    18)   H                   1.09887387
 Mulliken charges used for AMS results%charges...


    =====================
     CALCULATION RESULTS
    =====================

Energy (hartree)            -4.11558730

Gradients (hartree/bohr)
  Index   Atom            d/dx            d/dy            d/dz
      1      C    0.0000842332   -0.0001079492    0.0000689538
      2      C    0.0001449815   -0.0000893732    0.0000373521
      3      C    0.0000848122   -0.0000347893   -0.0001187269
      4      O    0.0003157785   -0.0008340659    0.0000257515
      5      C    0.0000070458   -0.0000079660    0.0000166293
      6      C    0.0000611126    0.0001668979   -0.0000390501
      7      C   -0.0000006946    0.0003101519    0.0000011886
      8      C   -0.0001405770    0.0002469544    0.0000020688
      9      C   -0.0001990622    0.0001290087    0.0000329356
     10      C   -0.0001061494    0.0000290628   -0.0000038070
     11      H    0.0001805561    0.0001551038   -0.0000153599
     12      H    0.0000536119    0.0003613835   -0.0000047954
     13      H   -0.0001998087    0.0003607788   -0.0000018400
     14      H   -0.0002951398    0.0001346362    0.0000175804
     15      H   -0.0001774226   -0.0000876916    0.0000073425
     16      H   -0.0000776343   -0.0002804285   -0.0000143360
     17      H    0.0000792991   -0.0003590449    0.0000388233
     18      H    0.0001850579   -0.0000926694   -0.0000507106


--------------
Atomic charges
--------------
  Index   Atom    Charge
      1      C    0.3087
      2      C    0.1735
      3      C    0.6417
      4      O   -0.5024
      5      C   -0.0083
      6      C    0.3043
      7      C    0.2400
      8      C    0.2564
      9      C    0.2448
     10      C    0.2831
     11      H   -0.2490
     12      H   -0.2445
     13      H   -0.2409
     14      H   -0.2454
     15      H   -0.2488
     16      H   -0.2409
     17      H   -0.2792
     18      H   -0.1929


Dipole moment vector    (Debye):    -2.51115344   -3.18479976   -0.05883766
              magnitude (Debye):     4.05614386


AMS application finished. Exiting.
NORMAL TERMINATION
     Total cpu time:     207.64
  Total system time:       7.80
 Total elapsed time:     230.99
