

 Parallel Execution: Process Information
 ==============================================================================
 Rank   Node Name                              NodeID   MyNodeRank  NodeMaster
    0   DESKTOP-1M8FOJT                           0          0          0
    1   DESKTOP-1M8FOJT                           0          1         -1
    2   DESKTOP-1M8FOJT                           0          2         -1
    3   DESKTOP-1M8FOJT                           0          3         -1
 ==============================================================================


May use up to 4096MB of RAM as shared memory on node 0

 *******************************************************************************
 *                                                                             *
 *  --------------------------------                                           *
 *   Amsterdam Modeling Suite (AMS)              2021.106                      *
 *  --------------------------------                                           *
 *                                               r99350 2021-12-03             *
 *                                                                             *
 *                                                                             *
 *                              =================                              *
 *                              |               |                              *
 *                              |     A M S     |                              *
 *                              |               |                              *
 *                              =================                              *
 *                                                                             *
 *                                                                             *
 *   Online information and documentation:  https://www.scm.com/support/       *
 *   E-mail:  support@scm.com   info@scm.com                                   *
 *                                                                             *
 *   Scientific publications using AMS results must be properly referenced     *
 *   See the User Manuals (or the web site) for recommended citations          *
 *   The terms and conditions of the End User License Agreement apply to       *
 *   the use of AMS, https://www.scm.com/license-terms/                        *
 *                                                                             *
 *********************  x86_64_windows_amdZen / intelmpi  **********************
 
 Licensed to: Mr. Yuman Hordijk / SCM / Amsterdam / Netherlands 2021-10-04 09:39:26
 SCM User ID: u24430
  
 AMS 2021.106  RunTime: Jan26-2022 14:23:33  ShM Nodes: 1  Procs: 4

 AMS jobname: ams
 AMS jobid  : 962806512

 Start   directory: D:/Users/Yuman/Desktop/MasterProject/manual_calculations/substrate_conformers/tmp..13540.0.noindex/
 Results directory: D:/Users/Yuman/Desktop/MasterProject/manual_calculations/substrate_conformers/RPh_3.results/
 Scratch directory: Z:/SCMTMP/amstmp_ams_kid0.962806512/


 Communication costs MPI_COMM_WORLD:      1.790 usec per message,   0.0053 usec per 8-byte item
 Communication costs for intra-node:     -8.251 usec per message,   0.0154 usec per 8-byte item

 RNG seed: -727136507 853709262 -1275622807 1753313305 2111658847 204868785 -938968063 -1783995246



                      ************************************************************************
                      *  ADF 2021.106  RunTime: Jan26-2022 14:23:34  ShM Nodes: 1  Procs: 4  *
                      ************************************************************************
  
       ***************************
       *  GEOMETRY OPTIMIZATION  *
       ***************************

Optimization Method                    Quasi Newton
Optimization Coordinates               Delocalized Coordinates
Optimize lattice                       F
 
 ------------------------------------------------------
 Convergence criteria (Hartree,Angstrom)
 ------------------------------------------------------
 Maximum gradient               0.001000000000
 Maximum rms gradient           0.000666666667
 Maximum step allowed           0.010000000000
 Maximum rms step allowed       0.006666666667
 Maximum energy change allowe   0.000180000000
 Maximum stress energy allowe   0.000500000000
 
Initial model Hessian                  Automatic Hessian
 
------------------------------------
Quasi-Newton Optimizer Parameters
------------------------------------
Hessian Update Method                  BFGS
Maximum number of steps                  250
First GDIIS cycle                          0
Maximum GDIIS vectors                      0
Trust radius (bohr)                        0.200000
Trust radius varies                        T
Constraints converged at all steps         T
Use projector                              T
 
 Rigid motions settings for: old optimizer
 Atomic rotations (x,y,z):     T T T
 Atomic translations (x,y,z):  T T T
 Tolerance:                   1.000000000000000E-006
 
--------
Geometry
--------
Formula: C9H8O
Atoms
  Index Symbol   x (angstrom)   y (angstrom)   z (angstrom)
      1      C    -5.39256695    -0.31527136    -0.00681793
      2      C    -4.23234423    -0.99614311    -0.01466782
      3      C    -2.93957913    -0.31050528    -0.00054570
      4      O    -1.87800688    -0.88183790    -0.00507472
      5      C    -6.73302466    -0.87732217    -0.01740772
      6      C    -7.83111140    -0.00602367    -0.01597511
      7      C    -9.12554767    -0.49728801    -0.02658983
      8      C    -9.34989086    -1.86801564    -0.03836258
      9      C    -8.27087805    -2.74395147    -0.03952077
     10      C    -6.97517864    -2.25771748    -0.02919525
     11      H    -7.66191324     1.06559837    -0.00679041
     12      H    -9.96404073     0.19009306    -0.02554290
     13      H   -10.36294480    -2.25356540    -0.04647668
     14      H    -8.44333935    -3.81440678    -0.04843785
     15      H    -6.14616437    -2.95584044    -0.02985627
     16      H    -5.35111913     0.77327079     0.00864176
     17      H    -4.19102831    -2.07970562    -0.03110502
     18      H    -3.01063759     0.79932419     0.01207062
 
Total System Charge             0.00000
Bonding info available!
 
 
----------------
ADF Engine Input
----------------
 
 Basis
 Type TZ2P
 Core None
 End
 XC
 GGA OLYP
 End
 

 Title: *** (NO TITLE) ***

 Using automatic Hessian for delocalized coordinates.
 *** GOStep1 ***

 Energy gradients wrt nuclear displacements
 ==========================================

     Atom      Cartesian (a.u./angstrom)
                 X         Y         Z
 ----------------------------------------
     1 C     0.004614  0.000349  0.000000
     2 C    -0.008309 -0.003039 -0.000212
     3 C     0.039985 -0.008786  0.000673
     4 O    -0.050436  0.019490 -0.000069
     5 C    -0.004598 -0.005647  0.000003
     6 C    -0.000096 -0.003703 -0.000083
     7 C     0.008466 -0.004164  0.000014
     8 C     0.008587 -0.000299  0.000004
     9 C    -0.001593  0.007728  0.000078
    10 C    -0.000205  0.005674  0.000039
    11 H    -0.000408 -0.003769 -0.000034
    12 H     0.003928 -0.003022 -0.000008
    13 H     0.004931  0.001393  0.000020
    14 H     0.001024  0.004165  0.000017
    15 H     0.000181  0.001669 -0.000007
    16 H    -0.002554 -0.002749 -0.000085
    17 H    -0.001196  0.002572  0.000014
    18 H    -0.002321 -0.007862 -0.000364
 ----------------------------------------
 Mulliken charges used for AMS results%charges...
 
----------------------------------------------------------------------
Geometry Convergence after Step   1       (Hartree/Angstrom,Angstrom)
----------------------------------------------------------------------
current energy                               -4.11784789 Hartree
energy change                      -4.11784789     0.00018000    F
constrained gradient max            0.05041123     0.00100000    F
constrained gradient rms            0.00981018     0.00066667    F
gradient max                        0.05041123
gradient rms                        0.00981018
cart. step max                      0.07425219     0.01000000    F
cart. step rms                      0.02338445     0.00666667    F
 
 
--------
Geometry
--------
Formula: C9H8O
Atoms
  Index Symbol   x (angstrom)   y (angstrom)   z (angstrom)
      1      C    -5.37912262    -0.33671505    -0.00838811
      2      C    -4.19359169    -0.99212093    -0.01747841
      3      C    -2.90692270    -0.28355392    -0.00428698
      4      O    -1.80375469    -0.82776269    -0.00277609
      5      C    -6.73205504    -0.89511965    -0.01884267
      6      C    -7.83375950    -0.01606733    -0.01710931
      7      C    -9.14172984    -0.49285690    -0.02694721
      8      C    -9.38368206    -1.86518643    -0.03747924
      9      C    -8.30668352    -2.75351450    -0.03874521
     10      C    -7.00110864    -2.27810748    -0.02967260
     11      H    -7.65688341     1.05634690    -0.00869597
     12      H    -9.97452389     0.20557461    -0.02606775
     13      H   -10.40314890    -2.24180467    -0.04456507
     14      H    -8.48879131    -3.82491101    -0.04620523
     15      H    -6.18362414    -2.99063266    -0.02969361
     16      H    -5.34323209     0.75369086     0.00811345
     17      H    -4.12623032    -2.07563833    -0.03508074
     18      H    -3.00047162     0.82907124     0.02226657
 
Total System Charge             0.00000
Bonding info available!
 
 *** GOStep2 ***

 Energy gradients wrt nuclear displacements
 ==========================================

     Atom      Cartesian (a.u./angstrom)
                 X         Y         Z
 ----------------------------------------
     1 C    -0.000383  0.001808  0.000141
     2 C    -0.003591 -0.000654  0.001048
     3 C    -0.008800  0.007964 -0.003590
     4 O     0.016217 -0.007340  0.001222
     5 C    -0.000410 -0.001073 -0.000223
     6 C    -0.000155 -0.000743  0.000063
     7 C    -0.000409 -0.000559 -0.000016
     8 C     0.000678 -0.000999  0.000037
     9 C    -0.001445  0.000211 -0.000035
    10 C     0.000539  0.001385 -0.000016
    11 H     0.000081 -0.001449 -0.000017
    12 H     0.000434 -0.001331 -0.000021
    13 H     0.001288  0.000153  0.000010
    14 H     0.000169  0.000898  0.000031
    15 H    -0.000687  0.000997  0.000054
    16 H    -0.000965 -0.001354  0.000022
    17 H     0.000402  0.002436  0.000079
    18 H    -0.002963 -0.000350  0.001210
 ----------------------------------------
 Mulliken charges used for AMS results%charges...

 dE(predicted):    -0.15431E-02, dE(actual):    -0.85726E-03, Trust radius:    0.200000, all in a.u.
 
----------------------------------------------------------------------
Geometry Convergence after Step   2       (Hartree/Angstrom,Angstrom)
----------------------------------------------------------------------
current energy                               -4.11870515 Hartree
energy change                      -0.00085726     0.00018000    F
constrained gradient max            0.01624323     0.00100000    F
constrained gradient rms            0.00311377     0.00066667    F
gradient max                        0.01624323
gradient rms                        0.00311377
cart. step max                      0.02618757     0.01000000    F
cart. step rms                      0.00562866     0.00666667    T
 
 
--------
Geometry
--------
Formula: C9H8O
Atoms
  Index Symbol   x (angstrom)   y (angstrom)   z (angstrom)
      1      C    -5.37785679    -0.33746481    -0.00275749
      2      C    -4.19268477    -0.99372023    -0.00868473
      3      C    -2.90858943    -0.28350469     0.01515791
      4      O    -1.81136827    -0.82619411    -0.01716091
      5      C    -6.73195238    -0.89405694    -0.01606960
      6      C    -7.83449127    -0.01427922    -0.01563843
      7      C    -9.14285379    -0.49206845    -0.02786649
      8      C    -9.38439125    -1.86552171    -0.04029868
      9      C    -8.30604731    -2.75448453    -0.04073753
     10      C    -7.00047574    -2.27847727    -0.02892559
     11      H    -7.65909332     1.05910366    -0.00576932
     12      H    -9.97607085     0.20690560    -0.02734805
     13      H   -10.40433653    -2.24310892    -0.04938601
     14      H    -8.48713030    -3.82672618    -0.05008465
     15      H    -6.18245901    -2.99140800    -0.02914275
     16      H    -5.33879804     0.75363919     0.01564744
     17      H    -4.12535396    -2.07830790    -0.02866829
     18      H    -2.99536297     0.83036656    -0.00392100
 
Total System Charge             0.00000
Bonding info available!
 
 *** GOStep3 ***

 Energy gradients wrt nuclear displacements
 ==========================================

     Atom      Cartesian (a.u./angstrom)
                 X         Y         Z
 ----------------------------------------
     1 C     0.000076  0.001151 -0.000580
     2 C    -0.000070 -0.000403 -0.004376
     3 C    -0.000009  0.001887  0.015145
     4 O     0.001837 -0.000393 -0.004849
     5 C     0.000254 -0.000493  0.000733
     6 C    -0.000484  0.000254 -0.000060
     7 C    -0.000686  0.000332 -0.000126
     8 C    -0.000229 -0.000915 -0.000065
     9 C    -0.000407 -0.000740 -0.000043
    10 C     0.000666  0.000135 -0.000010
    11 H    -0.000075 -0.000468 -0.000028
    12 H    -0.000116 -0.000647 -0.000049
    13 H     0.000346 -0.000271 -0.000045
    14 H     0.000260  0.000001 -0.000049
    15 H    -0.000107  0.000282 -0.000068
    16 H    -0.000553 -0.000365 -0.000344
    17 H     0.000145  0.000897 -0.000219
    18 H    -0.000846 -0.000243 -0.004967
 ----------------------------------------
 Mulliken charges used for AMS results%charges...

 dE(predicted):    -0.13372E-03, dE(actual):     0.15912E-04, Trust radius:    0.022385, all in a.u.
 
----------------------------------------------------------------------
Geometry Convergence after Step   3       (Hartree/Angstrom,Angstrom)
----------------------------------------------------------------------
current energy                               -4.11868924 Hartree
energy change                       0.00001591     0.00018000    T
constrained gradient max            0.01503291     0.00100000    F
constrained gradient rms            0.00239820     0.00066667    F
gradient max                        0.01503291
gradient rms                        0.00239820
cart. step max                      0.00547924     0.01000000    T
cart. step rms                      0.00151650     0.00666667    T
 
 
--------
Geometry
--------
Formula: C9H8O
Atoms
  Index Symbol   x (angstrom)   y (angstrom)   z (angstrom)
      1      C    -5.37819469    -0.33690467    -0.00330461
      2      C    -4.19418088    -0.99426500    -0.01040455
      3      C    -2.91041214    -0.28472116     0.00967867
      4      O    -1.81526769    -0.82785577    -0.01387983
      5      C    -6.73206001    -0.89297041    -0.01600123
      6      C    -7.83461609    -0.01343145    -0.01554966
      7      C    -9.14250526    -0.49211279    -0.02772246
      8      C    -9.38331817    -1.86572147    -0.04005685
      9      C    -8.30446232    -2.75433344    -0.04034917
     10      C    -6.99942590    -2.27772643    -0.02862786
     11      H    -7.66006755     1.06029944    -0.00591985
     12      H    -9.97606884     0.20667464    -0.02737340
     13      H   -10.40320390    -2.24401244    -0.04921384
     14      H    -8.48484363    -3.82685413    -0.04960033
     15      H    -6.18072252    -2.99023951    -0.02880282
     16      H    -5.33772536     0.75445700     0.01463760
     17      H    -4.12783195    -2.07930438    -0.02968540
     18      H    -2.99440911     0.82971403     0.00052142
 
Total System Charge             0.00000
Bonding info available!
 
 *** GOStep4 ***

 Energy gradients wrt nuclear displacements
 ==========================================

     Atom      Cartesian (a.u./angstrom)
                 X         Y         Z
 ----------------------------------------
     1 C     0.000396  0.000515 -0.000356
     2 C     0.000193  0.000026 -0.002999
     3 C     0.002739 -0.000284  0.010391
     4 O    -0.002812  0.001853 -0.003235
     5 C     0.000237 -0.000330  0.000491
     6 C    -0.000537  0.000187 -0.000053
     7 C    -0.000248  0.000286 -0.000077
     8 C    -0.000100 -0.000739 -0.000063
     9 C     0.000058 -0.000543 -0.000017
    10 C     0.000409 -0.000018 -0.000004
    11 H    -0.000137 -0.000186 -0.000029
    12 H    -0.000186 -0.000471 -0.000042
    13 H     0.000135 -0.000386 -0.000042
    14 H     0.000313 -0.000202 -0.000041
    15 H     0.000164  0.000044 -0.000058
    16 H    -0.000442  0.000000 -0.000231
    17 H     0.000054  0.000351 -0.000172
    18 H    -0.000235 -0.000103 -0.003461
 ----------------------------------------
 Mulliken charges used for AMS results%charges...

 dE(predicted):    -0.10678E-03, dE(actual):    -0.12539E-03, Trust radius:    0.044770, all in a.u.
 
----------------------------------------------------------------------
Geometry Convergence after Step   4       (Hartree/Angstrom,Angstrom)
----------------------------------------------------------------------
current energy                               -4.11881463 Hartree
energy change                      -0.00012539     0.00018000    T
constrained gradient max            0.01030435     0.00100000    F
constrained gradient rms            0.00172062     0.00066667    F
gradient max                        0.01030435
gradient rms                        0.00172062
cart. step max                      0.01169649     0.01000000    F
cart. step rms                      0.00259871     0.00666667    T
 
 
--------
Geometry
--------
Formula: C9H8O
Atoms
  Index Symbol   x (angstrom)   y (angstrom)   z (angstrom)
      1      C    -5.37904437    -0.33634392    -0.00526743
      2      C    -4.19556635    -0.99405842    -0.01469039
      3      C    -2.91129117    -0.28564408    -0.00090397
      4      O    -1.81420238    -0.83005729    -0.00731599
      5      C    -6.73237220    -0.89231104    -0.01640827
      6      C    -7.83459788    -0.01345122    -0.01574247
      7      C    -9.14199179    -0.49263828    -0.02752628
      8      C    -9.38251150    -1.86576592    -0.03923105
      9      C    -8.30362156    -2.75381485    -0.03934431
     10      C    -6.99912373    -2.27692706    -0.02819834
     11      H    -7.66069836     1.06037234    -0.00668239
     12      H    -9.97559936     0.20603020    -0.02742927
     13      H   -10.40219635    -2.24446468    -0.04811721
     14      H    -8.48372266    -3.82635236    -0.04793517
     15      H    -6.17999883    -2.98897041    -0.02799334
     16      H    -5.33774219     0.75509577     0.01191723
     17      H    -4.12956264    -2.07914475    -0.03300343
     18      H    -2.99547267     0.82913802     0.01221791
 
Total System Charge             0.00000
Bonding info available!
 
 *** GOStep5 ***

 Energy gradients wrt nuclear displacements
 ==========================================

     Atom      Cartesian (a.u./angstrom)
                 X         Y         Z
 ----------------------------------------
     1 C     0.000183 -0.000073  0.000014
     2 C    -0.001054  0.000570 -0.000212
     3 C    -0.001615  0.001368  0.000913
     4 O     0.002537 -0.000691 -0.000226
     5 C    -0.000150 -0.000137  0.000036
     6 C    -0.000246 -0.000455  0.000000
     7 C     0.000265 -0.000403 -0.000026
     8 C     0.000363 -0.000383 -0.000017
     9 C     0.000152  0.000105 -0.000006
    10 C    -0.000040  0.000266  0.000002
    11 H    -0.000179 -0.000203 -0.000018
    12 H    -0.000105 -0.000495 -0.000028
    13 H     0.000209 -0.000395 -0.000021
    14 H     0.000310 -0.000141 -0.000009
    15 H     0.000222  0.000065 -0.000004
    16 H    -0.000325  0.000104 -0.000028
    17 H     0.000128  0.000354 -0.000044
    18 H    -0.000655  0.000544 -0.000327
 ----------------------------------------
 Mulliken charges used for AMS results%charges...

 dE(predicted):    -0.97173E-04, dE(actual):    -0.71291E-04, Trust radius:    0.044770, all in a.u.
 
----------------------------------------------------------------------
Geometry Convergence after Step   5       (Hartree/Angstrom,Angstrom)
----------------------------------------------------------------------
current energy                               -4.11888592 Hartree
energy change                      -0.00007129     0.00018000    T
constrained gradient max            0.00256326     0.00100000    F
constrained gradient rms            0.00051812     0.00066667    T
gradient max                        0.00256326
gradient rms                        0.00051812
cart. step max                      0.00445456     0.01000000    T
cart. step rms                      0.00085221     0.00666667    T
 
 
--------
Geometry
--------
Formula: C9H8O
Atoms
  Index Symbol   x (angstrom)   y (angstrom)   z (angstrom)
      1      C    -5.37864239    -0.33675624    -0.00582017
      2      C    -4.19469462    -0.99425065    -0.01571177
      3      C    -2.91116948    -0.28508604    -0.00175728
      4      O    -1.81523411    -0.82903845    -0.00839599
      5      C    -6.73230848    -0.89243787    -0.01670643
      6      C    -7.83470271    -0.01334334    -0.01624418
      7      C    -9.14242712    -0.49246870    -0.02777472
      8      C    -9.38312484    -1.86576493    -0.03904019
      9      C    -8.30408195    -2.75413100    -0.03891327
     10      C    -6.99937458    -2.27733715    -0.02801190
     11      H    -7.66101215     1.06059959    -0.00741658
     12      H    -9.97592438     0.20649148    -0.02778707
     13      H   -10.40290738    -2.24450335    -0.04772162
     14      H    -8.48421695    -3.82676270    -0.04703352
     15      H    -6.18036391    -2.98957990    -0.02739776
     16      H    -5.33683637     0.75474432     0.01171440
     17      H    -4.12815428    -2.07940179    -0.03430857
     18      H    -2.99414027     0.82971879     0.01667246
 
Total System Charge             0.00000
Bonding info available!
 
 *** GOStep6 ***

 Energy gradients wrt nuclear displacements
 ==========================================

     Atom      Cartesian (a.u./angstrom)
                 X         Y         Z
 ----------------------------------------
     1 C    -0.000070  0.000113 -0.000019
     2 C     0.000189  0.000304  0.000016
     3 C     0.000419  0.000097 -0.000072
     4 O    -0.000665  0.000848  0.000090
     5 C     0.000038  0.000007  0.000038
     6 C    -0.000188 -0.000163 -0.000016
     7 C    -0.000044 -0.000243 -0.000020
     8 C     0.000060 -0.000360 -0.000013
     9 C     0.000224 -0.000230 -0.000013
    10 C     0.000120 -0.000054 -0.000014
    11 H    -0.000225 -0.000087 -0.000006
    12 H    -0.000193 -0.000387 -0.000023
    13 H     0.000089 -0.000457 -0.000020
    14 H     0.000317 -0.000270 -0.000004
    15 H     0.000243  0.000007  0.000012
    16 H    -0.000222  0.000199 -0.000008
    17 H     0.000112  0.000210  0.000016
    18 H    -0.000202  0.000467  0.000057
 ----------------------------------------
 Mulliken charges used for AMS results%charges...

 dE(predicted):    -0.36814E-05, dE(actual):    -0.14736E-04, Trust radius:    0.044770, all in a.u.
 
---------------------------------------------------------
Geometry Convergence after Step   6       ** CONVERGED **
---------------------------------------------------------
current energy                               -4.11890066 Hartree
energy change                      -0.00001474     0.00018000    T
constrained gradient max            0.00063812     0.00100000    T
constrained gradient rms            0.00013314     0.00066667    T
gradient max                        0.00063812
gradient rms                        0.00013314
cart. step max                      0.00239175     0.01000000    T
cart. step rms                      0.00061261     0.00666667    T
 
Geometry optimization converged

Optimized geometry:
 
--------
Geometry
--------
Formula: C9H8O
Atoms
  Index Symbol   x (angstrom)   y (angstrom)   z (angstrom)
      1      C    -5.37864239    -0.33675624    -0.00582017
      2      C    -4.19469462    -0.99425065    -0.01571177
      3      C    -2.91116948    -0.28508604    -0.00175728
      4      O    -1.81523411    -0.82903845    -0.00839599
      5      C    -6.73230848    -0.89243787    -0.01670643
      6      C    -7.83470271    -0.01334334    -0.01624418
      7      C    -9.14242712    -0.49246870    -0.02777472
      8      C    -9.38312484    -1.86576493    -0.03904019
      9      C    -8.30408195    -2.75413100    -0.03891327
     10      C    -6.99937458    -2.27733715    -0.02801190
     11      H    -7.66101215     1.06059959    -0.00741658
     12      H    -9.97592438     0.20649148    -0.02778707
     13      H   -10.40290738    -2.24450335    -0.04772162
     14      H    -8.48421695    -3.82676270    -0.04703352
     15      H    -6.18036391    -2.98957990    -0.02739776
     16      H    -5.33683637     0.75474432     0.01171440
     17      H    -4.12815428    -2.07940179    -0.03430857
     18      H    -2.99414027     0.82971879     0.01667246
 
Total System Charge             0.00000
Bonding info available!
 
Performing a single point calculation on the final geometry ...

 *** adf ***



 ===========================
 A T T A C H E D   F I L E S
 ===========================
  
 RestartZ:/SCMTMP/amstmp_ams_kid0.962806512/GOStep6.rkf*** GOStep6 ***



 ===============================
 M O D E L   P A R A M E T E R S
 ===============================
  
 DENSITY FUNCTIONAL POTENTIAL (scf)
    LDA:                               Exchange only                           == Not Default ==
    Gradient Corrections:              OPTX LYP                                == Not Default ==

 SPIN  (restricted / unrestr.)
    Molecule:                          Restricted                               
    Fragments:                         Restricted                               

 OTHER ASPECTS
    Relativistic Corrections:          scalar (ZORA,MAPA)                       

    Nuclear Charge Density Model:      Point Charge Nuclei                      
    Core Treatment:                    Frozen Orbital(s)                        

    Hyperfine or Zeeman Interaction:   ---                                      



 ===============
 G E O M E T R Y  ***  3D  Molecule  ***
 ===============
  

 ATOMS
 =====                            X Y Z                    CHARGE
                                (Angstrom)             Nucl     +Core       At.Mass
                       --------------------------    ----------------       -------
    1  C              -5.3786   -0.3368   -0.0058      6.00      6.00       12.0000
    2  C              -4.1947   -0.9943   -0.0157      6.00      6.00       12.0000
    3  C              -2.9112   -0.2851   -0.0018      6.00      6.00       12.0000
    4  O              -1.8152   -0.8290   -0.0084      8.00      8.00       15.9949
    5  C              -6.7323   -0.8924   -0.0167      6.00      6.00       12.0000
    6  C              -7.8347   -0.0133   -0.0162      6.00      6.00       12.0000
    7  C              -9.1424   -0.4925   -0.0278      6.00      6.00       12.0000
    8  C              -9.3831   -1.8658   -0.0390      6.00      6.00       12.0000
    9  C              -8.3041   -2.7541   -0.0389      6.00      6.00       12.0000
   10  C              -6.9994   -2.2773   -0.0280      6.00      6.00       12.0000
   11  H              -7.6610    1.0606   -0.0074      1.00      1.00        1.0078
   12  H              -9.9759    0.2065   -0.0278      1.00      1.00        1.0078
   13  H             -10.4029   -2.2445   -0.0477      1.00      1.00        1.0078
   14  H              -8.4842   -3.8268   -0.0470      1.00      1.00        1.0078
   15  H              -6.1804   -2.9896   -0.0274      1.00      1.00        1.0078
   16  H              -5.3368    0.7547    0.0117      1.00      1.00        1.0078
   17  H              -4.1282   -2.0794   -0.0343      1.00      1.00        1.0078
   18  H              -2.9941    0.8297    0.0167      1.00      1.00        1.0078


 FRAGMENTS
 =========                                     Atoms in this Fragment     Cart. coord.s (Angstrom)
                                               -------------------------------------------------------
    1  C                                                 1  C           -5.3786   -0.3368   -0.0058
    2  C                                                 2  C           -4.1947   -0.9943   -0.0157
    3  C                                                 3  C           -2.9112   -0.2851   -0.0018
    4  C                                                 5  C           -6.7323   -0.8924   -0.0167
    5  C                                                 6  C           -7.8347   -0.0133   -0.0162
    6  C                                                 7  C           -9.1424   -0.4925   -0.0278
    7  C                                                 8  C           -9.3831   -1.8658   -0.0390
    8  C                                                 9  C           -8.3041   -2.7541   -0.0389
    9  C                                                10  C           -6.9994   -2.2773   -0.0280
   10  O                                                 4  O           -1.8152   -0.8290   -0.0084
   11  H                                                11  H           -7.6610    1.0606   -0.0074
   12  H                                                12  H           -9.9759    0.2065   -0.0278
   13  H                                                13  H          -10.4029   -2.2445   -0.0477
   14  H                                                14  H           -8.4842   -3.8268   -0.0470
   15  H                                                15  H           -6.1804   -2.9896   -0.0274
   16  H                                                16  H           -5.3368    0.7547    0.0117
   17  H                                                17  H           -4.1282   -2.0794   -0.0343
   18  H                                                18  H           -2.9941    0.8297    0.0167


 Interatomic Distance Matrix (Angstrom)
 --------------------------------------

   1)     0.000
   2)     1.354   0.000
   3)     2.468   1.466   0.000
   4)     3.597   2.385   1.224   0.000
   5)     1.463   2.540   3.869   4.917   0.000
   6)     2.477   3.770   4.931   6.074   1.410   0.000
   7)     3.767   4.973   6.235   7.335   2.443   1.393   0.000
   8)     4.287   5.261   6.662   7.639   2.824   2.414   1.394   0.000
   9)     3.795   4.470   5.931   6.768   2.437   2.781   2.412   1.398   0.000
  10)     2.528   3.084   4.548   5.383   1.410   2.413   2.789   2.419   1.389   0.000
  11)     2.676   4.030   4.937   6.144   2.163   1.088   2.146   3.396   3.869   3.403
          0.000
  12)     4.629   5.905   7.082   8.226   3.425   2.153   1.088   2.155   3.400   3.877
          2.468   0.000
  13)     5.374   6.333   7.744   8.704   3.912   3.402   2.158   1.088   2.160   3.404
          4.295   2.488   0.000
  14)     4.672   5.140   6.603   7.312   3.418   3.868   3.399   2.157   1.088   2.146
          4.956   4.300   2.487   0.000
  15)     2.771   2.815   4.243   4.871   2.169   3.405   3.874   3.394   2.137   1.085
          4.312   4.962   4.288   2.451   0.000
  16)     1.092   2.089   2.639   3.861   2.159   2.613   4.005   4.821   4.596   3.458
          2.344   4.672   5.888   5.559   3.838   0.000
  17)     2.145   1.087   2.168   2.629   2.862   4.244   5.259   5.259   4.230   2.878
          4.727   6.279   6.277   4.693   2.245   3.081   0.000
  18)     2.655   2.184   1.118   2.035   4.116   4.914   6.289   6.935   6.406   5.069
          4.673   7.010   8.022   7.199   4.974   2.344   3.123   0.000

 Min. Distance =    1.0854
 Max. Distance =    8.7036



 =====================================
 S Y M M E T R Y ,   E L E C T R O N S
 =====================================
  
 Symmetry: NOSYM

 Irreducible Representations, including subspecies
 -------------------------------------------------
 A


 Configuration of Valence Electrons
 ==================================
 ( determined in the SCF procedure )

 Total:   70

 Net Charge: 0 (Nuclei minus Electrons)

 Aufbau principle for MO occupations will be applied through SCF cycle no.     150
 Thereafter, the program will assign electrons to MOs that are spatially
 similar to the occupied MOs in a "reference" cycle ("KeepOrbitals").
 The reference cycle is always the PREVIOUS cycle: it will evolve with
 the SCF procedure.
1
 ***************************************************************************************************



                                      ****************************************
                                      *  B U I L D : (Fragments, Functions)  *
                                      ****************************************
  



 =======
 S F O s  ***  (Symmetrized Fragment Orbitals)  ***
 =======
  
 SFOs are linear combinations of (valence) Fragment Orbitals (FOs), such that the SFOs transform as the
 irreducible representations of the (molecular) symmetry group. Each SFO is therefore characterized by
 an irrep of the molecule and by a few (or only one) generating FOs.
 The SFOs constitute a symmetry-adapted basis for the Fock matrix. The MO eigenvector coefficients in
 this basis provide a direct interpretation of the MOs in terms of Frontier Orbital Theory.

 The SFOs are combined with auxiliary Core Functions (CFs) to ensure orthogonalization on the (frozen)
 Core Orbitals (COs). The Core-orthogonalized SFOs (CSFOs) constitute the true Fock basis.

 The FOs, and hence also the (C)SFOs are combinations of the elementary basis functions (BAS). The basis
 functions that participate in the description of the SFOs depend on the irrep. The indices of the
 involved functions are printed below for each irrep.
 (The complete list of primitive basis functions is printed in another section)

 Total nr. of (C)SFOs (summation over all irreps) :   348

 NOTE: a (C)SFO that is defined as a combination of more than one FO is usually NOT normalized.



                                       === A ===
 Nr. of SFOs :  348
 Cartesian basis functions that participate in this irrep (total number =   396) :
      1     2     3     4     5     6     9    12     7    10
     13     8    11    14    15    16    17    18    19    20
     21    22    23    24    25    26    27    28    29    30
     31    32    33    34    35    36    39    42    37    40
     43    38    41    44    45    46    47    48    49    50
     51    52    53    54    55    56    57    58    59    60
     61    62    63    64    65    66    69    72    67    70
     73    68    71    74    75    76    77    78    79    80
     81    82    83    84    85    86    87    88    89    90
     91    92    93    94    95    96    99   102    97   100
    103    98   101   104   105   106   107   108   109   110
    111   112   113   114   115   116   117   118   119   120
    121   122   123   124   125   126   129   132   127   130
    133   128   131   134   135   136   137   138   139   140
    141   142   143   144   145   146   147   148   149   150
    151   152   153   154   155   156   159   162   157   160
    163   158   161   164   165   166   167   168   169   170
    171   172   173   174   175   176   177   178   179   180
    181   182   183   184   185   186   189   192   187   190
    193   188   191   194   195   196   197   198   199   200
    201   202   203   204   205   206   207   208   209   210
    211   212   213   214   215   216   219   222   217   220
    223   218   221   224   225   226   227   228   229   230
    231   232   233   234   235   236   237   238   239   240
    241   242   243   244   245   246   249   252   247   250
    253   248   251   254   255   256   257   258   259   260
    261   262   263   264   265   266   267   268   269   270
    271   272   273   274   275   276   279   282   277   280
    283   278   281   284   285   286   287   288   289   290
    291   292   293   294   295   296   297   298   299   300
    301   302   303   304   305   306   307   308   309   310
    311   312   313   314   315   316   317   318   319   320
    321   322   323   324   325   326   327   328   329   330
    331   332   333   334   335   336   337   338   339   340
    341   342   343   344   345   346   347   348   349   350
    351   352   353   354   355   356   357   358   359   360
    361   362   363   364   365   366   367   368   369   370
    371   372   373   374   375   376   377   378   379   380
    381   382   383   384   385   386   387   388   389   390
    391   392   393   394   395   396

    SFO  (index         Fragment          Generating    Expansion in Fragment Orbitals
  indx  incl.CFs)   Occup   Orb.Energy   FragmentType  Coeff.   Orbital     on Fragment
 --------------------------------------------------------------------------------------
     1       1      2.000     -10.064 au  C             1.00      1 S               1
                        (    -273.865 eV)
     2       2      2.000      -0.507 au  C             1.00      2 S               1
                        (     -13.802 eV)
     3       3       --         0.384 au  C             1.00      3 S               1
                        (      10.456 eV)
     4       4       --         5.458 au  C             1.00      4 S               1
                        (     148.511 eV)
     5       5       --        49.970 au  C             1.00      5 S               1
                        (    1359.766 eV)
     6       6      0.667      -0.189 au  C             1.00      1 P:x             1
                        (      -5.135 eV)
     7       7       --         0.168 au  C             1.00      2 P:x             1
                        (       4.559 eV)
     8       8       --         2.056 au  C             1.00      3 P:x             1
                        (      55.959 eV)
     9       9      0.667      -0.189 au  C             1.00      1 P:y             1
                        (      -5.135 eV)
    10      10       --         0.168 au  C             1.00      2 P:y             1
                        (       4.559 eV)
    11      11       --         2.056 au  C             1.00      3 P:y             1
                        (      55.959 eV)
    12      12      0.667      -0.189 au  C             1.00      1 P:z             1
                        (      -5.135 eV)
    13      13       --         0.168 au  C             1.00      2 P:z             1
                        (       4.559 eV)
    14      14       --         2.056 au  C             1.00      3 P:z             1
                        (      55.959 eV)
    15      15       --         1.235 au  C             1.00      1 D:z2            1
                        (      33.605 eV)
    16      16       --         1.235 au  C             1.00      1 D:x2-y2         1
                        (      33.605 eV)
    17      17       --         1.235 au  C             1.00      1 D:xy            1
                        (      33.605 eV)
    18      18       --         1.235 au  C             1.00      1 D:xz            1
                        (      33.605 eV)
    19      19       --         1.235 au  C             1.00      1 D:yz            1
                        (      33.605 eV)
    20      20       --         4.005 au  C             1.00      1 F:z3            1
                        (     108.969 eV)
    21      21       --         4.005 au  C             1.00      1 F:z             1
                        (     108.969 eV)
    22      22       --         4.005 au  C             1.00      1 F:xyz           1
                        (     108.969 eV)
    23      23       --         4.005 au  C             1.00      1 F:z2x           1
                        (     108.969 eV)
    24      24       --         4.005 au  C             1.00      1 F:z2y           1
                        (     108.969 eV)
    25      25       --         4.005 au  C             1.00      1 F:x             1
                        (     108.969 eV)
    26      26       --         4.005 au  C             1.00      1 F:y             1
                        (     108.969 eV)
    27      27      2.000     -10.064 au  C             1.00      1 S               2
                        (    -273.865 eV)
    28      28      2.000      -0.507 au  C             1.00      2 S               2
                        (     -13.802 eV)
    29      29       --         0.384 au  C             1.00      3 S               2
                        (      10.456 eV)
    30      30       --         5.458 au  C             1.00      4 S               2
                        (     148.511 eV)
    31      31       --        49.970 au  C             1.00      5 S               2
                        (    1359.766 eV)
    32      32      0.667      -0.189 au  C             1.00      1 P:x             2
                        (      -5.135 eV)
    33      33       --         0.168 au  C             1.00      2 P:x             2
                        (       4.559 eV)
    34      34       --         2.056 au  C             1.00      3 P:x             2
                        (      55.959 eV)
    35      35      0.667      -0.189 au  C             1.00      1 P:y             2
                        (      -5.135 eV)
    36      36       --         0.168 au  C             1.00      2 P:y             2
                        (       4.559 eV)
    37      37       --         2.056 au  C             1.00      3 P:y             2
                        (      55.959 eV)
    38      38      0.667      -0.189 au  C             1.00      1 P:z             2
                        (      -5.135 eV)
    39      39       --         0.168 au  C             1.00      2 P:z             2
                        (       4.559 eV)
    40      40       --         2.056 au  C             1.00      3 P:z             2
                        (      55.959 eV)
    41      41       --         1.235 au  C             1.00      1 D:z2            2
                        (      33.605 eV)
    42      42       --         1.235 au  C             1.00      1 D:x2-y2         2
                        (      33.605 eV)
    43      43       --         1.235 au  C             1.00      1 D:xy            2
                        (      33.605 eV)
    44      44       --         1.235 au  C             1.00      1 D:xz            2
                        (      33.605 eV)
    45      45       --         1.235 au  C             1.00      1 D:yz            2
                        (      33.605 eV)
    46      46       --         4.005 au  C             1.00      1 F:z3            2
                        (     108.969 eV)
    47      47       --         4.005 au  C             1.00      1 F:z             2
                        (     108.969 eV)
    48      48       --         4.005 au  C             1.00      1 F:xyz           2
                        (     108.969 eV)
    49      49       --         4.005 au  C             1.00      1 F:z2x           2
                        (     108.969 eV)
    50      50       --         4.005 au  C             1.00      1 F:z2y           2
                        (     108.969 eV)
    51      51       --         4.005 au  C             1.00      1 F:x             2
                        (     108.969 eV)
    52      52       --         4.005 au  C             1.00      1 F:y             2
                        (     108.969 eV)
    53      53      2.000     -10.064 au  C             1.00      1 S               3
                        (    -273.865 eV)
    54      54      2.000      -0.507 au  C             1.00      2 S               3
                        (     -13.802 eV)
    55      55       --         0.384 au  C             1.00      3 S               3
                        (      10.456 eV)
    56      56       --         5.458 au  C             1.00      4 S               3
                        (     148.511 eV)
    57      57       --        49.970 au  C             1.00      5 S               3
                        (    1359.766 eV)
    58      58      0.667      -0.189 au  C             1.00      1 P:x             3
                        (      -5.135 eV)
    59      59       --         0.168 au  C             1.00      2 P:x             3
                        (       4.559 eV)
    60      60       --         2.056 au  C             1.00      3 P:x             3
                        (      55.959 eV)
    61      61      0.667      -0.189 au  C             1.00      1 P:y             3
                        (      -5.135 eV)
    62      62       --         0.168 au  C             1.00      2 P:y             3
                        (       4.559 eV)
    63      63       --         2.056 au  C             1.00      3 P:y             3
                        (      55.959 eV)
    64      64      0.667      -0.189 au  C             1.00      1 P:z             3
                        (      -5.135 eV)
    65      65       --         0.168 au  C             1.00      2 P:z             3
                        (       4.559 eV)
    66      66       --         2.056 au  C             1.00      3 P:z             3
                        (      55.959 eV)
    67      67       --         1.235 au  C             1.00      1 D:z2            3
                        (      33.605 eV)
    68      68       --         1.235 au  C             1.00      1 D:x2-y2         3
                        (      33.605 eV)
    69      69       --         1.235 au  C             1.00      1 D:xy            3
                        (      33.605 eV)
    70      70       --         1.235 au  C             1.00      1 D:xz            3
                        (      33.605 eV)
    71      71       --         1.235 au  C             1.00      1 D:yz            3
                        (      33.605 eV)
    72      72       --         4.005 au  C             1.00      1 F:z3            3
                        (     108.969 eV)
    73      73       --         4.005 au  C             1.00      1 F:z             3
                        (     108.969 eV)
    74      74       --         4.005 au  C             1.00      1 F:xyz           3
                        (     108.969 eV)
    75      75       --         4.005 au  C             1.00      1 F:z2x           3
                        (     108.969 eV)
    76      76       --         4.005 au  C             1.00      1 F:z2y           3
                        (     108.969 eV)
    77      77       --         4.005 au  C             1.00      1 F:x             3
                        (     108.969 eV)
    78      78       --         4.005 au  C             1.00      1 F:y             3
                        (     108.969 eV)
    79      79      2.000     -10.064 au  C             1.00      1 S               4
                        (    -273.865 eV)
    80      80      2.000      -0.507 au  C             1.00      2 S               4
                        (     -13.802 eV)
    81      81       --         0.384 au  C             1.00      3 S               4
                        (      10.456 eV)
    82      82       --         5.458 au  C             1.00      4 S               4
                        (     148.511 eV)
    83      83       --        49.970 au  C             1.00      5 S               4
                        (    1359.766 eV)
    84      84      0.667      -0.189 au  C             1.00      1 P:x             4
                        (      -5.135 eV)
    85      85       --         0.168 au  C             1.00      2 P:x             4
                        (       4.559 eV)
    86      86       --         2.056 au  C             1.00      3 P:x             4
                        (      55.959 eV)
    87      87      0.667      -0.189 au  C             1.00      1 P:y             4
                        (      -5.135 eV)
    88      88       --         0.168 au  C             1.00      2 P:y             4
                        (       4.559 eV)
    89      89       --         2.056 au  C             1.00      3 P:y             4
                        (      55.959 eV)
    90      90      0.667      -0.189 au  C             1.00      1 P:z             4
                        (      -5.135 eV)
    91      91       --         0.168 au  C             1.00      2 P:z             4
                        (       4.559 eV)
    92      92       --         2.056 au  C             1.00      3 P:z             4
                        (      55.959 eV)
    93      93       --         1.235 au  C             1.00      1 D:z2            4
                        (      33.605 eV)
    94      94       --         1.235 au  C             1.00      1 D:x2-y2         4
                        (      33.605 eV)
    95      95       --         1.235 au  C             1.00      1 D:xy            4
                        (      33.605 eV)
    96      96       --         1.235 au  C             1.00      1 D:xz            4
                        (      33.605 eV)
    97      97       --         1.235 au  C             1.00      1 D:yz            4
                        (      33.605 eV)
    98      98       --         4.005 au  C             1.00      1 F:z3            4
                        (     108.969 eV)
    99      99       --         4.005 au  C             1.00      1 F:z             4
                        (     108.969 eV)
   100     100       --         4.005 au  C             1.00      1 F:xyz           4
                        (     108.969 eV)
   101     101       --         4.005 au  C             1.00      1 F:z2x           4
                        (     108.969 eV)
   102     102       --         4.005 au  C             1.00      1 F:z2y           4
                        (     108.969 eV)
   103     103       --         4.005 au  C             1.00      1 F:x             4
                        (     108.969 eV)
   104     104       --         4.005 au  C             1.00      1 F:y             4
                        (     108.969 eV)
   105     105      2.000     -10.064 au  C             1.00      1 S               5
                        (    -273.865 eV)
   106     106      2.000      -0.507 au  C             1.00      2 S               5
                        (     -13.802 eV)
   107     107       --         0.384 au  C             1.00      3 S               5
                        (      10.456 eV)
   108     108       --         5.458 au  C             1.00      4 S               5
                        (     148.511 eV)
   109     109       --        49.970 au  C             1.00      5 S               5
                        (    1359.766 eV)
   110     110      0.667      -0.189 au  C             1.00      1 P:x             5
                        (      -5.135 eV)
   111     111       --         0.168 au  C             1.00      2 P:x             5
                        (       4.559 eV)
   112     112       --         2.056 au  C             1.00      3 P:x             5
                        (      55.959 eV)
   113     113      0.667      -0.189 au  C             1.00      1 P:y             5
                        (      -5.135 eV)
   114     114       --         0.168 au  C             1.00      2 P:y             5
                        (       4.559 eV)
   115     115       --         2.056 au  C             1.00      3 P:y             5
                        (      55.959 eV)
   116     116      0.667      -0.189 au  C             1.00      1 P:z             5
                        (      -5.135 eV)
   117     117       --         0.168 au  C             1.00      2 P:z             5
                        (       4.559 eV)
   118     118       --         2.056 au  C             1.00      3 P:z             5
                        (      55.959 eV)
   119     119       --         1.235 au  C             1.00      1 D:z2            5
                        (      33.605 eV)
   120     120       --         1.235 au  C             1.00      1 D:x2-y2         5
                        (      33.605 eV)
   121     121       --         1.235 au  C             1.00      1 D:xy            5
                        (      33.605 eV)
   122     122       --         1.235 au  C             1.00      1 D:xz            5
                        (      33.605 eV)
   123     123       --         1.235 au  C             1.00      1 D:yz            5
                        (      33.605 eV)
   124     124       --         4.005 au  C             1.00      1 F:z3            5
                        (     108.969 eV)
   125     125       --         4.005 au  C             1.00      1 F:z             5
                        (     108.969 eV)
   126     126       --         4.005 au  C             1.00      1 F:xyz           5
                        (     108.969 eV)
   127     127       --         4.005 au  C             1.00      1 F:z2x           5
                        (     108.969 eV)
   128     128       --         4.005 au  C             1.00      1 F:z2y           5
                        (     108.969 eV)
   129     129       --         4.005 au  C             1.00      1 F:x             5
                        (     108.969 eV)
   130     130       --         4.005 au  C             1.00      1 F:y             5
                        (     108.969 eV)
   131     131      2.000     -10.064 au  C             1.00      1 S               6
                        (    -273.865 eV)
   132     132      2.000      -0.507 au  C             1.00      2 S               6
                        (     -13.802 eV)
   133     133       --         0.384 au  C             1.00      3 S               6
                        (      10.456 eV)
   134     134       --         5.458 au  C             1.00      4 S               6
                        (     148.511 eV)
   135     135       --        49.970 au  C             1.00      5 S               6
                        (    1359.766 eV)
   136     136      0.667      -0.189 au  C             1.00      1 P:x             6
                        (      -5.135 eV)
   137     137       --         0.168 au  C             1.00      2 P:x             6
                        (       4.559 eV)
   138     138       --         2.056 au  C             1.00      3 P:x             6
                        (      55.959 eV)
   139     139      0.667      -0.189 au  C             1.00      1 P:y             6
                        (      -5.135 eV)
   140     140       --         0.168 au  C             1.00      2 P:y             6
                        (       4.559 eV)
   141     141       --         2.056 au  C             1.00      3 P:y             6
                        (      55.959 eV)
   142     142      0.667      -0.189 au  C             1.00      1 P:z             6
                        (      -5.135 eV)
   143     143       --         0.168 au  C             1.00      2 P:z             6
                        (       4.559 eV)
   144     144       --         2.056 au  C             1.00      3 P:z             6
                        (      55.959 eV)
   145     145       --         1.235 au  C             1.00      1 D:z2            6
                        (      33.605 eV)
   146     146       --         1.235 au  C             1.00      1 D:x2-y2         6
                        (      33.605 eV)
   147     147       --         1.235 au  C             1.00      1 D:xy            6
                        (      33.605 eV)
   148     148       --         1.235 au  C             1.00      1 D:xz            6
                        (      33.605 eV)
   149     149       --         1.235 au  C             1.00      1 D:yz            6
                        (      33.605 eV)
   150     150       --         4.005 au  C             1.00      1 F:z3            6
                        (     108.969 eV)
   151     151       --         4.005 au  C             1.00      1 F:z             6
                        (     108.969 eV)
   152     152       --         4.005 au  C             1.00      1 F:xyz           6
                        (     108.969 eV)
   153     153       --         4.005 au  C             1.00      1 F:z2x           6
                        (     108.969 eV)
   154     154       --         4.005 au  C             1.00      1 F:z2y           6
                        (     108.969 eV)
   155     155       --         4.005 au  C             1.00      1 F:x             6
                        (     108.969 eV)
   156     156       --         4.005 au  C             1.00      1 F:y             6
                        (     108.969 eV)
   157     157      2.000     -10.064 au  C             1.00      1 S               7
                        (    -273.865 eV)
   158     158      2.000      -0.507 au  C             1.00      2 S               7
                        (     -13.802 eV)
   159     159       --         0.384 au  C             1.00      3 S               7
                        (      10.456 eV)
   160     160       --         5.458 au  C             1.00      4 S               7
                        (     148.511 eV)
   161     161       --        49.970 au  C             1.00      5 S               7
                        (    1359.766 eV)
   162     162      0.667      -0.189 au  C             1.00      1 P:x             7
                        (      -5.135 eV)
   163     163       --         0.168 au  C             1.00      2 P:x             7
                        (       4.559 eV)
   164     164       --         2.056 au  C             1.00      3 P:x             7
                        (      55.959 eV)
   165     165      0.667      -0.189 au  C             1.00      1 P:y             7
                        (      -5.135 eV)
   166     166       --         0.168 au  C             1.00      2 P:y             7
                        (       4.559 eV)
   167     167       --         2.056 au  C             1.00      3 P:y             7
                        (      55.959 eV)
   168     168      0.667      -0.189 au  C             1.00      1 P:z             7
                        (      -5.135 eV)
   169     169       --         0.168 au  C             1.00      2 P:z             7
                        (       4.559 eV)
   170     170       --         2.056 au  C             1.00      3 P:z             7
                        (      55.959 eV)
   171     171       --         1.235 au  C             1.00      1 D:z2            7
                        (      33.605 eV)
   172     172       --         1.235 au  C             1.00      1 D:x2-y2         7
                        (      33.605 eV)
   173     173       --         1.235 au  C             1.00      1 D:xy            7
                        (      33.605 eV)
   174     174       --         1.235 au  C             1.00      1 D:xz            7
                        (      33.605 eV)
   175     175       --         1.235 au  C             1.00      1 D:yz            7
                        (      33.605 eV)
   176     176       --         4.005 au  C             1.00      1 F:z3            7
                        (     108.969 eV)
   177     177       --         4.005 au  C             1.00      1 F:z             7
                        (     108.969 eV)
   178     178       --         4.005 au  C             1.00      1 F:xyz           7
                        (     108.969 eV)
   179     179       --         4.005 au  C             1.00      1 F:z2x           7
                        (     108.969 eV)
   180     180       --         4.005 au  C             1.00      1 F:z2y           7
                        (     108.969 eV)
   181     181       --         4.005 au  C             1.00      1 F:x             7
                        (     108.969 eV)
   182     182       --         4.005 au  C             1.00      1 F:y             7
                        (     108.969 eV)
   183     183      2.000     -10.064 au  C             1.00      1 S               8
                        (    -273.865 eV)
   184     184      2.000      -0.507 au  C             1.00      2 S               8
                        (     -13.802 eV)
   185     185       --         0.384 au  C             1.00      3 S               8
                        (      10.456 eV)
   186     186       --         5.458 au  C             1.00      4 S               8
                        (     148.511 eV)
   187     187       --        49.970 au  C             1.00      5 S               8
                        (    1359.766 eV)
   188     188      0.667      -0.189 au  C             1.00      1 P:x             8
                        (      -5.135 eV)
   189     189       --         0.168 au  C             1.00      2 P:x             8
                        (       4.559 eV)
   190     190       --         2.056 au  C             1.00      3 P:x             8
                        (      55.959 eV)
   191     191      0.667      -0.189 au  C             1.00      1 P:y             8
                        (      -5.135 eV)
   192     192       --         0.168 au  C             1.00      2 P:y             8
                        (       4.559 eV)
   193     193       --         2.056 au  C             1.00      3 P:y             8
                        (      55.959 eV)
   194     194      0.667      -0.189 au  C             1.00      1 P:z             8
                        (      -5.135 eV)
   195     195       --         0.168 au  C             1.00      2 P:z             8
                        (       4.559 eV)
   196     196       --         2.056 au  C             1.00      3 P:z             8
                        (      55.959 eV)
   197     197       --         1.235 au  C             1.00      1 D:z2            8
                        (      33.605 eV)
   198     198       --         1.235 au  C             1.00      1 D:x2-y2         8
                        (      33.605 eV)
   199     199       --         1.235 au  C             1.00      1 D:xy            8
                        (      33.605 eV)
   200     200       --         1.235 au  C             1.00      1 D:xz            8
                        (      33.605 eV)
   201     201       --         1.235 au  C             1.00      1 D:yz            8
                        (      33.605 eV)
   202     202       --         4.005 au  C             1.00      1 F:z3            8
                        (     108.969 eV)
   203     203       --         4.005 au  C             1.00      1 F:z             8
                        (     108.969 eV)
   204     204       --         4.005 au  C             1.00      1 F:xyz           8
                        (     108.969 eV)
   205     205       --         4.005 au  C             1.00      1 F:z2x           8
                        (     108.969 eV)
   206     206       --         4.005 au  C             1.00      1 F:z2y           8
                        (     108.969 eV)
   207     207       --         4.005 au  C             1.00      1 F:x             8
                        (     108.969 eV)
   208     208       --         4.005 au  C             1.00      1 F:y             8
                        (     108.969 eV)
   209     209      2.000     -10.064 au  C             1.00      1 S               9
                        (    -273.865 eV)
   210     210      2.000      -0.507 au  C             1.00      2 S               9
                        (     -13.802 eV)
   211     211       --         0.384 au  C             1.00      3 S               9
                        (      10.456 eV)
   212     212       --         5.458 au  C             1.00      4 S               9
                        (     148.511 eV)
   213     213       --        49.970 au  C             1.00      5 S               9
                        (    1359.766 eV)
   214     214      0.667      -0.189 au  C             1.00      1 P:x             9
                        (      -5.135 eV)
   215     215       --         0.168 au  C             1.00      2 P:x             9
                        (       4.559 eV)
   216     216       --         2.056 au  C             1.00      3 P:x             9
                        (      55.959 eV)
   217     217      0.667      -0.189 au  C             1.00      1 P:y             9
                        (      -5.135 eV)
   218     218       --         0.168 au  C             1.00      2 P:y             9
                        (       4.559 eV)
   219     219       --         2.056 au  C             1.00      3 P:y             9
                        (      55.959 eV)
   220     220      0.667      -0.189 au  C             1.00      1 P:z             9
                        (      -5.135 eV)
   221     221       --         0.168 au  C             1.00      2 P:z             9
                        (       4.559 eV)
   222     222       --         2.056 au  C             1.00      3 P:z             9
                        (      55.959 eV)
   223     223       --         1.235 au  C             1.00      1 D:z2            9
                        (      33.605 eV)
   224     224       --         1.235 au  C             1.00      1 D:x2-y2         9
                        (      33.605 eV)
   225     225       --         1.235 au  C             1.00      1 D:xy            9
                        (      33.605 eV)
   226     226       --         1.235 au  C             1.00      1 D:xz            9
                        (      33.605 eV)
   227     227       --         1.235 au  C             1.00      1 D:yz            9
                        (      33.605 eV)
   228     228       --         4.005 au  C             1.00      1 F:z3            9
                        (     108.969 eV)
   229     229       --         4.005 au  C             1.00      1 F:z             9
                        (     108.969 eV)
   230     230       --         4.005 au  C             1.00      1 F:xyz           9
                        (     108.969 eV)
   231     231       --         4.005 au  C             1.00      1 F:z2x           9
                        (     108.969 eV)
   232     232       --         4.005 au  C             1.00      1 F:z2y           9
                        (     108.969 eV)
   233     233       --         4.005 au  C             1.00      1 F:x             9
                        (     108.969 eV)
   234     234       --         4.005 au  C             1.00      1 F:y             9
                        (     108.969 eV)
   235     235      2.000     -18.926 au  O             1.00      1 S              10
                        (    -515.001 eV)
   236     236      2.000      -0.887 au  O             1.00      2 S              10
                        (     -24.136 eV)
   237     237       --         0.804 au  O             1.00      3 S              10
                        (      21.890 eV)
   238     238       --        13.488 au  O             1.00      4 S              10
                        (     367.032 eV)
   239     239       --       121.767 au  O             1.00      5 S              10
                        (    3313.451 eV)
   240     240      1.333      -0.329 au  O             1.00      1 P:x            10
                        (      -8.949 eV)
   241     241       --         0.351 au  O             1.00      2 P:x            10
                        (       9.557 eV)
   242     242       --         3.863 au  O             1.00      3 P:x            10
                        (     105.120 eV)
   243     243      1.333      -0.329 au  O             1.00      1 P:y            10
                        (      -8.949 eV)
   244     244       --         0.351 au  O             1.00      2 P:y            10
                        (       9.557 eV)
   245     245       --         3.863 au  O             1.00      3 P:y            10
                        (     105.120 eV)
   246     246      1.333      -0.329 au  O             1.00      1 P:z            10
                        (      -8.949 eV)
   247     247       --         0.351 au  O             1.00      2 P:z            10
                        (       9.557 eV)
   248     248       --         3.863 au  O             1.00      3 P:z            10
                        (     105.120 eV)
   249     249       --         1.072 au  O             1.00      1 D:z2           10
                        (      29.175 eV)
   250     250       --         1.072 au  O             1.00      1 D:x2-y2        10
                        (      29.175 eV)
   251     251       --         1.072 au  O             1.00      1 D:xy           10
                        (      29.175 eV)
   252     252       --         1.072 au  O             1.00      1 D:xz           10
                        (      29.175 eV)
   253     253       --         1.072 au  O             1.00      1 D:yz           10
                        (      29.175 eV)
   254     254       --         3.353 au  O             1.00      1 F:z3           10
                        (      91.230 eV)
   255     255       --         3.353 au  O             1.00      1 F:z            10
                        (      91.230 eV)
   256     256       --         3.353 au  O             1.00      1 F:xyz          10
                        (      91.230 eV)
   257     257       --         3.353 au  O             1.00      1 F:z2x          10
                        (      91.230 eV)
   258     258       --         3.353 au  O             1.00      1 F:z2y          10
                        (      91.230 eV)
   259     259       --         3.353 au  O             1.00      1 F:x            10
                        (      91.230 eV)
   260     260       --         3.353 au  O             1.00      1 F:y            10
                        (      91.230 eV)
   261     261      1.000      -0.238 au  H             1.00      1 S              11
                        (      -6.484 eV)
   262     262       --         0.077 au  H             1.00      2 S              11
                        (       2.096 eV)
   263     263       --         1.521 au  H             1.00      3 S              11
                        (      41.380 eV)
   264     264       --         0.410 au  H             1.00      1 P:x            11
                        (      11.162 eV)
   265     265       --         0.410 au  H             1.00      1 P:y            11
                        (      11.162 eV)
   266     266       --         0.410 au  H             1.00      1 P:z            11
                        (      11.162 eV)
   267     267       --         2.567 au  H             1.00      1 D:z2           11
                        (      69.838 eV)
   268     268       --         2.567 au  H             1.00      1 D:x2-y2        11
                        (      69.838 eV)
   269     269       --         2.567 au  H             1.00      1 D:xy           11
                        (      69.838 eV)
   270     270       --         2.567 au  H             1.00      1 D:xz           11
                        (      69.838 eV)
   271     271       --         2.567 au  H             1.00      1 D:yz           11
                        (      69.838 eV)
   272     272      1.000      -0.238 au  H             1.00      1 S              12
                        (      -6.484 eV)
   273     273       --         0.077 au  H             1.00      2 S              12
                        (       2.096 eV)
   274     274       --         1.521 au  H             1.00      3 S              12
                        (      41.380 eV)
   275     275       --         0.410 au  H             1.00      1 P:x            12
                        (      11.162 eV)
   276     276       --         0.410 au  H             1.00      1 P:y            12
                        (      11.162 eV)
   277     277       --         0.410 au  H             1.00      1 P:z            12
                        (      11.162 eV)
   278     278       --         2.567 au  H             1.00      1 D:z2           12
                        (      69.838 eV)
   279     279       --         2.567 au  H             1.00      1 D:x2-y2        12
                        (      69.838 eV)
   280     280       --         2.567 au  H             1.00      1 D:xy           12
                        (      69.838 eV)
   281     281       --         2.567 au  H             1.00      1 D:xz           12
                        (      69.838 eV)
   282     282       --         2.567 au  H             1.00      1 D:yz           12
                        (      69.838 eV)
   283     283      1.000      -0.238 au  H             1.00      1 S              13
                        (      -6.484 eV)
   284     284       --         0.077 au  H             1.00      2 S              13
                        (       2.096 eV)
   285     285       --         1.521 au  H             1.00      3 S              13
                        (      41.380 eV)
   286     286       --         0.410 au  H             1.00      1 P:x            13
                        (      11.162 eV)
   287     287       --         0.410 au  H             1.00      1 P:y            13
                        (      11.162 eV)
   288     288       --         0.410 au  H             1.00      1 P:z            13
                        (      11.162 eV)
   289     289       --         2.567 au  H             1.00      1 D:z2           13
                        (      69.838 eV)
   290     290       --         2.567 au  H             1.00      1 D:x2-y2        13
                        (      69.838 eV)
   291     291       --         2.567 au  H             1.00      1 D:xy           13
                        (      69.838 eV)
   292     292       --         2.567 au  H             1.00      1 D:xz           13
                        (      69.838 eV)
   293     293       --         2.567 au  H             1.00      1 D:yz           13
                        (      69.838 eV)
   294     294      1.000      -0.238 au  H             1.00      1 S              14
                        (      -6.484 eV)
   295     295       --         0.077 au  H             1.00      2 S              14
                        (       2.096 eV)
   296     296       --         1.521 au  H             1.00      3 S              14
                        (      41.380 eV)
   297     297       --         0.410 au  H             1.00      1 P:x            14
                        (      11.162 eV)
   298     298       --         0.410 au  H             1.00      1 P:y            14
                        (      11.162 eV)
   299     299       --         0.410 au  H             1.00      1 P:z            14
                        (      11.162 eV)
   300     300       --         2.567 au  H             1.00      1 D:z2           14
                        (      69.838 eV)
   301     301       --         2.567 au  H             1.00      1 D:x2-y2        14
                        (      69.838 eV)
   302     302       --         2.567 au  H             1.00      1 D:xy           14
                        (      69.838 eV)
   303     303       --         2.567 au  H             1.00      1 D:xz           14
                        (      69.838 eV)
   304     304       --         2.567 au  H             1.00      1 D:yz           14
                        (      69.838 eV)
   305     305      1.000      -0.238 au  H             1.00      1 S              15
                        (      -6.484 eV)
   306     306       --         0.077 au  H             1.00      2 S              15
                        (       2.096 eV)
   307     307       --         1.521 au  H             1.00      3 S              15
                        (      41.380 eV)
   308     308       --         0.410 au  H             1.00      1 P:x            15
                        (      11.162 eV)
   309     309       --         0.410 au  H             1.00      1 P:y            15
                        (      11.162 eV)
   310     310       --         0.410 au  H             1.00      1 P:z            15
                        (      11.162 eV)
   311     311       --         2.567 au  H             1.00      1 D:z2           15
                        (      69.838 eV)
   312     312       --         2.567 au  H             1.00      1 D:x2-y2        15
                        (      69.838 eV)
   313     313       --         2.567 au  H             1.00      1 D:xy           15
                        (      69.838 eV)
   314     314       --         2.567 au  H             1.00      1 D:xz           15
                        (      69.838 eV)
   315     315       --         2.567 au  H             1.00      1 D:yz           15
                        (      69.838 eV)
   316     316      1.000      -0.238 au  H             1.00      1 S              16
                        (      -6.484 eV)
   317     317       --         0.077 au  H             1.00      2 S              16
                        (       2.096 eV)
   318     318       --         1.521 au  H             1.00      3 S              16
                        (      41.380 eV)
   319     319       --         0.410 au  H             1.00      1 P:x            16
                        (      11.162 eV)
   320     320       --         0.410 au  H             1.00      1 P:y            16
                        (      11.162 eV)
   321     321       --         0.410 au  H             1.00      1 P:z            16
                        (      11.162 eV)
   322     322       --         2.567 au  H             1.00      1 D:z2           16
                        (      69.838 eV)
   323     323       --         2.567 au  H             1.00      1 D:x2-y2        16
                        (      69.838 eV)
   324     324       --         2.567 au  H             1.00      1 D:xy           16
                        (      69.838 eV)
   325     325       --         2.567 au  H             1.00      1 D:xz           16
                        (      69.838 eV)
   326     326       --         2.567 au  H             1.00      1 D:yz           16
                        (      69.838 eV)
   327     327      1.000      -0.238 au  H             1.00      1 S              17
                        (      -6.484 eV)
   328     328       --         0.077 au  H             1.00      2 S              17
                        (       2.096 eV)
   329     329       --         1.521 au  H             1.00      3 S              17
                        (      41.380 eV)
   330     330       --         0.410 au  H             1.00      1 P:x            17
                        (      11.162 eV)
   331     331       --         0.410 au  H             1.00      1 P:y            17
                        (      11.162 eV)
   332     332       --         0.410 au  H             1.00      1 P:z            17
                        (      11.162 eV)
   333     333       --         2.567 au  H             1.00      1 D:z2           17
                        (      69.838 eV)
   334     334       --         2.567 au  H             1.00      1 D:x2-y2        17
                        (      69.838 eV)
[...]
                                   -2.51%     3 S              10.456  0.00     3 C
                                   -2.41%     2 P:y             4.559  0.00     2 C
                                   -2.33%     2 P:x             4.559  0.00     4 C
                                    2.22%     1 S              -6.484  1.00    11 H
                                   -2.19%     2 P:y             4.559  0.00     8 C
                                   -1.89%     3 S              10.456  0.00     1 C
                                    1.74%     1 S              -6.484  1.00    14 H
                                   -1.68%     2 P:x             4.559  0.00     1 C
                                    1.66%     1 P:y            -5.135  0.67     1 C
                                    1.66%     1 P:y            -5.135  0.67     2 C
                                   -1.65%     1 P:x            -5.135  0.67     8 C
                                   -1.61%     1 P:x            -5.135  0.67     6 C
                                   -1.56%     1 P:x            -5.135  0.67     5 C
                                   -1.04%     1 P:x            -5.135  0.67     7 C
                                   -1.01%     3 S              10.456  0.00     9 C
       0.365  0.00    42 A         17.08%     2 S               2.096  0.00    14 H
                                   16.42%     2 S               2.096  0.00    12 H
                                   14.46%     2 S               2.096  0.00    13 H
                                   13.36%     2 S               2.096  0.00    18 H
                                   13.13%     1 S              -6.484  1.00    18 H
                                   12.38%     1 S              -6.484  1.00    17 H
                                   12.13%     1 S              -6.484  1.00    12 H
                                   11.30%     1 S              -6.484  1.00    14 H
                                   10.53%     1 S              -6.484  1.00    13 H
                                  -10.50%     2 P:y             4.559  0.00     6 C
                                   -9.18%     2 P:y             4.559  0.00     2 C
                                    9.04%     2 S               2.096  0.00    11 H
                                   -8.72%     2 P:x             4.559  0.00     9 C
                                    7.98%     2 S               2.096  0.00    17 H
                                   -7.45%     2 P:y             4.559  0.00     8 C
                                    7.23%     1 S              -6.484  1.00    11 H
                                   -6.93%     2 P:y             4.559  0.00     3 C
                                   -6.29%     2 P:y             4.559  0.00     7 C
                                    5.54%     1 S              -6.484  1.00    15 H
                                   -4.80%     2 P:x             4.559  0.00     7 C
                                    4.66%     2 S               2.096  0.00    15 H
                                    4.37%     1 S              -6.484  1.00    16 H
                                   -3.32%     2 P:y             4.559  0.00     5 C
                                   -3.30%     2 P:y             4.559  0.00     1 C
                                    2.52%     2 S               2.096  0.00    16 H
                                   -1.82%     1 P:y            -5.135  0.67     6 C
                                   -1.68%     1 P:y            -5.135  0.67     7 C
                                   -1.50%     2 P:x             4.559  0.00     8 C
                                   -1.36%     2 P:x             4.559  0.00     6 C
                                   -1.15%     3 S              10.456  0.00     6 C
                                   -1.06%     1 P:y            -5.135  0.67     2 C
       0.379  0.00    43 A         35.08%     1 P:z            -5.135  0.67     2 C
                                   24.26%     1 P:z            -5.135  0.67     3 C
                                   22.17%     1 P:z            -5.135  0.67     1 C
                                   -8.96%     2 P:z             4.559  0.00     2 C
                                    7.64%     1 P:z            -5.135  0.67     6 C
                                    7.63%     1 P:z            -5.135  0.67     7 C
                                    6.25%     1 P:z            -8.949  1.33    10 O
                                    3.48%     1 P:z            -5.135  0.67     4 C
                                   -2.96%     2 P:z             4.559  0.00     1 C
                                    2.70%     1 P:z            -5.135  0.67     8 C
                                   -2.31%     2 P:z             4.559  0.00     3 C
                                    2.20%     1 P:z            11.162  0.00    17 H
                                    2.17%     1 P:z            11.162  0.00    18 H
                                   -1.97%     2 P:z             4.559  0.00     4 C
                                    1.62%     1 P:z            11.162  0.00    16 H
                                   -1.54%     2 P:z             9.557  0.00    10 O
                                   -1.46%     2 P:z             4.559  0.00     7 C
                                    1.09%     1 P:z            -5.135  0.67     5 C
       0.828  0.00    44 A         28.76%     2 S               2.096  0.00    18 H
                                   25.99%     2 S               2.096  0.00    17 H
                                   16.13%     1 S              -6.484  1.00    14 H
                                   15.36%     1 S              -6.484  1.00    17 H
                                   14.62%     2 S               2.096  0.00    14 H
                                   14.38%     1 S              -6.484  1.00    18 H
                                   14.30%     1 S              -6.484  1.00    11 H
                                  -12.99%     2 P:y             4.559  0.00     8 C
                                   10.21%     2 S               2.096  0.00    11 H
                                  -10.05%     2 P:y             4.559  0.00     5 C
                                   -9.88%     2 P:x             4.559  0.00     1 C
                                   -7.93%     2 P:y             4.559  0.00     2 C
                                    7.50%     2 S               2.096  0.00    13 H
                                   -6.52%     2 P:x             4.559  0.00     7 C
                                    6.18%     1 S              -6.484  1.00    13 H
                                   -5.87%     3 S              10.456  0.00     3 C
                                    5.02%     2 S               2.096  0.00    12 H
                                   -4.50%     1 P:x            -5.135  0.67     1 C
                                   -4.00%     2 P:x             4.559  0.00     2 C
                                   -3.72%     2 P:x             4.559  0.00     6 C
                                   -3.16%     2 P:y             4.559  0.00     3 C
                                    3.06%     1 S              -6.484  1.00    12 H
                                    2.84%     1 P:y            -5.135  0.67     3 C
                                    2.81%     1 P:y            -5.135  0.67     2 C
                                   -2.40%     2 P:x             4.559  0.00     9 C
                                    2.20%     2 P:y             4.559  0.00     4 C
                                   -2.02%     2 P:x             4.559  0.00     4 C
                                   -1.70%     1 P:x            -5.135  0.67     2 C
                                    1.64%     1 P:y            -5.135  0.67     7 C
                                   -1.57%     2 S               2.096  0.00    16 H
                                    1.48%     2 P:y             4.559  0.00     7 C
                                    1.35%     3 S              41.380  0.00    11 H
                                   -1.25%     3 S              10.456  0.00     5 C
                                    1.25%     3 S              41.380  0.00    14 H
                                   -1.22%     1 P:x            -5.135  0.67     4 C
                                    1.19%     1 P:y            -5.135  0.67     4 C
                                   -1.15%     1 P:x            -5.135  0.67     7 C
                                    1.11%     2 S             -13.802  2.00     8 C
                                    1.10%     2 S             -13.802  2.00     5 C
                                   -1.03%     1 P:x            -5.135  0.67     6 C
       1.287  0.00    45 A         24.86%     1 S              -6.484  1.00    13 H
                                   21.30%     1 S              -6.484  1.00    12 H
                                   15.82%     1 S              -6.484  1.00    18 H
                                  -15.47%     2 P:x             4.559  0.00     7 C
                                   15.22%     2 S               2.096  0.00    13 H
                                   13.54%     1 S              -6.484  1.00    14 H
                                   12.99%     2 S               2.096  0.00    12 H
                                  -11.25%     2 P:y             4.559  0.00     8 C
                                   10.35%     1 S              -6.484  1.00    16 H
                                   -9.46%     2 P:x             4.559  0.00     6 C
                                    8.88%     2 S               2.096  0.00    16 H
                                   -8.68%     2 P:y             4.559  0.00     6 C
                                    7.83%     2 S               2.096  0.00    18 H
                                   -6.52%     2 P:y             4.559  0.00     3 C
                                    6.33%     1 S              -6.484  1.00    17 H
                                    6.02%     2 S               2.096  0.00    14 H
                                    5.43%     2 S               2.096  0.00    17 H
                                   -3.85%     2 P:y             4.559  0.00     2 C
                                    3.51%     1 S              -6.484  1.00    11 H
                                    2.94%     2 S               2.096  0.00    11 H
                                   -2.90%     2 P:y             4.559  0.00     1 C
                                    2.51%     3 S              41.380  0.00    13 H
                                   -2.43%     2 P:y             4.559  0.00     7 C
                                    2.32%     3 S              41.380  0.00    12 H
                                   -2.08%     2 P:x             4.559  0.00     2 C
                                   -1.98%     1 P:y            -5.135  0.67     6 C
                                    1.89%     2 S             -13.802  2.00     7 C
                                    1.68%     1 P:y            -5.135  0.67     1 C
                                   -1.62%     2 P:x             4.559  0.00     5 C
                                   -1.46%     2 P:y             4.559  0.00     5 C
                                   -1.46%     3 S              10.456  0.00     1 C
                                   -1.45%     3 S              10.456  0.00     4 C
                                    1.38%     1 P:x            -5.135  0.67     6 C
                                   -1.31%     1 P:y            -5.135  0.67     8 C
                                    1.25%     3 S              41.380  0.00    14 H
                                    1.25%     1 P:y            -5.135  0.67     5 C
                                   -1.13%     3 S              10.456  0.00     3 C
                                    1.12%     2 P:x             4.559  0.00     8 C
                                    1.11%     2 S             -13.802  2.00     6 C
                                    1.09%     2 P:x             4.559  0.00     1 C
                                    1.09%     2 P:y             4.559  0.00     9 C
                                   -1.01%     3 S              10.456  0.00     2 C
                                   -1.01%     1 P:x            -5.135  0.67     2 C
                                   -1.00%     3 S              10.456  0.00     7 C
       2.028  0.00    46 A         22.92%     1 S              -6.484  1.00    16 H
                                   21.24%     1 S              -6.484  1.00    11 H
                                  -15.15%     2 P:y             4.559  0.00     5 C
                                   14.21%     1 S              -6.484  1.00    15 H
                                   13.45%     2 S               2.096  0.00    15 H
                                   10.41%     2 P:x             4.559  0.00     3 C
                                    9.42%     1 P:x            -5.135  0.67     3 C
                                    8.49%     2 S               2.096  0.00    17 H
                                   -8.36%     2 P:y             4.559  0.00     2 C
                                    8.33%     2 S               2.096  0.00    11 H
                                    7.78%     1 S              -6.484  1.00    17 H
                                    5.76%     1 S              -6.484  1.00    12 H
                                   -4.32%     2 P:x             4.559  0.00     6 C
                                    4.02%     2 S               2.096  0.00    18 H
                                   -3.92%     2 P:y             4.559  0.00     9 C
                                   -3.71%     3 S              10.456  0.00     9 C
                                   -3.70%     2 P:y             4.559  0.00     1 C
                                    3.62%     2 P:y             4.559  0.00     3 C
                                   -3.36%     3 S              21.890  0.00    10 O
                                   -3.17%     2 P:x             4.559  0.00     9 C
                                   -2.99%     3 S              10.456  0.00     3 C
                                    2.99%     2 P:y             4.559  0.00     6 C
                                    2.44%     1 P:y            -5.135  0.67     1 C
                                    2.17%     3 S              41.380  0.00    11 H
                                   -2.07%     2 S             -13.802  2.00     3 C
                                   -1.90%     2 S               2.096  0.00    16 H
                                    1.87%     2 S             -13.802  2.00     5 C
                                    1.87%     3 S              41.380  0.00    15 H
                                    1.81%     2 S             -13.802  2.00     9 C
                                    1.73%     2 S               2.096  0.00    12 H
                                    1.66%     3 S              41.380  0.00    16 H
                                    1.56%     1 P:y            -5.135  0.67     6 C
                                   -1.52%     3 S              10.456  0.00     5 C
                                    1.28%     1 S              -6.484  1.00    14 H
                                    1.21%     2 S             -13.802  2.00     8 C
                                   -1.17%     1 P:x            -5.135  0.67     6 C
                                   -1.17%     2 P:x             4.559  0.00     4 C
                                    1.11%     2 P:y             4.559  0.00     7 C
                                   -1.04%     1 P:x            -5.135  0.67     4 C

 Energy gradients wrt nuclear displacements
 ==========================================

     Atom      Cartesian (a.u./angstrom)
                 X         Y         Z
 ----------------------------------------
     1 C    -0.000070  0.000113 -0.000019
     2 C     0.000188  0.000304  0.000016
     3 C     0.000419  0.000097 -0.000072
     4 O    -0.000665  0.000848  0.000090
     5 C     0.000038  0.000007  0.000038
     6 C    -0.000188 -0.000163 -0.000016
     7 C    -0.000044 -0.000243 -0.000020
     8 C     0.000060 -0.000360 -0.000013
     9 C     0.000224 -0.000230 -0.000013
    10 C     0.000120 -0.000054 -0.000014
    11 H    -0.000225 -0.000087 -0.000006
    12 H    -0.000193 -0.000387 -0.000023
    13 H     0.000089 -0.000457 -0.000020
    14 H     0.000317 -0.000270 -0.000004
    15 H     0.000243  0.000007  0.000012
    16 H    -0.000222  0.000199 -0.000008
    17 H     0.000112  0.000210  0.000016
    18 H    -0.000202  0.000467  0.000057
 ----------------------------------------



 =======================================================================
 Electrostatic potential at the Nuclei due to electrons and other nuclei
 =======================================================================
  
         Atom                  Potential
         ----                  ---------
     1)   C                  14.75389746
     2)   C                  14.77565736
     3)   C                  14.71708215
     4)   O                  22.41038912
     5)   C                  14.75327844
     6)   C                  14.76701261
     7)   C                  14.77003259
     8)   C                  14.76810549
     9)   C                  14.77017305
    10)   C                  14.76826943
    11)   H                   1.08965680
    12)   H                   1.09195913
    13)   H                   1.09119422
    14)   H                   1.09285010
    15)   H                   1.09151892
    16)   H                   1.08625654
    17)   H                   1.09250194
    18)   H                   1.10530669
 Mulliken charges used for AMS results%charges...


    =====================
     CALCULATION RESULTS
    =====================

Energy (hartree)            -4.11890066

Gradients (hartree/bohr)
  Index   Atom            d/dx            d/dy            d/dz
      1      C   -0.0000369907    0.0000595980   -0.0000101770
      2      C    0.0000997312    0.0001607953    0.0000083417
      3      C    0.0002217837    0.0000512232   -0.0000380185
      4      O   -0.0003518377    0.0004489553    0.0000475817
      5      C    0.0000199129    0.0000035983    0.0000200248
      6      C   -0.0000996820   -0.0000862626   -0.0000083771
      7      C   -0.0000234836   -0.0001284024   -0.0000104598
      8      C    0.0000319307   -0.0001904382   -0.0000070894
      9      C    0.0001186980   -0.0001217048   -0.0000070163
     10      C    0.0000633757   -0.0000287388   -0.0000072416
     11      H   -0.0001192110   -0.0000460834   -0.0000030683
     12      H   -0.0001021607   -0.0002046047   -0.0000121821
     13      H    0.0000471033   -0.0002417119   -0.0000108105
     14      H    0.0001677930   -0.0001431298   -0.0000019259
     15      H    0.0001284040    0.0000036492    0.0000061938
     16      H   -0.0001176455    0.0001050890   -0.0000041685
     17      H    0.0000590338    0.0001109364    0.0000083445
     18      H   -0.0001067551    0.0002472318    0.0000300485


--------------
Atomic charges
--------------
  Index   Atom    Charge
      1      C    0.2800
      2      C    0.2056
      3      C    0.6282
      4      O   -0.4976
      5      C   -0.0050
      6      C    0.2974
      7      C    0.2419
      8      C    0.2554
      9      C    0.2446
     10      C    0.2939
     11      H   -0.2502
     12      H   -0.2453
     13      H   -0.2403
     14      H   -0.2443
     15      H   -0.2516
     16      H   -0.2203
     17      H   -0.2073
     18      H   -0.2849


Dipole moment vector    (Debye):    -4.78711028    0.38860956   -0.00181600
              magnitude (Debye):     4.80285806


AMS application finished. Exiting.
NORMAL TERMINATION
     Total cpu time:     174.53
  Total system time:       5.19
 Total elapsed time:     192.99
