

 Parallel Execution: Process Information
 ==============================================================================
 Rank   Node Name                              NodeID   MyNodeRank  NodeMaster
    0   node110                                   0          0          0
    1   node110                                   0          1         -1
    2   node110                                   0          2         -1
    3   node110                                   0          3         -1
 ==============================================================================


May use up to 122928MB of RAM as shared memory on node 0

 *******************************************************************************
 *                                                                             *
 *  --------------------------------                                           *
 *   Amsterdam Modeling Suite (AMS)              2021.102                      *
 *  --------------------------------                                           *
 *                                               r95042 2021-06-07             *
 *                                                                             *
 *                                                                             *
 *                              =================                              *
 *                              |               |                              *
 *                              |     A M S     |                              *
 *                              |               |                              *
 *                              =================                              *
 *                                                                             *
 *                                                                             *
 *   Online information and documentation:  https://www.scm.com/support/       *
 *   E-mail:  support@scm.com   info@scm.com                                   *
 *                                                                             *
 *   Scientific publications using AMS results must be properly referenced     *
 *   See the User Manuals (or the web site) for recommended citations          *
 *   The terms and conditions of the End User License Agreement apply to       *
 *   the use of AMS, https://www.scm.com/license-terms/                        *
 *                                                                             *
 **********************  x86_64_linux_intel / intelmpi  ************************
 
 Licensed to: VU/FEW (+ SARA) / ALGEMEEN / Amsterdam / THE NETHERLANDS
 SCM User ID: u7668
  
 AMS 2021.102  RunTime: Jan19-2022 20:21:33  ShM Nodes: 1  Procs: 4

 AMS jobname: Rrad_preopt
 AMS jobid  : 1031384419

 Start   directory: /scistor/tc/yhk800/MasterProject/scripts/plams_workdir.002/Rrad_preopt/
 Results directory: /scistor/tc/yhk800/MasterProject/scripts/plams_workdir.002/Rrad_preopt/
 Scratch directory: /scratch/3423/amstmp_Rrad_preopt_kid0.1031384419/


 Communication costs MPI_COMM_WORLD:      0.876 usec per message,   0.0036 usec per 8-byte item
 Communication costs for intra-node:      0.886 usec per message,   0.0036 usec per 8-byte item

 RNG seed: -751556608 -2123587005 844001143 1079258961 -1797522618 -51738412 272777296 -1696292502
       ***************************
       *  GEOMETRY OPTIMIZATION  *
       ***************************

Optimization Method                    Quasi Newton
Optimization Coordinates               Delocalized Coordinates
Optimize lattice                       F
 
 ------------------------------------------------------
 Convergence criteria (Hartree,Angstrom)
 ------------------------------------------------------
 Maximum gradient               0.001000000000
 Maximum rms gradient           0.000666666667
 Maximum step allowed           0.010000000000
 Maximum rms step allowed       0.006666666667
 Maximum energy change allowe   0.000040000000
 Maximum stress energy allowe   0.000500000000
 
Initial model Hessian                  Automatic Hessian
 
------------------------------------
Quasi-Newton Optimizer Parameters
------------------------------------
Hessian Update Method                  BFGS
Maximum number of steps                  250
First GDIIS cycle                          0
Maximum GDIIS vectors                      0
Trust radius (bohr)                        0.200000
Trust radius varies                        T
Constraints converged at all steps         T
Use projector                              T
 
 Rigid motions settings for: old optimizer
 Atomic rotations (x,y,z):     T T T
 Atomic translations (x,y,z):  T T T
 Tolerance:                   1.000000000000000E-006
 
--------
Geometry
--------
Formula: CH3
Atoms
  Index Symbol   x (angstrom)   y (angstrom)   z (angstrom)
      1      H     2.05357037    -0.80344073     0.00000000
      2      C     0.97293718    -0.69574113     0.00000000
      3      H     0.66346652    -0.15035116     0.88661716
      4      H     0.66346652     0.15035116    -0.88661716
 
Total System Charge             0.00000
 
 
-------------------------
DFTB Engine configuration
-------------------------
DFTB Resources dir                     /cm/shared/package/ams2021.102/atomicdata/DFTB/GFN1-xTB
 
SCC convergence enabled.
Maximum SCC cycles                       500
SCC charge convergence                   0.000000010000
SCC charge mixing                        0.150000000000
DIIS max dimension                       20
Adaptive SCC charge mixing             T
Adaptive SCC mixing strategy              3
Spin polarization                      F
Orbital-dependent SCC                  T
Orbital fill strategy                  Fermi
Fermi temperature (kelvin)                     300.0000
Use of symmetry                        T
Radial function extrapolation method   Auto

 Settings for Grimme D3 dispersion correction

      damping                        BJ
      s6                          1.000
      s8                          2.400
      a1                          0.630
      a2                          5.000

 Other (technical) parameters

      alpha                      14.000
      version                         4
 

---------------------
Periodic DFTB options
---------------------
 kpoints config
 grid method with params
Assume insulator                        F
Ewald tolerance                    1.00E-10
Ewald range factor                  2.00

 BZStruct config
 ---------------
 Enabled        T
 Automatic      T
 CalcFatBands   T
 useSymmetry    T
 deltaK          0.100000000000000     
 
 Using automatic Hessian for delocalized coordinates.
 
----------------------------------------------------------------------
Geometry Convergence after Step   1       (Hartree/Angstrom,Angstrom)
----------------------------------------------------------------------
current energy                               -3.60346629 Hartree
energy change                      -3.60346629     0.00004000    F
constrained gradient max            0.15757477     0.00100000    F
constrained gradient rms            0.06474111     0.00066667    F
gradient max                        0.15757477
gradient rms                        0.06474111
cart. step max                      0.03805251     0.01000000    F
cart. step rms                      0.01771510     0.00666667    F
 
 
--------
Geometry
--------
Formula: CH3
Atoms
  Index Symbol   x (angstrom)   y (angstrom)   z (angstrom)
      1      H     2.04550289    -0.80358840    -0.01703169
      2      C     0.97215185    -0.65768862    -0.01005751
      3      H     0.65278588    -0.15750010     0.89933389
      4      H     0.68299997     0.11959527    -0.87224468
 
Total System Charge             0.00000
 

 dE(predicted):    -0.83046E-02, dE(actual):    -0.10953E-01, Trust radius:    0.400000, all in a.u.
 
----------------------------------------------------------------------
Geometry Convergence after Step   2       (Hartree/Angstrom,Angstrom)
----------------------------------------------------------------------
current energy                               -3.61441952 Hartree
energy change                      -0.01095323     0.00004000    F
constrained gradient max            0.12562297     0.00100000    F
constrained gradient rms            0.05037245     0.00066667    F
gradient max                        0.12562297
gradient rms                        0.05037245
cart. step max                      0.07215668     0.01000000    F
cart. step rms                      0.03477580     0.00666667    F
 
 
--------
Geometry
--------
Formula: CH3
Atoms
  Index Symbol   x (angstrom)   y (angstrom)   z (angstrom)
      1      H     2.02826338    -0.80352018    -0.04243603
      2      C     0.97061525    -0.58553194    -0.03756884
      3      H     0.63774300    -0.16811492     0.90428184
      4      H     0.71681895     0.05798518    -0.82427697
 
Total System Charge             0.00000
 

 dE(predicted):    -0.13179E-01, dE(actual):    -0.96825E-02, Trust radius:    0.400000, all in a.u.
 
----------------------------------------------------------------------
Geometry Convergence after Step   3       (Hartree/Angstrom,Angstrom)
----------------------------------------------------------------------
current energy                               -3.62410198 Hartree
energy change                      -0.00968246     0.00004000    F
constrained gradient max            0.04540598     0.00100000    F
constrained gradient rms            0.02312545     0.00066667    F
gradient max                        0.04540598
gradient rms                        0.02312545
cart. step max                      0.04711106     0.01000000    F
cart. step rms                      0.02375176     0.00666667    F
 
 
--------
Geometry
--------
Formula: CH3
Atoms
  Index Symbol   x (angstrom)   y (angstrom)   z (angstrom)
      1      H     2.03529224    -0.82673230    -0.02756880
      2      C     0.99092214    -0.54646109    -0.02961116
      3      H     0.63665868    -0.18894694     0.92856798
      4      H     0.69056753     0.06295847    -0.87138803
 
Total System Charge             0.00000
 

 dE(predicted):    -0.28111E-02, dE(actual):    -0.36824E-02, Trust radius:    0.400000, all in a.u.
 
----------------------------------------------------------------------
Geometry Convergence after Step   4       (Hartree/Angstrom,Angstrom)
----------------------------------------------------------------------
current energy                               -3.62778438 Hartree
energy change                      -0.00368240     0.00004000    F
constrained gradient max            0.02967984     0.00100000    F
constrained gradient rms            0.01155029     0.00066667    F
gradient max                        0.02967984
gradient rms                        0.01155029
cart. step max                      0.05391233     0.01000000    F
cart. step rms                      0.02098135     0.00666667    F
 
 
--------
Geometry
--------
Formula: CH3
Atoms
  Index Symbol   x (angstrom)   y (angstrom)   z (angstrom)
      1      H     2.03395560    -0.84789302    -0.02528187
      2      C     1.01472918    -0.49254876    -0.02506136
      3      H     0.62825579    -0.20860926     0.94070577
      4      H     0.67650002     0.04986918    -0.89036254
 
Total System Charge             0.00000
 

 dE(predicted):    -0.13533E-02, dE(actual):    -0.18719E-02, Trust radius:    0.800000, all in a.u.
 
----------------------------------------------------------------------
Geometry Convergence after Step   5       (Hartree/Angstrom,Angstrom)
----------------------------------------------------------------------
current energy                               -3.62965628 Hartree
energy change                      -0.00187190     0.00004000    F
constrained gradient max            0.01370898     0.00100000    F
constrained gradient rms            0.00657535     0.00066667    F
gradient max                        0.01370898
gradient rms                        0.00657535
cart. step max                      0.04025190     0.01000000    F
cart. step rms                      0.01673678     0.00666667    F
 
 
--------
Geometry
--------
Formula: CH3
Atoms
  Index Symbol   x (angstrom)   y (angstrom)   z (angstrom)
      1      H     2.03351206    -0.86512241    -0.03328168
      2      C     1.04010819    -0.45229687    -0.01460049
      3      H     0.61241811    -0.21896559     0.94281706
      4      H     0.66740222     0.03720301    -0.89493489
 
Total System Charge             0.00000
 

 dE(predicted):    -0.59093E-03, dE(actual):    -0.84459E-03, Trust radius:    0.800000, all in a.u.
 
----------------------------------------------------------------------
Geometry Convergence after Step   6       (Hartree/Angstrom,Angstrom)
----------------------------------------------------------------------
current energy                               -3.63050087 Hartree
energy change                      -0.00084459     0.00004000    F
constrained gradient max            0.00771899     0.00100000    F
constrained gradient rms            0.00317194     0.00066667    F
gradient max                        0.00771899
gradient rms                        0.00317194
cart. step max                      0.03511110     0.01000000    F
cart. step rms                      0.01486899     0.00666667    F
 
 
--------
Geometry
--------
Formula: CH3
Atoms
  Index Symbol   x (angstrom)   y (angstrom)   z (angstrom)
      1      H     2.03178935    -0.87995628    -0.04017418
      2      C     1.06435072    -0.41718576    -0.00573449
      3      H     0.59834391    -0.22754409     0.94093026
      4      H     0.65895661     0.02550428    -0.89502159
 
Total System Charge             0.00000
 

 dE(predicted):    -0.25718E-03, dE(actual):    -0.34229E-03, Trust radius:    0.800000, all in a.u.
 
----------------------------------------------------------------------
Geometry Convergence after Step   7       (Hartree/Angstrom,Angstrom)
----------------------------------------------------------------------
current energy                               -3.63084316 Hartree
energy change                      -0.00034229     0.00004000    F
constrained gradient max            0.00270614     0.00100000    F
constrained gradient rms            0.00133720     0.00066667    F
gradient max                        0.00270614
gradient rms                        0.00133720
cart. step max                      0.02485656     0.01000000    F
cart. step rms                      0.00985330     0.00666667    F
 
 
--------
Geometry
--------
Formula: CH3
Atoms
  Index Symbol   x (angstrom)   y (angstrom)   z (angstrom)
      1      H     2.02865042    -0.88937354    -0.04163950
      2      C     1.07968314    -0.39232920    -0.00186431
      3      H     0.59217358    -0.23525981     0.93984310
      4      H     0.65293345     0.01778069    -0.89633928
 
Total System Charge             0.00000
 

 dE(predicted):    -0.67755E-04, dE(actual):    -0.89431E-04, Trust radius:    0.800000, all in a.u.
 
----------------------------------------------------------------------
Geometry Convergence after Step   8       (Hartree/Angstrom,Angstrom)
----------------------------------------------------------------------
current energy                               -3.63093259 Hartree
energy change                      -0.00008943     0.00004000    F
constrained gradient max            0.00161222     0.00100000    F
constrained gradient rms            0.00088758     0.00066667    F
gradient max                        0.00161222
gradient rms                        0.00088758
cart. step max                      0.01458028     0.01000000    F
cart. step rms                      0.00553578     0.00666667    T
 
 
--------
Geometry
--------
Formula: CH3
Atoms
  Index Symbol   x (angstrom)   y (angstrom)   z (angstrom)
      1      H     2.02608204    -0.89431383    -0.04152114
      2      C     1.08724816    -0.37774892    -0.00029057
      3      H     0.59012421    -0.24053159     0.94026969
      4      H     0.64998618     0.01341248    -0.89845798
 
Total System Charge             0.00000
 

 dE(predicted):    -0.15886E-04, dE(actual):    -0.18689E-04, Trust radius:    0.800000, all in a.u.
 
---------------------------------------------------------
Geometry Convergence after Step   9       ** CONVERGED **
---------------------------------------------------------
current energy                               -3.63095128 Hartree
energy change                      -0.00001869     0.00004000    T
constrained gradient max            0.00071872     0.00100000    T
constrained gradient rms            0.00039179     0.00066667    T
gradient max                        0.00071872
gradient rms                        0.00039179
cart. step max                      0.00295709     0.01000000    T
cart. step rms                      0.00110314     0.00666667    T
 
Geometry optimization converged

Optimized geometry:
 
--------
Geometry
--------
Formula: CH3
Atoms
  Index Symbol   x (angstrom)   y (angstrom)   z (angstrom)
      1      H     2.02608204    -0.89431383    -0.04152114
      2      C     1.08724816    -0.37774892    -0.00029057
      3      H     0.59012421    -0.24053159     0.94026969
      4      H     0.64998618     0.01341248    -0.89845798
 
Total System Charge             0.00000
 
Performing a single point calculation on the final geometry ...

Estimated upper bound for memory consumption:    0.015 MiB

Number of basis functions:           10
    Cycle:   1, MaxQDiff:   0.000000004282, PartialEnergy:      -3.6875099440, Used mix:   0.150 nvec:    0
 Evaluation was successful


    =====================
     CALCULATION RESULTS
    =====================

Energy (hartree)            -3.63095128

Gradients (hartree/bohr)
  Index   Atom            d/dx            d/dy            d/dz
      1      H   -0.0003803320    0.0002539325   -0.0000125917
      2      C    0.0002707623   -0.0002836196    0.0000882805
      3      H    0.0000661955    0.0000484913   -0.0002958535
      4      H    0.0000433742   -0.0000188042    0.0002201647


--------------
Atomic charges
--------------
  Index   Atom    Charge
      1      H    0.0403
      2      C   -0.1208
      3      H    0.0402
      4      H    0.0402


Dipole moment vector    (Debye):     0.00128527    0.00202340    0.00036235
              magnitude (Debye):     0.00242432

 
--------------------
Energy Decomposition
--------------------
Total Energy (hartree)                -3.63095128
Total Energy (eV)                    -98.80321141
Electronic Energy (hartree)           -3.68766064
Coulomb Energy (hartree)               0.00015070
Repulsion Energy (hartree)             0.05688274
Dispersion Energy (hartree)           -0.00032408
 
----------------------
Gradient Decomposition
----------------------
Total Gradients (hartree/bohr)
  Index   Atom            d/dx            d/dy            d/dz
      1      H   -0.0003803320    0.0002539325   -0.0000125917
      2      C    0.0002707623   -0.0002836196    0.0000882805
      3      H    0.0000661955    0.0000484913   -0.0002958535
      4      H    0.0000433742   -0.0000188042    0.0002201647
 
Total Gradients (eV/angstrom)
  Index   Atom            d/dx            d/dy            d/dz
      1      H   -0.0195574546    0.0130577325   -0.0006474892
      2      C    0.0139231560   -0.0145843043    0.0045395646
      3      H    0.0034039067    0.0024935212   -0.0152133994
      4      H    0.0022303919   -0.0009669495    0.0113213239
 
Electronic Gradients (hartree/bohr)
  Index   Atom            d/dx            d/dy            d/dz
      1      H    0.0674954586   -0.0370932991   -0.0029935549
      2      C   -0.0002613482   -0.0010048425   -0.0000620989
      3      H   -0.0357821276    0.0099428630    0.0675287792
      4      H   -0.0314519828    0.0281552786   -0.0644731254
 
Coulomb Gradients (hartree/bohr)
  Index   Atom            d/dx            d/dy            d/dz
      1      H    0.0001079201   -0.0000587511   -0.0000046612
      2      C   -0.0000017230   -0.0000025376   -0.0000004884
      3      H   -0.0000565603    0.0000161723    0.0001075464
      4      H   -0.0000496368    0.0000451163   -0.0001023968
 
Repulsion Gradients (hartree/bohr)
  Index   Atom            d/dx            d/dy            d/dz
      1      H   -0.0679837918    0.0374060318    0.0029856287
      2      C    0.0005338351    0.0007237470    0.0001508685
      3      H    0.0359049262   -0.0099105520   -0.0679322558
      4      H    0.0315450306   -0.0282192267    0.0647957586
 
Dispersion Gradients (hartree/bohr)
  Index   Atom            d/dx            d/dy            d/dz
      1      H    0.0000000812   -0.0000000492   -0.0000000042
      2      C   -0.0000000016    0.0000000136   -0.0000000007
      3      H   -0.0000000429    0.0000000079    0.0000000767
      4      H   -0.0000000367    0.0000000277   -0.0000000717
 
----------------
Mulliken Charges
----------------
  Index   Atom          Charge      Population
      1      H    0.0403154894        0.959685
      2      C   -0.1207552706        4.120755
      3      H    0.0402376396        0.959762
      4      H    0.0402021417        0.959798
         Total    0.0000000000        7.000000
 
----------------------
Mulliken Shell Charges
----------------------
  Index   Atom      L          Charge      Population
      1      H      0    0.0463567481        0.953643
      2      H      0   -0.0060412587        0.006041
      3      C      0    0.9409098601        1.059090
      4      C      1   -1.0616651307        3.061665
      5      H      0    0.0462961811        0.953704
      6      H      0   -0.0060585415        0.006059
      7      H      0    0.0462686753        0.953731
      8      H      0   -0.0060665336        0.006067
                Total    0.0000000000        7.000000
 
 
--------
Orbitals
--------
Index of HOMO                    4
Fermi Energy (hartree)           -0.36361639
Orbitals
   Index  Energy (hartree)       Energy (eV)        Occupation  Degeneracy
       1       -0.61304676      -16.68185106        2.00000000           1
       2       -0.52318925      -14.23670377        2.00000000           1
       3       -0.52303777      -14.23258181        2.00000000           1
       4       -0.36361639       -9.89450532        1.00000000           1
       5       -0.12781819       -3.47810980        0.00000000           1
       6       -0.06289270       -1.71139754        0.00000000           2
       7       -0.06283763       -1.70989881        0.00000000           2
       8        0.31882088        8.67555761        0.00000000           1
       9        0.35710306        9.71726865        0.00000000           1
      10        0.35887145        9.76538889        0.00000000           1
 

AMS application finished. Exiting.
NORMAL TERMINATION
     Total cpu time:       0.63
  Total system time:       0.13
 Total elapsed time:       0.89
