

 Parallel Execution: Process Information
 ==============================================================================
 Rank   Node Name                              NodeID   MyNodeRank  NodeMaster
    0   node120                                   0          0          0
    1   node120                                   0          1         -1
    2   node120                                   0          2         -1
    3   node120                                   0          3         -1
 ==============================================================================


May use up to 122928MB of RAM as shared memory on node 0

 *******************************************************************************
 *                                                                             *
 *  --------------------------------                                           *
 *   Amsterdam Modeling Suite (AMS)              2021.102                      *
 *  --------------------------------                                           *
 *                                               r95042 2021-06-07             *
 *                                                                             *
 *                                                                             *
 *                              =================                              *
 *                              |               |                              *
 *                              |     A M S     |                              *
 *                              |               |                              *
 *                              =================                              *
 *                                                                             *
 *                                                                             *
 *   Online information and documentation:  https://www.scm.com/support/       *
 *   E-mail:  support@scm.com   info@scm.com                                   *
 *                                                                             *
 *   Scientific publications using AMS results must be properly referenced     *
 *   See the User Manuals (or the web site) for recommended citations          *
 *   The terms and conditions of the End User License Agreement apply to       *
 *   the use of AMS, https://www.scm.com/license-terms/                        *
 *                                                                             *
 **********************  x86_64_linux_intel / intelmpi  ************************
 
 Licensed to: VU/FEW (+ SARA) / ALGEMEEN / Amsterdam / THE NETHERLANDS
 SCM User ID: u7668
  
 AMS 2021.102  RunTime: Feb01-2022 21:07:15  ShM Nodes: 1  Procs: 4

 AMS jobname: 36.achiral_catalyst.H_tBu_AlF3.P2
 AMS jobid  : 1175773309

 Start   directory: /scistor/tc/yhk800/MasterProject/calculations/achiral_catalyst_H_tBu_AlF3/36.achiral_catalyst.H_tBu_AlF3.P2/
 Results directory: /scistor/tc/yhk800/MasterProject/calculations/achiral_catalyst_H_tBu_AlF3/36.achiral_catalyst.H_tBu_AlF3.P2/
 Scratch directory: /scratch/5502/amstmp_36.achiral_catalyst.H_tBu_AlF3.P2_kid0.1175773309/


 Communication costs MPI_COMM_WORLD:     -0.509 usec per message,   0.0105 usec per 8-byte item
 Communication costs for intra-node:      0.085 usec per message,   0.0078 usec per 8-byte item

 RNG seed: 730803484 104418182 -1219197504 -126515568 294592327 -1616818375 -1951544854 -1848960156



                      ************************************************************************
                      *  ADF 2021.102  RunTime: Feb01-2022 21:07:17  ShM Nodes: 1  Procs: 4  *
                      ************************************************************************
  
       ***************************
       *  GEOMETRY OPTIMIZATION  *
       ***************************

Optimization Method                    Quasi Newton
Optimization Coordinates               Delocalized Coordinates
Optimize lattice                       F
 
 ------------------------------------------------------
 Convergence criteria (Hartree,Angstrom)
 ------------------------------------------------------
 Maximum gradient               0.001000000000
 Maximum rms gradient           0.000666666667
 Maximum step allowed           0.010000000000
 Maximum rms step allowed       0.006666666667
 Maximum energy change allowe   0.000290000000
 Maximum stress energy allowe   0.000500000000
 
Initial model Hessian                  Automatic Hessian
 
------------------------------------
Quasi-Newton Optimizer Parameters
------------------------------------
Hessian Update Method                  BFGS
Maximum number of steps                  250
First GDIIS cycle                          0
Maximum GDIIS vectors                      0
Trust radius (bohr)                        0.200000
Trust radius varies                        T
Constraints converged at all steps         T
Use projector                              T
 
 Rigid motions settings for: old optimizer
 Atomic rotations (x,y,z):     T T T
 Atomic translations (x,y,z):  T T T
 Tolerance:                   1.000000000000000E-006
 
--------
Geometry
--------
Formula: C8H16AlF3O
Atoms
  Index Symbol   x (angstrom)   y (angstrom)   z (angstrom)
      1      H     0.83345051    -1.35209109     1.20167740
      2      C    -0.83092072     0.03538951     0.93442801
      3      C     0.35139657    -0.78131674     0.40158875
      4      C     1.39689343     0.07225735    -0.26739819
      5      O     2.40703452    -0.34587328    -0.75774611
      6      H    -1.19392452     0.69150371     0.13740680
      7      H     0.00939092    -1.50634328    -0.34451216
      8      H    -0.05768346     0.24518214     2.94899716
      9      C    -0.44138171     0.87842746     2.14736270
     10      H     0.32560687     1.60312788     1.87585802
     11      H    -1.31355949     1.41759590     2.51749654
     12      C    -2.27071970    -1.82616668     0.11582029
     13      C    -1.96962468    -0.92743114     1.31904430
     14      C    -3.20179241    -0.09637428     1.68950211
     15      C    -1.51005423    -1.76760310     2.51446803
     16      H    -1.27318070    -1.12277223     3.36148834
     17      H    -3.07548253    -2.52473552     0.35095683
     18      H    -1.38428828    -2.39825896    -0.16042075
     19      H    -2.57404526    -1.22292570    -0.74059856
     20      H    -4.03273065    -0.74631316     1.96887984
     21      H    -3.51153452     0.51878769     0.84392839
     22      H    -2.97657760     0.55997399     2.53083710
     23      H    -2.29343234    -2.46452553     2.81703817
     24      H    -0.61838064    -2.33929178     2.25475744
     25      H     1.16279025     1.11629180    -0.25802988
     26     Al     3.62898812    -1.04016615    -1.71419100
     27      F     2.54630235    -1.34403940    -2.87684526
     28      F     3.90716904    -2.13950317    -0.56076746
     29      F     4.43349296     0.36304414    -1.70496026
 
Total System Charge             0.00000
 
 
----------------
ADF Engine Input
----------------
 
 NumericalQuality VeryGood
 SCF
 Converge 1.0e-6
 Iterations 99
 End
 SYMMETRY NOSYM
 XC
 GGA OLYP
 End
 basis
 core None
 type TZ2P
 End
 

 Title: *** (NO TITLE) ***

 Using automatic Hessian for delocalized coordinates.
 *** GOStep1 ***

 Energy gradients wrt nuclear displacements
 ==========================================

     Atom      Cartesian (a.u./angstrom)
                 X         Y         Z
 ----------------------------------------
     1 H    -0.005822  0.002023  0.004306
     2 C    -0.011049  0.012234 -0.014684
     3 C    -0.019081 -0.025904  0.011378
     4 C     0.055653  0.033400 -0.045929
     5 O     0.091933 -0.055058 -0.062745
     6 H     0.000907 -0.003179  0.004385
     7 H    -0.015164 -0.003447  0.000643
     8 H    -0.006301 -0.009124  0.000690
     9 C    -0.010311 -0.011618  0.011331
    10 H    -0.004136 -0.007655 -0.005609
    11 H    -0.009514 -0.007224 -0.002813
    12 C     0.012693  0.003640 -0.008540
    13 C     0.005784  0.000723  0.005231
    14 C     0.002955  0.008600 -0.001226
    15 C     0.011064  0.006702 -0.001367
    16 H     0.004733  0.010386 -0.005063
    17 H     0.002747  0.003695  0.002760
    18 H     0.014331  0.011632  0.002774
    19 H     0.002523  0.000214  0.006900
    20 H     0.004901 -0.000420 -0.001367
    21 H     0.005028 -0.003985  0.002513
    22 H     0.011246  0.001478 -0.001269
    23 H     0.000556  0.003910 -0.002250
    24 H     0.001401  0.007378 -0.006882
    25 H    -0.003982 -0.050551  0.011319
    26 Al   -0.032568  0.010968  0.013551
    27 F     0.023331  0.032895  0.083146
    28 F    -0.052907  0.077044 -0.030908
    29 F    -0.080952 -0.048757  0.029726
 ----------------------------------------
 Mulliken charges used for AMS results%charges...
 
----------------------------------------------------------------------
Geometry Convergence after Step   1       (Hartree/Angstrom,Angstrom)
----------------------------------------------------------------------
current energy                               -5.60649701 Hartree
energy change                      -5.60649701     0.00029000    F
constrained gradient max            0.09193293     0.00100000    F
constrained gradient rms            0.02583314     0.00066667    F
gradient max                        0.09193293
gradient rms                        0.02583314
cart. step max                      0.17657620     0.01000000    F
cart. step rms                      0.04262713     0.00666667    F
 
 
--------
Geometry
--------
Formula: C8H16AlF3O
Atoms
  Index Symbol   x (angstrom)   y (angstrom)   z (angstrom)
      1      H     0.85400254    -1.32495313     1.20917441
      2      C    -0.84297283     0.03110754     0.94417991
      3      C     0.35839611    -0.76531244     0.40935162
      4      C     1.38973976     0.10224515    -0.26302282
      5      O     2.41718373    -0.30857612    -0.75603706
      6      H    -1.21768318     0.68266820     0.14712674
      7      H     0.03702562    -1.49776639    -0.33643788
      8      H    -0.02454571     0.26329723     2.94678750
      9      C    -0.42526175     0.88610687     2.14643090
     10      H     0.33916692     1.60854795     1.85621350
     11      H    -1.28285740     1.43496166     2.53390242
     12      C    -2.32497554    -1.83958880     0.13397695
     13      C    -2.00337555    -0.93813286     1.33592227
     14      C    -3.23210304    -0.09388363     1.70383974
     15      C    -1.56123780    -1.79259984     2.53439526
     16      H    -1.31893792    -1.16182147     3.38946319
     17      H    -3.14038567    -2.52461957     0.37622231
     18      H    -1.45707572    -2.43305418    -0.15145703
     19      H    -2.62529890    -1.23615340    -0.72512297
     20      H    -4.07043633    -0.73656411     1.98136531
     21      H    -3.53687974     0.52419486     0.85691474
     22      H    -3.01153822     0.56270862     2.54554815
     23      H    -2.35844802    -2.47820419     2.82953422
     24      H    -0.67849487    -2.38195049     2.28273152
     25      H     1.14621054     1.15552304    -0.26566060
     26     Al     3.68685840    -1.00445102    -1.72278490
     27      F     2.69367665    -1.38728968    -2.96404760
     28      F     4.08374524    -2.15384049    -0.62895259
     29      F     4.57970477     0.36325106    -1.80349062
 
Total System Charge             0.00000
 
 *** GOStep2 ***

 Energy gradients wrt nuclear displacements
 ==========================================

     Atom      Cartesian (a.u./angstrom)
                 X         Y         Z
 ----------------------------------------
     1 H    -0.004992  0.002881  0.003052
     2 C    -0.006339  0.015550 -0.017980
     3 C    -0.011371 -0.023582  0.011134
     4 C     0.033019  0.031077 -0.031314
     5 O     0.071576 -0.041835 -0.045303
     6 H    -0.000318 -0.002281  0.003098
     7 H    -0.010756  0.000829  0.002305
     8 H    -0.005238 -0.005199 -0.000415
     9 C    -0.003045 -0.008043  0.012302
    10 H    -0.002920 -0.005824 -0.004535
    11 H    -0.006621 -0.006698 -0.002612
    12 C     0.009186 -0.002065 -0.007778
    13 C    -0.004732 -0.003223  0.005377
    14 C     0.000416  0.007803  0.000524
    15 C     0.009147  0.002385  0.002389
    16 H     0.003416  0.006346 -0.005196
    17 H     0.002046  0.002255  0.002100
    18 H     0.007980  0.009633  0.002264
    19 H     0.002291  0.000678  0.005226
    20 H     0.003484 -0.000371 -0.000690
    21 H     0.004192 -0.002819  0.001621
    22 H     0.008422  0.000533 -0.002104
    23 H     0.000277  0.002903 -0.001492
    24 H     0.000501  0.006397 -0.004625
    25 H    -0.006453 -0.033840  0.011417
    26 Al   -0.025393  0.007520  0.008649
    27 F     0.013888  0.021283  0.051561
    28 F    -0.033338  0.045774 -0.017644
    29 F    -0.048326 -0.028068  0.018667
 ----------------------------------------
 Mulliken charges used for AMS results%charges...

 dE(predicted):    -0.35140E-01, dE(actual):    -0.32902E-01, Trust radius:    0.400000, all in a.u.
 
----------------------------------------------------------------------
Geometry Convergence after Step   2       (Hartree/Angstrom,Angstrom)
----------------------------------------------------------------------
current energy                               -5.63939932 Hartree
energy change                      -0.03290232     0.00029000    F
constrained gradient max            0.07158051     0.00100000    F
constrained gradient rms            0.01769029     0.00066667    F
gradient max                        0.07158051
gradient rms                        0.01769029
cart. step max                      0.21178219     0.01000000    F
cart. step rms                      0.06742004     0.00666667    F
 
 
--------
Geometry
--------
Formula: C8H16AlF3O
Atoms
  Index Symbol   x (angstrom)   y (angstrom)   z (angstrom)
      1      H     0.93363122    -1.25328809     1.22623713
      2      C    -0.83517557     0.03160828     0.99719015
      3      C     0.39293120    -0.71731992     0.43729656
      4      C     1.38482275     0.16020746    -0.26564706
      5      O     2.41667020    -0.25355414    -0.76400001
      6      H    -1.22771418     0.67007331     0.19538603
      7      H     0.11276114    -1.47579462    -0.30115233
      8      H     0.07351614     0.36147400     2.96104207
      9      C    -0.37163047     0.94221140     2.15181216
     10      H     0.38134795     1.65875596     1.81052506
     11      H    -1.19650811     1.52255803     2.56409344
     12      C    -2.36886989    -1.82999455     0.14796371
     13      C    -2.02474994    -0.95276161     1.36921006
     14      C    -3.27536092    -0.12281178     1.71976452
     15      C    -1.66513793    -1.86888865     2.55826398
     16      H    -1.44934233    -1.29692182     3.46154994
     17      H    -3.21439411    -2.48439739     0.37774679
     18      H    -1.53899719    -2.47205902    -0.15022236
     19      H    -2.64718112    -1.21391515    -0.71310378
     20      H    -4.11864253    -0.78211011     1.94464133
     21      H    -3.56621137     0.51902561     0.88242839
     22      H    -3.11548689     0.51149071     2.59225643
     23      H    -2.50147085    -2.53628259     2.78421733
     24      H    -0.79737451    -2.49560632     2.33837584
     25      H     1.14213781     1.22903073    -0.34643907
     26     Al     3.74168874    -0.98914954    -1.74583335
     27      F     2.81474005    -1.52354099    -3.01854457
     28      F     4.29552743    -2.12702710    -0.66852621
     29      F     4.69767536     0.34483829    -2.00046560
 
Total System Charge             0.00000
 
 *** GOStep3 ***

 Energy gradients wrt nuclear displacements
 ==========================================

     Atom      Cartesian (a.u./angstrom)
                 X         Y         Z
 ----------------------------------------
     1 H    -0.002649  0.003081  0.001014
     2 C    -0.001857  0.010757 -0.009125
     3 C    -0.000905 -0.012838  0.002963
     4 C     0.020970  0.010110 -0.013601
     5 O     0.031244 -0.020156 -0.020104
     6 H    -0.000197 -0.001122  0.001693
     7 H    -0.003890  0.001838  0.001373
     8 H    -0.002099  0.000212 -0.002528
     9 C     0.006992  0.001780  0.005600
    10 H    -0.000859 -0.001156 -0.000555
    11 H     0.000049 -0.002674 -0.001298
    12 C     0.002447 -0.003417 -0.001355
    13 C    -0.007096 -0.003444  0.002025
    14 C    -0.002100  0.000827  0.000642
    15 C     0.000283 -0.002803  0.004087
    16 H     0.000216 -0.000163 -0.003154
    17 H     0.000961 -0.000158  0.000576
    18 H     0.002063  0.004809  0.000739
    19 H     0.000502  0.000781  0.001803
    20 H     0.000713  0.000010  0.000362
    21 H     0.001527 -0.001090  0.000123
    22 H     0.001742 -0.001034 -0.002528
    23 H     0.000202  0.000758 -0.000087
    24 H    -0.000624  0.002444 -0.001157
    25 H    -0.003499 -0.009412  0.004869
    26 Al   -0.020519  0.007663  0.008911
    27 F     0.004060  0.007868  0.015700
    28 F    -0.011917  0.013642 -0.004639
    29 F    -0.015758 -0.007112  0.007651
 ----------------------------------------
 Mulliken charges used for AMS results%charges...

 dE(predicted):    -0.21481E-01, dE(actual):    -0.23397E-01, Trust radius:    0.800000, all in a.u.
 
----------------------------------------------------------------------
Geometry Convergence after Step   3       (Hartree/Angstrom,Angstrom)
----------------------------------------------------------------------
current energy                               -5.66279669 Hartree
energy change                      -0.02339737     0.00029000    F
constrained gradient max            0.03124218     0.00100000    F
constrained gradient rms            0.00753228     0.00066667    F
gradient max                        0.03124218
gradient rms                        0.00753228
cart. step max                      0.21190462     0.01000000    F
cart. step rms                      0.06639575     0.00666667    F
 
 
--------
Geometry
--------
Formula: C8H16AlF3O
Atoms
  Index Symbol   x (angstrom)   y (angstrom)   z (angstrom)
      1      H     0.96518978    -1.21400408     1.18678880
      2      C    -0.85046581     0.02125639     0.98433411
      3      C     0.38864986    -0.69878678     0.40656200
      4      C     1.34385319     0.17829873    -0.33402323
      5      O     2.41170367    -0.22358455    -0.78487003
      6      H    -1.25783966     0.66320895     0.19043791
      7      H     0.13426201    -1.48204415    -0.31789504
      8      H     0.02221520     0.34597481     2.97111836
      9      C    -0.42088749     0.92627738     2.15701929
     10      H     0.32913538     1.65846364     1.83858628
     11      H    -1.25475878     1.49855154     2.56703489
     12      C    -2.47004915    -1.80176580     0.14009872
     13      C    -2.04180683    -0.96046768     1.36457999
     14      C    -3.25358253    -0.10545686     1.79452849
     15      C    -1.64476065    -1.90296419     2.52206721
     16      H    -1.37783534    -1.35465103     3.42936844
     17      H    -3.34520894    -2.40779938     0.39336439
     18      H    -1.69956530    -2.49893463    -0.19785141
     19      H    -2.74693760    -1.16668519    -0.70928669
     20      H    -4.10570128    -0.75102037     2.02888935
     21      H    -3.56646955     0.57532924     0.99500489
     22      H    -3.05096684     0.49366227     2.68539708
     23      H    -2.48519130    -2.55699834     2.77398211
     24      H    -0.80229134    -2.55085376     2.26012980
     25      H     1.08920511     1.24603335    -0.48790790
     26     Al     3.84198889    -0.98005628    -1.69309290
     27      F     3.02237702    -1.71869951    -2.95833875
     28      F     4.50743205    -2.01293784    -0.55145352
     29      F     4.79150833     0.33650452    -2.10850605
 
Total System Charge             0.00000
 
 *** GOStep4 ***

 Energy gradients wrt nuclear displacements
 ==========================================

     Atom      Cartesian (a.u./angstrom)
                 X         Y         Z
 ----------------------------------------
     1 H    -0.001263  0.001140  0.001714
     2 C     0.006268  0.007302 -0.006196
     3 C     0.002120 -0.007774 -0.001660
     4 C    -0.003286  0.000279 -0.006598
     5 O     0.022084 -0.011643 -0.008697
     6 H    -0.001805 -0.000650  0.000470
     7 H     0.002488  0.002164  0.000638
     8 H    -0.000983 -0.000883  0.000286
     9 C    -0.002584 -0.001588  0.005068
    10 H    -0.001179  0.000155  0.000307
    11 H    -0.001767  0.000134  0.001623
    12 C     0.000712 -0.002754 -0.001932
    13 C    -0.010225 -0.005451  0.001126
    14 C     0.002389  0.002498 -0.000187
    15 C     0.002493  0.001090  0.002284
    16 H     0.001184  0.000768  0.000352
    17 H     0.000633 -0.000406  0.000193
    18 H    -0.001267  0.000732 -0.000656
    19 H    -0.000587  0.000060 -0.000521
    20 H     0.000309 -0.000030  0.000625
    21 H    -0.000143  0.000163 -0.000174
    22 H     0.001527  0.002027  0.000317
    23 H    -0.000084  0.000551 -0.000381
    24 H     0.000512  0.000146  0.000208
    25 H     0.000687  0.002842  0.002137
    26 Al   -0.022217  0.011024  0.011947
    27 F     0.001428 -0.001149 -0.001424
    28 F     0.001349 -0.001482 -0.000129
    29 F     0.001207  0.000734 -0.000740
 ----------------------------------------
 Mulliken charges used for AMS results%charges...

 dE(predicted):    -0.42399E-02, dE(actual):    -0.39709E-02, Trust radius:    0.800000, all in a.u.
 
----------------------------------------------------------------------
Geometry Convergence after Step   4       (Hartree/Angstrom,Angstrom)
----------------------------------------------------------------------
current energy                               -5.66676759 Hartree
energy change                      -0.00397089     0.00029000    F
constrained gradient max            0.02222042     0.00100000    F
constrained gradient rms            0.00477750     0.00066667    F
gradient max                        0.02222042
gradient rms                        0.00477750
cart. step max                      0.17669854     0.01000000    F
cart. step rms                      0.05080194     0.00666667    F
 
 
--------
Geometry
--------
Formula: C8H16AlF3O
Atoms
  Index Symbol   x (angstrom)   y (angstrom)   z (angstrom)
      1      H     0.98374876    -1.18776496     1.20028827
      2      C    -0.84807434     0.03397761     1.01841796
      3      C     0.38269956    -0.68436842     0.42990742
      4      C     1.31274265     0.18533214    -0.34346777
      5      O     2.38488372    -0.21258290    -0.79037759
      6      H    -1.25042525     0.67559790     0.22092229
      7      H     0.12000857    -1.48412809    -0.27650630
      8      H     0.06815432     0.39017373     2.98287538
      9      C    -0.37898058     0.95622740     2.15991549
     10      H     0.38478142     1.65944388     1.80775882
     11      H    -1.18822652     1.56393926     2.56697197
     12      C    -2.45547325    -1.74843694     0.12178007
     13      C    -2.03907571    -0.95179388     1.37841337
     14      C    -3.27342279    -0.13493514     1.82169094
     15      C    -1.66439300    -1.94613281     2.49835445
     16      H    -1.41568339    -1.44248369     3.43665250
     17      H    -3.34957789    -2.34140848     0.33839904
     18      H    -1.69268089    -2.45539403    -0.21754245
     19      H    -2.70016192    -1.08577618    -0.71639839
     20      H    -4.12398749    -0.80388567     1.98684518
     21      H    -3.57276296     0.58979562     1.05601875
     22      H    -3.11250943     0.40819320     2.75572336
     23      H    -2.51018036    -2.60985740     2.70460071
     24      H    -0.81927628    -2.58604190     2.22374878
     25      H     1.01704603     1.22670768    -0.58753313
     26     Al     3.85021925    -0.99446944    -1.67608426
     27      F     3.02761753    -1.89539805    -2.83532295
     28      F     4.60417070    -1.87915125    -0.46190063
     29      F     4.73202162     0.31047115    -2.25808469
 
Total System Charge             0.00000
 
 *** GOStep5 ***

 Energy gradients wrt nuclear displacements
 ==========================================

     Atom      Cartesian (a.u./angstrom)
                 X         Y         Z
 ----------------------------------------
     1 H     0.000597  0.000609  0.000877
     2 C     0.003370  0.004292 -0.001006
     3 C    -0.001408 -0.002330 -0.004798
     4 C    -0.002873  0.002704  0.009584
     5 O     0.011804 -0.008992 -0.007842
     6 H    -0.000029 -0.000332 -0.000258
     7 H     0.001074 -0.000840  0.000645
     8 H     0.000394 -0.000052 -0.000035
     9 C     0.002142  0.001022 -0.000158
    10 H    -0.000190  0.000884  0.000700
    11 H     0.001392  0.000469  0.000127
    12 C     0.001134  0.000739  0.000992
    13 C    -0.005164 -0.002995  0.000844
    14 C    -0.000372 -0.001152 -0.000406
    15 C    -0.000629  0.000047  0.000523
    16 H    -0.000032 -0.000456  0.000403
    17 H    -0.000114 -0.000304  0.000369
    18 H     0.000099 -0.000239 -0.000621
    19 H    -0.000601  0.000143 -0.000494
    20 H    -0.000456 -0.000110  0.000415
    21 H    -0.000632  0.000050 -0.000360
    22 H    -0.001386 -0.000202 -0.000361
    23 H    -0.000114 -0.000192  0.000003
    24 H     0.000435 -0.000782  0.000018
    25 H     0.000399  0.002905 -0.003342
    26 Al   -0.017590  0.010079  0.009134
    27 F    -0.000307 -0.003951 -0.004576
    28 F     0.004414 -0.004181  0.002443
    29 F     0.004642  0.003166 -0.002819
 ----------------------------------------
 Mulliken charges used for AMS results%charges...

 dE(predicted):    -0.12369E-02, dE(actual):    -0.11411E-02, Trust radius:    0.800000, all in a.u.
 
----------------------------------------------------------------------
Geometry Convergence after Step   5       (Hartree/Angstrom,Angstrom)
----------------------------------------------------------------------
current energy                               -5.66790865 Hartree
energy change                      -0.00114107     0.00029000    F
constrained gradient max            0.01758843     0.00100000    F
constrained gradient rms            0.00362605     0.00066667    F
gradient max                        0.01758843
gradient rms                        0.00362605
cart. step max                      0.18084504     0.01000000    F
cart. step rms                      0.05152127     0.00666667    F
 
 
--------
Geometry
--------
Formula: C8H16AlF3O
Atoms
  Index Symbol   x (angstrom)   y (angstrom)   z (angstrom)
      1      H     0.98887365    -1.20323501     1.15314452
      2      C    -0.85216052     0.01178308     1.00211111
      3      C     0.36682115    -0.70723728     0.39507771
      4      C     1.27047917     0.15798577    -0.41216026
      5      O     2.37104802    -0.20683632    -0.80987365
      6      H    -1.26093796     0.65413730     0.20829875
      7      H     0.08849151    -1.51426960    -0.29790652
      8      H     0.09595592     0.38732669     2.94806982
      9      C    -0.35718021     0.94375567     2.12184568
     10      H     0.41046586     1.63018363     1.74536624
     11      H    -1.15477434     1.56724637     2.52814825
     12      C    -2.52004213    -1.71868363     0.12525698
     13      C    -2.04434614    -0.95654350     1.38198044
     14      C    -3.24415670    -0.11977355     1.87843687
     15      C    -1.66730667    -1.98318621     2.47023513
     16      H    -1.38418346    -1.50549417     3.41217752
     17      H    -3.43356871    -2.27702632     0.35222449
     18      H    -1.79393665    -2.45229328    -0.23744606
     19      H    -2.75330063    -1.03536845    -0.69902407
     20      H    -4.10994091    -0.76913911     2.04138227
     21      H    -3.53832443     0.63789679     1.14356426
     22      H    -3.04496050     0.38695049     2.82556348
     23      H    -2.52359957    -2.63082381     2.68423185
     24      H    -0.84558339    -2.63705373     2.16117405
     25      H     0.95190083     1.18752690    -0.67031937
     26     Al     3.91247830    -0.96204592    -1.61360672
     27      F     3.15176629    -1.98676005    -2.70831487
     28      F     4.67706022    -1.69830621    -0.31266445
     29      F     4.71616408     0.35513384    -2.27090687
 
Total System Charge             0.00000
 
 *** GOStep6 ***

 Energy gradients wrt nuclear displacements
 ==========================================

     Atom      Cartesian (a.u./angstrom)
                 X         Y         Z
 ----------------------------------------
     1 H     0.000527  0.000023  0.001188
     2 C     0.001892  0.001405  0.001629
     3 C     0.000154  0.003058 -0.000922
     4 C    -0.007218 -0.002398 -0.004667
     5 O     0.007972 -0.005239 -0.001027
     6 H     0.000690  0.000082 -0.000063
     7 H     0.002072 -0.000066  0.000634
     8 H     0.000521  0.000257 -0.000380
     9 C     0.001962  0.000382 -0.002167
    10 H     0.000137  0.000678  0.000141
    11 H     0.000754  0.000259 -0.000235
    12 C     0.000182  0.000929  0.001725
    13 C    -0.001319 -0.002155  0.000456
    14 C     0.000425 -0.001120 -0.000988
    15 C    -0.001830 -0.000368 -0.000122
    16 H    -0.000590 -0.000593  0.000022
    17 H    -0.000293 -0.000181  0.000138
    18 H    -0.000571 -0.000575 -0.000165
    19 H    -0.000318  0.000097 -0.000064
    20 H    -0.000263 -0.000176  0.000183
    21 H    -0.000336 -0.000096 -0.000222
    22 H    -0.000991 -0.000220 -0.000144
    23 H    -0.000004 -0.000403  0.000140
    24 H    -0.000088 -0.000617  0.000026
    25 H     0.003070  0.002702  0.001787
    26 Al   -0.011350  0.006978  0.005349
    27 F    -0.001418 -0.003079 -0.002851
    28 F     0.003118 -0.002729  0.002773
    29 F     0.003113  0.003165 -0.002175
 ----------------------------------------
 Mulliken charges used for AMS results%charges...

 dE(predicted):    -0.45163E-03, dE(actual):    -0.51507E-03, Trust radius:    0.800000, all in a.u.
 
----------------------------------------------------------------------
Geometry Convergence after Step   6       (Hartree/Angstrom,Angstrom)
----------------------------------------------------------------------
current energy                               -5.66842372 Hartree
energy change                      -0.00051507     0.00029000    F
constrained gradient max            0.01134587     0.00100000    F
constrained gradient rms            0.00245014     0.00066667    F
gradient max                        0.01134587
gradient rms                        0.00245014
cart. step max                      0.20866407     0.01000000    F
cart. step rms                      0.05096133     0.00666667    F
 
 
--------
Geometry
--------
Formula: C8H16AlF3O
Atoms
  Index Symbol   x (angstrom)   y (angstrom)   z (angstrom)
      1      H     0.98999047    -1.21672499     1.12657843
      2      C    -0.85474703    -0.00112495     0.99244760
      3      C     0.35762079    -0.72227289     0.37715176
      4      C     1.24682366     0.13867744    -0.45054848
      5      O     2.36314752    -0.20158406    -0.82011141
      6      H    -1.26458507     0.64611313     0.20288209
      7      H     0.06526014    -1.53163110    -0.30861492
      8      H     0.08389397     0.37224930     2.94389001
      9      C    -0.35977628     0.92830250     2.11233529
     10      H     0.41643399     1.60530296     1.73641576
     11      H    -1.15663877     1.55847713     2.50998132
     12      C    -2.56500963    -1.68073368     0.11418865
     13      C    -2.04663670    -0.95687972     1.37713678
     14      C    -3.21271273    -0.10625917     1.92749265
     15      C    -1.65880238    -2.01251863     2.43211823
     16      H    -1.34445033    -1.55870337     3.37588523
     17      H    -3.49168945    -2.21588255     0.34279313
     18      H    -1.86511541    -2.42809755    -0.27115573
     19      H    -2.78761837    -0.97523622    -0.69374194
     20      H    -4.09290340    -0.73653319     2.08634611
     21      H    -3.49933171     0.68561916     1.22682283
     22      H    -2.97627948     0.35971321     2.88705123
     23      H    -2.51920797    -2.65162960     2.65470478
     24      H    -0.85533389    -2.67074072     2.08795130
     25      H     0.87707379     1.12797000    -0.78136924
     26     Al     3.95802039    -0.94572173    -1.56287822
     27      F     3.24193053    -2.11222348    -2.53517681
     28      F     4.75400042    -1.48964214    -0.19170420
     29      F     4.66984503     0.34756527    -2.35280562
 
Total System Charge             0.00000
 
 *** GOStep7 ***

 Energy gradients wrt nuclear displacements
 ==========================================

     Atom      Cartesian (a.u./angstrom)
                 X         Y         Z
 ----------------------------------------
     1 H     0.001032  0.000146  0.000494
     2 C     0.000922 -0.001051  0.002217
     3 C    -0.001875  0.003603 -0.003390
     4 C    -0.001009  0.001377  0.000904
     5 O     0.002043 -0.004586 -0.001008
     6 H     0.000399  0.000216  0.000138
     7 H     0.001660 -0.000842  0.001332
     8 H     0.000435  0.000352 -0.000348
     9 C    -0.000492 -0.000671 -0.001959
    10 H     0.000043  0.000168 -0.000192
    11 H    -0.000344  0.000079 -0.000017
    12 C     0.000081  0.000725  0.000748
    13 C     0.000973 -0.001455 -0.000024
    14 C     0.001407  0.000368 -0.000841
    15 C    -0.001158  0.000091 -0.000484
    16 H    -0.000683 -0.000378 -0.000120
    17 H    -0.000230  0.000081 -0.000092
    18 H    -0.000824 -0.000575  0.000192
    19 H     0.000018 -0.000086  0.000167
    20 H     0.000081 -0.000083  0.000015
    21 H     0.000017 -0.000156 -0.000011
    22 H    -0.000135  0.000162  0.000239
    23 H     0.000068 -0.000284  0.000036
    24 H    -0.000279 -0.000197  0.000058
    25 H     0.001800 -0.000470  0.000310
    26 Al   -0.004993  0.004136  0.001578
    27 F    -0.001797 -0.001722 -0.000942
    28 F     0.001477 -0.001014  0.002071
    29 F     0.001363  0.002066 -0.001071
 ----------------------------------------
 Mulliken charges used for AMS results%charges...

 dE(predicted):    -0.52946E-03, dE(actual):    -0.49770E-03, Trust radius:    0.800000, all in a.u.
 
----------------------------------------------------------------------
Geometry Convergence after Step   7       (Hartree/Angstrom,Angstrom)
----------------------------------------------------------------------
current energy                               -5.66892142 Hartree
energy change                      -0.00049770     0.00029000    F
constrained gradient max            0.00499661     0.00100000    F
constrained gradient rms            0.00134496     0.00066667    F
gradient max                        0.00499661
gradient rms                        0.00134496
cart. step max                      0.20851180     0.01000000    F
cart. step rms                      0.05252287     0.00666667    F
 
 
--------
Geometry
--------
Formula: C8H16AlF3O
Atoms
  Index Symbol   x (angstrom)   y (angstrom)   z (angstrom)
      1      H     0.96630163    -1.24666552     1.07441844
      2      C    -0.86356988    -0.00137116     0.97976301
      3      C     0.32685430    -0.73883196     0.34146692
      4      C     1.20606972     0.10850601    -0.51173332
      5      O     2.34370669    -0.20447402    -0.83702932
      6      H    -1.27755686     0.65711235     0.20135637
      7      H     0.00090173    -1.53948387    -0.34090083
      8      H     0.08835915     0.34266242     2.93120623
      9      C    -0.34503700     0.91140318     2.10270064
     10      H     0.44565993     1.57124040     1.72639982
     11      H    -1.12712797     1.55681134     2.50480914
     12      C    -2.60558451    -1.63865063     0.10604404
     13      C    -2.05383354    -0.94737629     1.37387922
     14      C    -3.19746091    -0.10335246     1.98052583
     15      C    -1.63740244    -2.02653382     2.39312684
     16      H    -1.28884418    -1.59257308     3.33436942
     17      H    -3.53216222    -2.17155519     0.33955804
     18      H    -1.91745454    -2.38157746    -0.30827777
     19      H    -2.83600587    -0.91356210    -0.68195866
     20      H    -4.08224988    -0.72767924     2.13635631
     21      H    -3.48861409     0.71790991     1.31658551
     22      H    -2.93130103     0.32304088     2.95053981
     23      H    -2.49312501    -2.66612327     2.63158942
     24      H    -0.84856075    -2.67994367     2.00912805
     25      H     0.80252457     1.06419725    -0.89716012
     26     Al     4.00343479    -0.92995882    -1.49405376
     27      F     3.36703007    -2.22370329    -2.35039187
     28      F     4.80032413    -1.28113035    -0.06469253
     29      F     4.64792610     0.31751282    -2.40155829
 
Total System Charge             0.00000
 
 *** GOStep8 ***

 Energy gradients wrt nuclear displacements
 ==========================================

     Atom      Cartesian (a.u./angstrom)
                 X         Y         Z
 ----------------------------------------
     1 H     0.000946 -0.000324  0.000465
     2 C     0.001061 -0.002719  0.002174
     3 C    -0.004100  0.003053 -0.001799
     4 C    -0.000862  0.001934 -0.001771
     5 O    -0.000268 -0.003642  0.001010
     6 H    -0.000155  0.000053 -0.000126
     7 H     0.001344 -0.001529  0.001278
     8 H     0.000377  0.000220  0.000020
     9 C    -0.002282 -0.000820 -0.000905
    10 H     0.000180 -0.000096 -0.000419
    11 H    -0.000125 -0.000001  0.000082
    12 C     0.000516  0.000716 -0.000552
    13 C     0.001809  0.000517 -0.000626
    14 C     0.000464  0.000673  0.000330
    15 C     0.000452  0.001081 -0.000865
    16 H    -0.000347 -0.000087  0.000032
    17 H    -0.000190  0.000303 -0.000182
    18 H    -0.000086 -0.000336  0.000297
    19 H     0.000309 -0.000265  0.000104
    20 H     0.000058  0.000115 -0.000027
    21 H     0.000161 -0.000142  0.000125
    22 H     0.000014 -0.000067  0.000236
    23 H     0.000014 -0.000042 -0.000158
    24 H     0.000053  0.000199 -0.000037
    25 H     0.001275 -0.000704  0.001519
    26 Al   -0.000298  0.002132 -0.000651
    27 F    -0.001463 -0.000745 -0.000081
    28 F     0.000583 -0.000130  0.000761
    29 F     0.000558  0.000652 -0.000237
 ----------------------------------------
 Mulliken charges used for AMS results%charges...

 dE(predicted):    -0.36027E-03, dE(actual):    -0.34472E-03, Trust radius:    0.800000, all in a.u.
 
----------------------------------------------------------------------
Geometry Convergence after Step   8       (Hartree/Angstrom,Angstrom)
----------------------------------------------------------------------
current energy                               -5.66926614 Hartree
energy change                      -0.00034472     0.00029000    F
constrained gradient max            0.00409870     0.00100000    F
constrained gradient rms            0.00107995     0.00066667    F
gradient max                        0.00409870
gradient rms                        0.00107995
cart. step max                      0.20707024     0.01000000    F
cart. step rms                      0.04908035     0.00666667    F
 
 
--------
Geometry
--------
Formula: C8H16AlF3O
Atoms
  Index Symbol   x (angstrom)   y (angstrom)   z (angstrom)
      1      H     0.94594638    -1.28369266     1.01917668
      2      C    -0.86801403    -0.01031956     0.96252537
      3      C     0.30278145    -0.76061255     0.30181409
      4      C     1.17432214     0.07996952    -0.56653578
      5      O     2.33085745    -0.20109805    -0.85025946
      6      H    -1.28407541     0.66061925     0.19579434
      7      H    -0.05217483    -1.54782203    -0.38286842
      8      H     0.10796614     0.30289941     2.90781137
      9      C    -0.31794339     0.88520290     2.08479627
     10      H     0.48555175     1.52691315     1.70441493
     11      H    -1.08177536     1.54677439     2.49546117
     12      C    -2.65590827    -1.60777601     0.10922336
     13      C    -2.06170366    -0.94210807     1.37202254
     14      C    -3.17783079    -0.09390829     2.02305496
     15      C    -1.63235112    -2.04146915     2.36432175
     16      H    -1.24653615    -1.62437404     3.29876438
     17      H    -3.58248025    -2.13344532     0.35825444
     18      H    -1.98659600    -2.35166434    -0.33338475
     19      H    -2.89686547    -0.86805889    -0.66186119
     20      H    -4.06926938    -0.70706904     2.18470125
     21      H    -3.46967843     0.74765775     1.38530619
     22      H    -2.88116102     0.30489093     2.99589107
     23      H    -2.49068796    -2.66976563     2.62254782
     24      H    -0.86683265    -2.70249488     1.94805129
     25      H     0.73952598     0.99826133    -1.00605547
     26     Al     4.04804198    -0.89499331    -1.42566162
     27      F     3.49519910    -2.28705445    -2.17596109
     28      F     4.82810759    -1.07406010     0.04212998
     29      F     4.63678632     0.30444809    -2.42740887
 
Total System Charge             0.00000
 
 *** GOStep9 ***

 Energy gradients wrt nuclear displacements
 ==========================================

     Atom      Cartesian (a.u./angstrom)
                 X         Y         Z
 ----------------------------------------
     1 H     0.000877 -0.000506  0.000256
     2 C     0.000366 -0.003871  0.001463
     3 C    -0.004696  0.003267 -0.000547
     4 C     0.000275  0.002752 -0.002230
     5 O    -0.002396 -0.003032  0.001999
     6 H    -0.000142  0.000226 -0.000266
     7 H     0.001226 -0.001777  0.001328
     8 H     0.000285  0.000037  0.000269
     9 C    -0.002487 -0.001067 -0.000638
    10 H     0.000310 -0.000200 -0.000481
    11 H    -0.000076 -0.000131 -0.000017
    12 C    -0.000176  0.000382 -0.000634
    13 C     0.002884  0.002246 -0.000891
    14 C    -0.000129  0.000216  0.000669
    15 C     0.000761  0.001094 -0.001118
    16 H    -0.000132  0.000171  0.000082
    17 H    -0.000227  0.000340 -0.000267
    18 H     0.000070 -0.000242  0.000412
    19 H     0.000433 -0.000298  0.000057
    20 H    -0.000019  0.000161 -0.000093
    21 H     0.000220 -0.000090  0.000145
    22 H     0.000229 -0.000248  0.000159
    23 H    -0.000004 -0.000057 -0.000148
    24 H     0.000088  0.000364  0.000027
    25 H     0.000700 -0.000836  0.001544
    26 Al    0.003498  0.000953 -0.001751
    27 F    -0.001247  0.000184  0.000413
    28 F    -0.000324  0.000322 -0.000362
    29 F    -0.000165 -0.000362  0.000619
 ----------------------------------------
 Mulliken charges used for AMS results%charges...

 dE(predicted):    -0.32351E-03, dE(actual):    -0.21712E-03, Trust radius:    0.800000, all in a.u.
 
----------------------------------------------------------------------
Geometry Convergence after Step   9       (Hartree/Angstrom,Angstrom)
----------------------------------------------------------------------
current energy                               -5.66948326 Hartree
energy change                      -0.00021712     0.00029000    T
constrained gradient max            0.00469633     0.00100000    F
constrained gradient rms            0.00126711     0.00066667    F
gradient max                        0.00469633
gradient rms                        0.00126711
cart. step max                      0.21028954     0.01000000    F
cart. step rms                      0.05018281     0.00666667    F
 
 
--------
Geometry
--------
Formula: C8H16AlF3O
Atoms
  Index Symbol   x (angstrom)   y (angstrom)   z (angstrom)
      1      H     0.91548363    -1.33660931     0.94731639
      2      C    -0.87033342    -0.01974723     0.94469987
      3      C     0.27354039    -0.78628720     0.25160601
      4      C     1.14097988     0.04951294    -0.62580997
      5      O     2.31566029    -0.19491455    -0.86400027
      6      H    -1.29011295     0.66734753     0.19465323
      7      H    -0.12060864    -1.54563291    -0.44404075
      8      H     0.14135940     0.25027298     2.87873487
      9      C    -0.28009290     0.85162555     2.06739145
     10      H     0.53394108     1.47668514     1.68238483
     11      H    -1.02173789     1.52746105     2.49528048
     12      C    -2.70176054    -1.58229796     0.11740610
     13      C    -2.06879397    -0.93783655     1.37267016
     14      C    -3.15680363    -0.08002824     2.05817529
     15      C    -1.63262225    -2.05429368     2.34414226
     16      H    -1.20799450    -1.65203308     3.26825627
     17      H    -3.62221554    -2.10952391     0.38472839
     18      H    -2.04698984    -2.32017140    -0.35605431
     19      H    -2.96186106    -0.82956187    -0.63484384
     20      H    -4.05391610    -0.68126168     2.23232125
     21      H    -3.44924111     0.77398276     1.43728233
     22      H    -2.83136600     0.30241877     3.02833225
     23      H    -2.49583542    -2.66558973     2.62566739
     24      H    -0.89505538    -2.72861586     1.89988598
     25      H     0.67931086     0.92726322    -1.11964793
     26     Al     4.08632421    -0.85030542    -1.35102079
     27      F     3.62895048    -2.32530203    -1.99616923
     28      F     4.83247102    -0.86377056     0.14329405
     29      F     4.63252200     0.29306360    -2.43657518
 
Total System Charge             0.00000
 
 *** GOStep10 ***

 Energy gradients wrt nuclear displacements
 ==========================================

     Atom      Cartesian (a.u./angstrom)
                 X         Y         Z
 ----------------------------------------
     1 H     0.000524 -0.000488  0.000046
     2 C    -0.000407 -0.003516 -0.000064
     3 C    -0.004481  0.002074  0.000988
     4 C     0.001621  0.003418 -0.002788
     5 O    -0.004286 -0.002433  0.003013
     6 H     0.000004  0.000400 -0.000322
     7 H     0.000959 -0.001723  0.000834
     8 H     0.000060 -0.000121  0.000382
     9 C    -0.002066 -0.000630  0.000150
    10 H     0.000337 -0.000181 -0.000292
    11 H     0.000014 -0.000098  0.000008
    12 C    -0.000445 -0.000200 -0.000796
    13 C     0.002871  0.002807 -0.000459
    14 C    -0.000441  0.000065  0.000849
    15 C     0.000759  0.000378 -0.000880
    16 H     0.000116  0.000319  0.000111
    17 H    -0.000104  0.000326 -0.000241
    18 H     0.000405 -0.000033  0.000250
    19 H     0.000471 -0.000213 -0.000080
    20 H     0.000044  0.000141 -0.000200
    21 H     0.000171  0.000061  0.000140
    22 H     0.000368 -0.000209  0.000058
    23 H     0.000055 -0.000099 -0.000050
    24 H     0.000090  0.000354  0.000161
    25 H    -0.000017 -0.000496  0.001064
    26 Al    0.005606 -0.000128 -0.002342
    27 F    -0.000677  0.001025  0.000553
    28 F    -0.000960  0.000386 -0.001461
    29 F    -0.000591 -0.001186  0.001368
 ----------------------------------------
 Mulliken charges used for AMS results%charges...

 dE(predicted):    -0.22772E-03, dE(actual):    -0.26270E-03, Trust radius:    0.800000, all in a.u.
 
----------------------------------------------------------------------
Geometry Convergence after Step  10       (Hartree/Angstrom,Angstrom)
----------------------------------------------------------------------
current energy                               -5.66974595 Hartree
energy change                      -0.00026270     0.00029000    T
constrained gradient max            0.00560699     0.00100000    F
constrained gradient rms            0.00140458     0.00066667    F
gradient max                        0.00560699
gradient rms                        0.00140458
cart. step max                      0.20956354     0.01000000    F
cart. step rms                      0.05127117     0.00666667    F
 
 
--------
Geometry
--------
Formula: C8H16AlF3O
Atoms
  Index Symbol   x (angstrom)   y (angstrom)   z (angstrom)
      1      H     0.88327687    -1.39499474     0.87369255
      2      C    -0.87072255    -0.03453351     0.92382669
      3      C     0.24478399    -0.81779724     0.19883272
      4      C     1.11019901     0.01429565    -0.68362001
      5      O     2.30111226    -0.18888726    -0.87523587
      6      H    -1.29424994     0.66718107     0.18992535
      7      H    -0.18763642    -1.54710971    -0.50693153
      8      H     0.18473086     0.19684593     2.83988952
      9      C    -0.23683713     0.81457882     2.04125703
     10      H     0.58415422     1.42327696     1.64573465
     11      H    -0.95451167     1.50392182     2.48823772
     12      C    -2.75221691    -1.55776904     0.13000879
     13      C    -2.07576933    -0.93535848     1.37364973
     14      C    -3.13130695    -0.06378509     2.09203073
     15      C    -1.63647524    -2.06821683     2.32554682
     16      H    -1.17216183    -1.68203440     3.23733651
     17      H    -3.66721269    -2.08292815     0.41907432
     18      H    -2.11767304    -2.29269921    -0.37456695
     19      H    -3.03062086    -0.79230091    -0.60278109
     20      H    -4.03460020    -0.65043125     2.28307079
     21      H    -3.42313282     0.80051615     1.48514418
     22      H    -2.77551167     0.30500505     3.05675728
     23      H    -2.50542136    -2.65912269     2.63167049
     24      H    -0.93067225    -2.75805916     1.85430185
     25      H     0.62761974     0.85109288    -1.22759601
     26     Al     4.12038901    -0.79503508    -1.27092967
     27      F     3.76026178    -2.33569170    -1.81294347
     28      F     4.81860189    -0.65420702     0.23888487
     29      F     4.63480533     0.29009753    -2.42820143
 
Total System Charge             0.00000
 
 *** GOStep11 ***

 Energy gradients wrt nuclear displacements
 ==========================================

     Atom      Cartesian (a.u./angstrom)
                 X         Y         Z
 ----------------------------------------
     1 H     0.000181 -0.000431 -0.000282
     2 C    -0.000977 -0.003480 -0.001242
     3 C    -0.003656  0.001830  0.002881
     4 C     0.002076  0.003355 -0.003239
     5 O    -0.005310 -0.001795  0.003528
     6 H     0.000040  0.000443 -0.000195
     7 H     0.000734 -0.001466  0.000155
     8 H    -0.000129 -0.000188  0.000383
     9 C    -0.001241 -0.000335  0.000588
    10 H     0.000330 -0.000170 -0.000176
    11 H     0.000034 -0.000054 -0.000015
    12 C    -0.000778 -0.000545 -0.000749
    13 C     0.002471  0.003038 -0.000215
    14 C    -0.000740 -0.000184  0.000796
    15 C     0.000722 -0.000122 -0.000495
    16 H     0.000258  0.000330  0.000120
    17 H    -0.000010  0.000269 -0.000192
    18 H     0.000473  0.000066  0.000130
    19 H     0.000386 -0.000108 -0.000171
    20 H     0.000026  0.000148 -0.000201
    21 H     0.000126  0.000144  0.000126
    22 H     0.000389 -0.000177 -0.000030
    23 H     0.000054 -0.000041 -0.000021
    24 H     0.000088  0.000290  0.000191
    25 H    -0.000479 -0.000250  0.000601
    26 Al    0.007507 -0.000846 -0.002543
    27 F    -0.000365  0.001652  0.000512
    28 F    -0.001319  0.000197 -0.002081
    29 F    -0.000890 -0.001569  0.001835
 ----------------------------------------
 Mulliken charges used for AMS results%charges...

 dE(predicted):    -0.46082E-03, dE(actual):    -0.21309E-03, Trust radius:    0.800000, all in a.u.
 
----------------------------------------------------------------------
Geometry Convergence after Step  11       (Hartree/Angstrom,Angstrom)
----------------------------------------------------------------------
current energy                               -5.66995904 Hartree
energy change                      -0.00021309     0.00029000    T
constrained gradient max            0.00750635     0.00100000    F
constrained gradient rms            0.00157279     0.00066667    F
gradient max                        0.00750635
gradient rms                        0.00157279
cart. step max                      0.21132988     0.01000000    F
cart. step rms                      0.05290681     0.00666667    F
 
 
--------
Geometry
--------
Formula: C8H16AlF3O
Atoms
  Index Symbol   x (angstrom)   y (angstrom)   z (angstrom)
      1      H     0.84646145    -1.45790740     0.79554088
      2      C    -0.86907770    -0.05101647     0.90093302
      3      C     0.21388822    -0.85268400     0.14176385
      4      C     1.07932698    -0.02302175    -0.74144073
      5      O     2.28360193    -0.18194804    -0.88435587
      6      H    -1.29687405     0.66500426     0.18395979
      7      H    -0.25854041    -1.54786572    -0.57309443
      8      H     0.23737871     0.14114732     2.79280961
      9      C    -0.18902801     0.77500785     2.00983906
     10      H     0.63481256     1.36989630     1.60043179
     11      H    -0.88152335     1.47498356     2.47963112
     12      C    -2.80126190    -1.53320182     0.14484966
     13      C    -2.08050963    -0.93401968     1.37453805
     14      C    -3.10055823    -0.04668151     2.12415842
     15      C    -1.64060267    -2.08314539     2.30716102
     16      H    -1.13696331    -1.71448381     3.20512687
     17      H    -3.70975108    -2.05662219     0.45669494
     18      H    -2.18924293    -2.26457869    -0.39163362
     19      H    -3.09843662    -0.75458109    -0.56654780
     20      H    -4.00925677    -0.61782939     2.33552356
     21      H    -3.39183783     0.82583491     1.52882564
     22      H    -2.71364074     0.31092725     3.08104257
     23      H    -2.51480518    -2.65229190     2.63833450
     24      H    -0.96895990    -2.78873457     1.80985945
     25      H     0.58194199     0.77266293    -1.33282919
     26     Al     4.14370506    -0.73371539    -1.18325246
     27      F     3.88061838    -2.32700302    -1.61531375
     28      F     4.78310040    -0.44287714     0.33077378
     29      F     4.63923673     0.28459494    -2.40726314
 
Total System Charge             0.00000
 
 *** GOStep12 ***

 Energy gradients wrt nuclear displacements
 ==========================================

     Atom      Cartesian (a.u./angstrom)
                 X         Y         Z
 ----------------------------------------
     1 H    -0.000177 -0.000333 -0.000539
     2 C    -0.001226 -0.002900 -0.002304
     3 C    -0.002364  0.001461  0.004613
     4 C     0.002450  0.003006 -0.003741
     5 O    -0.006612 -0.001229  0.004125
     6 H     0.000060  0.000401 -0.000031
     7 H     0.000436 -0.001065 -0.000740
     8 H    -0.000284 -0.000169  0.000301
     9 C    -0.000317  0.000025  0.000967
    10 H     0.000279 -0.000145 -0.000081
    11 H     0.000048  0.000026  0.000001
    12 C    -0.000865 -0.000743 -0.000618
    13 C     0.001829  0.002598  0.000033
    14 C    -0.000772 -0.000239  0.000595
    15 C     0.000565 -0.000605 -0.000049
    16 H     0.000303  0.000273  0.000075
    17 H     0.000094  0.000176 -0.000118
    18 H     0.000483  0.000159 -0.000000
    19 H     0.000260  0.000017 -0.000181
    20 H     0.000053  0.000127 -0.000179
    21 H     0.000084  0.000189  0.000085
    22 H     0.000346 -0.000079 -0.000082
    23 H     0.000052  0.000016  0.000015
    24 H     0.000087  0.000207  0.000151
    25 H    -0.000800 -0.000145  0.000078
    26 Al    0.008433 -0.001406 -0.002369
    27 F    -0.000089  0.002082  0.000355
    28 F    -0.001380 -0.000089 -0.002367
    29 F    -0.000975 -0.001615  0.002009
 ----------------------------------------
 Mulliken charges used for AMS results%charges...

 dE(predicted):    -0.29095E-03, dE(actual):    -0.17758E-03, Trust radius:    0.800000, all in a.u.
 
----------------------------------------------------------------------
Geometry Convergence after Step  12       (Hartree/Angstrom,Angstrom)
----------------------------------------------------------------------
current energy                               -5.67013662 Hartree
energy change                      -0.00017758     0.00029000    T
constrained gradient max            0.00843242     0.00100000    F
constrained gradient rms            0.00170409     0.00066667    F
gradient max                        0.00843242
gradient rms                        0.00170409
cart. step max                      0.20844519     0.01000000    F
cart. step rms                      0.05317669     0.00666667    F
 
 
--------
Geometry
--------
Formula: C8H16AlF3O
Atoms
  Index Symbol   x (angstrom)   y (angstrom)   z (angstrom)
      1      H     0.80547865    -1.52245666     0.71200606
      2      C    -0.86547758    -0.06851599     0.87557256
      3      C     0.18170117    -0.88816075     0.07912468
      4      C     1.05128745    -0.05752321    -0.79675072
      5      O     2.26570295    -0.17174637    -0.89041045
      6      H    -1.29837632     0.66197375     0.17705584
      7      H    -0.33101426    -1.54463793    -0.64396501
      8      H     0.30008322     0.08133469     2.73561384
      9      C    -0.13719354     0.73231184     1.97327298
     10      H     0.68410920     1.31844847     1.54763935
     11      H    -0.80386366     1.43785918     2.47136540
     12      C    -2.84813715    -1.51086033     0.16221440
     13      C    -2.08307645    -0.93376490     1.37476378
     14      C    -3.06660724    -0.03000987     2.15272110
     15      C    -1.64401872    -2.09709687     2.29024769
     16      H    -1.10240536    -1.74560087     3.17270336
     17      H    -3.74842846    -2.03339197     0.49860063
     18      H    -2.26049780    -2.23823441    -0.40584227
     19      H    -3.16535806    -0.72004218    -0.52682408
     20      H    -3.97857642    -0.58640740     2.38835204
     21      H    -3.35948392     0.84746144     1.56553260
     22      H    -2.64873513     0.32068279     3.09902100
     23      H    -2.52241357    -2.64366749     2.64719178
     24      H    -1.00783858    -2.81851909     1.76931218
     25      H     0.54715375     0.70244325    -1.42869763
     26     Al     4.15414083    -0.66992040    -1.08982430
     27      F     3.98053929    -2.30180614    -1.40686857
     28      F     4.72866864    -0.23843415     0.41703942
     29      F     4.64583917     0.27413196    -2.37410110
 
Total System Charge             0.00000
 
 *** GOStep13 ***

 Energy gradients wrt nuclear displacements
 ==========================================

     Atom      Cartesian (a.u./angstrom)
                 X         Y         Z
 ----------------------------------------
     1 H    -0.000430 -0.000029 -0.000603
     2 C    -0.001022 -0.001915 -0.003106
     3 C    -0.000849  0.000951  0.005299
     4 C     0.002156  0.002393 -0.003550
     5 O    -0.006540 -0.000908  0.004276
     6 H     0.000051  0.000229  0.000180
     7 H     0.000031 -0.000422 -0.001481
     8 H    -0.000413 -0.000134  0.000174
     9 C     0.000829  0.000381  0.001159
    10 H     0.000157 -0.000126  0.000029
    11 H     0.000046  0.000093 -0.000011
    12 C    -0.000785 -0.000764 -0.000263
    13 C     0.000693  0.001754  0.000239
    14 C    -0.000674 -0.000409  0.000255
    15 C     0.000210 -0.000902  0.000395
    16 H     0.000284  0.000161 -0.000004
    17 H     0.000172  0.000019 -0.000004
    18 H     0.000358  0.000243 -0.000116
    19 H     0.000063  0.000131 -0.000115
    20 H     0.000041  0.000066 -0.000101
    21 H     0.000030  0.000150  0.000006
    22 H     0.000229  0.000031 -0.000130
    23 H     0.000029  0.000082  0.000034
    24 H     0.000053  0.000096  0.000049
    25 H    -0.000997 -0.000139 -0.000429
    26 Al    0.008137 -0.001540 -0.001933
    27 F     0.000147  0.002197  0.000158
    28 F    -0.001121 -0.000374 -0.002184
    29 F    -0.000886 -0.001318  0.001776
 ----------------------------------------
 Mulliken charges used for AMS results%charges...

 dE(predicted):    -0.17466E-03, dE(actual):    -0.15469E-03, Trust radius:    0.800000, all in a.u.
 
----------------------------------------------------------------------
Geometry Convergence after Step  13       (Hartree/Angstrom,Angstrom)
----------------------------------------------------------------------
current energy                               -5.67029131 Hartree
energy change                      -0.00015469     0.00029000    T
constrained gradient max            0.00813486     0.00100000    F
constrained gradient rms            0.00163195     0.00066667    F
gradient max                        0.00813486
gradient rms                        0.00163195
cart. step max                      0.21084447     0.01000000    F
cart. step rms                      0.04850118     0.00666667    F
 
 
--------
Geometry
--------
Formula: C8H16AlF3O
Atoms
  Index Symbol   x (angstrom)   y (angstrom)   z (angstrom)
      1      H     0.76506984    -1.57716962     0.62814848
      2      C    -0.86087896    -0.08264690     0.85113138
      3      C     0.15032203    -0.91590180     0.01508735
      4      C     1.02680115    -0.07955603    -0.84532066
      5      O     2.24722255    -0.15589478    -0.89346184
      6      H    -1.30126498     0.66113852     0.17214118
      7      H    -0.39880572    -1.53394327    -0.71329579
      8      H     0.36911953     0.02603874     2.67179045
      9      C    -0.08825770     0.69353838     1.93629125
     10      H     0.72213711     1.28176940     1.49415377
     11      H    -0.73261852     1.39484022     2.46858968
     12      C    -2.88445148    -1.49325190     0.17836698
     13      C    -2.08161940    -0.93528398     1.37421037
     14      C    -3.03269422    -0.01795638     2.17587262
     15      C    -1.64205274    -2.10960625     2.27494701
     16      H    -1.06960726    -1.77286179     3.14336615
     17      H    -3.77629015    -2.01605823     0.53653218
     18      H    -2.31939419    -2.21640638    -0.41705134
     19      H    -3.21990360    -0.69216484    -0.48987782
     20      H    -3.94488408    -0.56322754     2.43595188
     21      H    -3.33028373     0.86149739     1.59413981
     22      H    -2.58775465     0.32971827     3.11079310
     23      H    -2.52213822    -2.63834276     2.65381119
     24      H    -1.03604894    -2.84293247     1.73467591
     25      H     0.52487841     0.65834301    -1.50464448
     26     Al     4.14556485    -0.61715457    -0.99796117
     27      F     4.03716832    -2.27388349    -1.19602409
     28      F     4.66208167    -0.05973025     0.48984394
     29      F     4.65178519     0.24293969    -2.33614087
 
Total System Charge             0.00000
 
 *** GOStep14 ***

 Energy gradients wrt nuclear displacements
 ==========================================

     Atom      Cartesian (a.u./angstrom)
                 X         Y         Z
 ----------------------------------------
     1 H    -0.000460  0.000398 -0.000294
     2 C    -0.000232 -0.000403 -0.003063
     3 C     0.000209  0.000023  0.003933
     4 C     0.001790  0.001713 -0.003223
     5 O    -0.005697 -0.000984  0.004624
     6 H     0.000011 -0.000013  0.000346
     7 H    -0.000269  0.000241 -0.001616
     8 H    -0.000463 -0.000078 -0.000013
     9 C     0.001763  0.000779  0.001137
    10 H    -0.000005 -0.000119  0.000135
    11 H     0.000025  0.000155 -0.000025
    12 C    -0.000294 -0.000530  0.000056
    13 C    -0.000861  0.000285  0.000508
    14 C    -0.000281 -0.000378 -0.000195
    15 C    -0.000158 -0.000921  0.000816
    16 H     0.000173 -0.000007 -0.000087
    17 H     0.000238 -0.000143  0.000130
    18 H     0.000167  0.000311 -0.000231
    19 H    -0.000157  0.000202  0.000012
    20 H     0.000054 -0.000031 -0.000005
    21 H    -0.000048  0.000067 -0.000076
    22 H     0.000044  0.000165 -0.000138
    23 H     0.000026  0.000139  0.000031
    24 H    -0.000000 -0.000049 -0.000085
    25 H    -0.000902 -0.000081 -0.000700
    26 Al    0.006121 -0.001467 -0.001650
    27 F     0.000353  0.001817  0.000019
    28 F    -0.000590 -0.000418 -0.001364
    29 F    -0.000557 -0.000674  0.001019
 ----------------------------------------
 Mulliken charges used for AMS results%charges...

 dE(predicted):    -0.11707E-03, dE(actual):    -0.14598E-03, Trust radius:    0.800000, all in a.u.
 
----------------------------------------------------------------------
Geometry Convergence after Step  14       (Hartree/Angstrom,Angstrom)
----------------------------------------------------------------------
current energy                               -5.67043729 Hartree
energy change                      -0.00014598     0.00029000    T
constrained gradient max            0.00611922     0.00100000    F
constrained gradient rms            0.00135624     0.00066667    F
gradient max                        0.00611922
gradient rms                        0.00135624
cart. step max                      0.21045313     0.01000000    F
cart. step rms                      0.04205605     0.00666667    F
 
 
--------
Geometry
--------
Formula: C8H16AlF3O
Atoms
  Index Symbol   x (angstrom)   y (angstrom)   z (angstrom)
      1      H     0.73577690    -1.61509166     0.55902789
      2      C    -0.85573555    -0.09336965     0.83205870
      3      C     0.12624208    -0.93421982    -0.03744446
      4      C     1.00661133    -0.09108444    -0.88444042
      5      O     2.22991694    -0.13697665    -0.89777901
      6      H    -1.30260102     0.66129083     0.16977690
      7      H    -0.45055423    -1.52386715    -0.76578009
      8      H     0.42868078    -0.01804007     2.61599739
      9      C    -0.05004445     0.66239257     1.90650380
     10      H     0.74687571     1.25881325     1.45179768
     11      H    -0.67806811     1.35413479     2.46981732
     12      C    -2.90986591    -1.47656336     0.18897094
     13      C    -2.07746329    -0.93747809     1.37227770
     14      C    -3.00162386    -0.01229145     2.19599206
     15      C    -1.63701739    -2.12230777     2.25774513
     16      H    -1.04299919    -1.79909275     3.11660839
     17      H    -3.79845092    -1.99477471     0.56195057
     18      H    -2.36559584    -2.19962887    -0.42541136
     19      H    -3.25319997    -0.66623664    -0.46384996
     20      H    -3.91421218    -0.54885024     2.47269891
     21      H    -3.30161414     0.87186329     1.62283146
     22      H    -2.53536187     0.32753646     3.12330301
     23      H    -2.51723920    -2.64030636     2.65088068
     24      H    -1.05287672    -2.86150442     1.70147554
     25      H     0.50819056     0.63196148    -1.56208047
     26     Al     4.12649398    -0.57742051    -0.92002443
     27      F     4.05433629    -2.24760473    -0.98557096
     28      F     4.60093723     0.10412215     0.53113894
     29      F     4.65366414     0.18044489    -2.31240525
 
Total System Charge             0.00000
 
 *** GOStep15 ***

 Energy gradients wrt nuclear displacements
 ==========================================

     Atom      Cartesian (a.u./angstrom)
                 X         Y         Z
 ----------------------------------------
     1 H    -0.000348  0.000546 -0.000016
     2 C     0.000576  0.000526 -0.002305
     3 C     0.000630 -0.000494  0.001889
     4 C     0.001322  0.001403 -0.003047
     5 O    -0.004202 -0.001639  0.005131
     6 H    -0.000060 -0.000206  0.000397
     7 H    -0.000348  0.000660 -0.001151
     8 H    -0.000360 -0.000007 -0.000155
     9 C     0.001888  0.000861  0.000807
    10 H    -0.000097 -0.000108  0.000159
    11 H    -0.000022  0.000165 -0.000054
    12 C     0.000233 -0.000189  0.000222
    13 C    -0.001818 -0.000762  0.000622
    14 C     0.000124 -0.000279 -0.000494
    15 C    -0.000367 -0.000648  0.000928
    16 H     0.000032 -0.000127 -0.000124
    17 H     0.000240 -0.000254  0.000176
    18 H    -0.000023  0.000305 -0.000244
    19 H    -0.000266  0.000186  0.000151
    20 H     0.000050 -0.000068  0.000110
    21 H    -0.000082 -0.000031 -0.000109
    22 H    -0.000082  0.000219 -0.000093
    23 H     0.000028  0.000167  0.000030
    24 H    -0.000071 -0.000126 -0.000158
    25 H    -0.000606 -0.000142 -0.000729
    26 Al    0.003697 -0.001003 -0.001581
    27 F     0.000275  0.001360 -0.000074
    28 F    -0.000154 -0.000244 -0.000526
    29 F    -0.000190 -0.000071  0.000236
 ----------------------------------------
 Mulliken charges used for AMS results%charges...

 dE(predicted):    -0.11266E-03, dE(actual):    -0.12773E-03, Trust radius:    0.800000, all in a.u.
 
----------------------------------------------------------------------
Geometry Convergence after Step  15       (Hartree/Angstrom,Angstrom)
----------------------------------------------------------------------
current energy                               -5.67056502 Hartree
energy change                      -0.00012773     0.00029000    T
constrained gradient max            0.00513497     0.00100000    F
constrained gradient rms            0.00109753     0.00066667    F
gradient max                        0.00513497
gradient rms                        0.00109753
cart. step max                      0.20982407     0.01000000    F
cart. step rms                      0.03802990     0.00666667    F
 
 
--------
Geometry
--------
Formula: C8H16AlF3O
Atoms
  Index Symbol   x (angstrom)   y (angstrom)   z (angstrom)
      1      H     0.71574489    -1.63899619     0.50380793
      2      C    -0.85071734    -0.10000175     0.81829484
      3      C     0.10852704    -0.94392786    -0.07860050
      4      C     0.98982208    -0.09481117    -0.91640878
      5      O     2.21431904    -0.11689070    -0.90528337
      6      H    -1.30260759     0.66405953     0.17044136
      7      H    -0.48927344    -1.51302271    -0.80443433
      8      H     0.47600945    -0.05312097     2.57152694
      9      C    -0.02099695     0.63804432     1.88536456
     10      H     0.76353410     1.24446204     1.42288315
     11      H    -0.63693755     1.31850780     2.47499393
     12      C    -2.92757562    -1.46032570     0.19493783
     13      C    -2.07204412    -0.93958185     1.36931131
     14      C    -2.97502389    -0.01225457     2.21396113
     15      C    -1.62987581    -2.13512389     2.23834769
     16      H    -1.02062117    -1.82466433     3.09113318
     17      H    -3.81572438    -1.97224214     0.57779843
     18      H    -2.40127025    -2.18464150    -0.43334782
     19      H    -3.27306568    -0.64147813    -0.44588755
     20      H    -3.88806788    -0.54309907     2.50031951
     21      H    -3.27596169     0.87868004     1.65203969
     22      H    -2.49259945     0.31611353     3.13706656
     23      H    -2.50920598    -2.64814154     2.64001410
     24      H    -1.06111415    -2.87534734     1.66763759
     25      H     0.49375668     0.61660293    -1.60731552
     26     Al     4.10365528    -0.54868486    -0.85586700
     27      F     4.04602933    -2.21986440    -0.77574689
     28      F     4.55139260     0.25803626     0.53981493
     29      F     4.65309453     0.08756459    -2.30073633
 
Total System Charge             0.00000
 
 *** GOStep16 ***

 Energy gradients wrt nuclear displacements
 ==========================================

     Atom      Cartesian (a.u./angstrom)
                 X         Y         Z
 ----------------------------------------
     1 H    -0.000236  0.000526  0.000155
     2 C     0.001180  0.001142 -0.001334
     3 C     0.000752 -0.000695  0.000101
     4 C     0.000955  0.001471 -0.002956
     5 O    -0.002669 -0.002606  0.005841
     6 H    -0.000137 -0.000318  0.000368
     7 H    -0.000355  0.000916 -0.000565
     8 H    -0.000213  0.000067 -0.000251
     9 C     0.001614  0.000789  0.000422
    10 H    -0.000147 -0.000075  0.000156
    11 H    -0.000057  0.000147 -0.000079
    12 C     0.000580  0.000088  0.000357
    13 C    -0.002232 -0.001391  0.000578
    14 C     0.000395 -0.000165 -0.000691
    15 C    -0.000465 -0.000321  0.000840
    16 H    -0.000086 -0.000184 -0.000137
    17 H     0.000180 -0.000313  0.000164
    18 H    -0.000175  0.000268 -0.000194
    19 H    -0.000321  0.000140  0.000248
    20 H     0.000024 -0.000088  0.000181
    21 H    -0.000110 -0.000097 -0.000110
    22 H    -0.000176  0.000221 -0.000044
    23 H     0.000018  0.000169  0.000030
    24 H    -0.000125 -0.000161 -0.000194
    25 H    -0.000337 -0.000285 -0.000744
    26 Al    0.001632 -0.000562 -0.001812
    27 F     0.000135  0.000943 -0.000117
    28 F     0.000181  0.000068  0.000156
    29 F     0.000198  0.000310 -0.000372
 ----------------------------------------
 Mulliken charges used for AMS results%charges...

 dE(predicted):    -0.18748E-03, dE(actual):    -0.12241E-03, Trust radius:    0.800000, all in a.u.
 
----------------------------------------------------------------------
Geometry Convergence after Step  16       (Hartree/Angstrom,Angstrom)
----------------------------------------------------------------------
current energy                               -5.67068742 Hartree
energy change                      -0.00012241     0.00029000    T
constrained gradient max            0.00584346     0.00100000    F
constrained gradient rms            0.00101342     0.00066667    F
gradient max                        0.00584346
gradient rms                        0.00101342
cart. step max                      0.21355908     0.01000000    F
cart. step rms                      0.03747996     0.00666667    F
 
 
--------
Geometry
--------
Formula: C8H16AlF3O
Atoms
  Index Symbol   x (angstrom)   y (angstrom)   z (angstrom)
      1      H     0.70213598    -1.65518853     0.45451008
      2      C    -0.84488159    -0.10529008     0.80721627
      3      C     0.09456427    -0.94951404    -0.11495977
      4      C     0.97380285    -0.09305371    -0.94527322
      5      O     2.19874918    -0.09390760    -0.91614854
      6      H    -1.30114637     0.66766683     0.17313394
      7      H    -0.52077494    -1.50278072    -0.83643333
      8      H     0.51901429    -0.08545496     2.53164358
      9      C     0.00497750     0.61567499     1.86846170
     10      H     0.77737264     1.23338349     1.40089654
     11      H    -0.60049343     1.28338542     2.48282493
     12      C    -2.94042038    -1.44482329     0.19837196
     13      C    -2.06547898    -0.94219919     1.36579985
     14      C    -2.95002666    -0.01486307     2.22993067
     15      C    -1.62204160    -2.14822376     2.21842502
     16      H    -1.00123918    -1.84997507     3.06716912
     17      H    -3.82982640    -1.94914850     0.58856549
     18      H    -2.43072660    -2.17133876    -0.44089341
     19      H    -3.28468995    -0.61792241    -0.43257307
     20      H    -3.86375855    -0.54108240     2.52280187
     21      H    -3.25080827     0.88334725     1.67976100
     22      H    -2.45420584     0.30097981     3.15025257
     23      H    -2.50044851    -2.65883882     2.62527667
     24      H    -1.06519550    -2.88734950     1.63466802
     25      H     0.47870605     0.61032766    -1.64429226
     26     Al     4.07551497    -0.52453525    -0.79786555
     27      F     4.01739743    -2.18223444    -0.56218781
     28      F     4.50753079     0.40611686     0.52511547
     29      F     4.64959888    -0.02730785    -2.28813122
 
Total System Charge             0.00000
 
 *** GOStep17 ***

 Energy gradients wrt nuclear displacements
 ==========================================

     Atom      Cartesian (a.u./angstrom)
                 X         Y         Z
 ----------------------------------------
     1 H    -0.000089  0.000431  0.000373
     2 C     0.001769  0.001703 -0.000169
     3 C     0.000665 -0.000795 -0.001904
     4 C     0.000624  0.001606 -0.003030
     5 O    -0.000955 -0.003845  0.006945
     6 H    -0.000209 -0.000433  0.000275
     7 H    -0.000259  0.001048  0.000169
     8 H    -0.000045  0.000129 -0.000326
     9 C     0.001170  0.000628 -0.000061
    10 H    -0.000184 -0.000066  0.000148
    11 H    -0.000082  0.000097 -0.000112
    12 C     0.000906  0.000367  0.000451
    13 C    -0.002503 -0.001994  0.000514
    14 C     0.000652 -0.000031 -0.000861
    15 C    -0.000528  0.000036  0.000685
    16 H    -0.000203 -0.000234 -0.000132
    17 H     0.000099 -0.000359  0.000144
    18 H    -0.000320  0.000198 -0.000131
    19 H    -0.000357  0.000066  0.000322
    20 H    -0.000005 -0.000120  0.000232
    21 H    -0.000131 -0.000168 -0.000109
    22 H    -0.000259  0.000190  0.000010
    23 H     0.000004  0.000138  0.000028
    24 H    -0.000189 -0.000206 -0.000207
    25 H    -0.000028 -0.000381 -0.000674
    26 Al   -0.000716  0.000479 -0.002202
    27 F    -0.000018  0.000446 -0.000110
    28 F     0.000505  0.000520  0.000763
    29 F     0.000684  0.000551 -0.001034
 ----------------------------------------
 Mulliken charges used for AMS results%charges...

 dE(predicted):    -0.58519E-03, dE(actual):    -0.15367E-03, Trust radius:    0.800000, all in a.u.
 
----------------------------------------------------------------------
Geometry Convergence after Step  17       (Hartree/Angstrom,Angstrom)
----------------------------------------------------------------------
current energy                               -5.67084110 Hartree
energy change                      -0.00015367     0.00029000    T
constrained gradient max            0.00694163     0.00100000    F
constrained gradient rms            0.00114781     0.00066667    F
gradient max                        0.00694163
gradient rms                        0.00114781
cart. step max                      0.21573081     0.01000000    F
cart. step rms                      0.03812984     0.00666667    F
 
 
--------
Geometry
--------
Formula: C8H16AlF3O
Atoms
  Index Symbol   x (angstrom)   y (angstrom)   z (angstrom)
      1      H     0.70214528    -1.64893027     0.41303904
      2      C    -0.83937940    -0.10281408     0.80114687
      3      C     0.08825151    -0.93899308    -0.14549353
      4      C     0.96117432    -0.06867696    -0.96540169
      5      O     2.18689355    -0.05946450    -0.93213026
      6      H    -1.30328107     0.67668228     0.18059408
      7      H    -0.53712908    -1.48574100    -0.86037235
      8      H     0.55908158    -0.10298733     2.49671040
      9      C     0.02121326     0.60483892     1.85985481
     10      H     0.77500393     1.24459933     1.39180000
     11      H    -0.58066560     1.24993044     2.50105550
     12      C    -2.94125507    -1.43614824     0.19655165
     13      C    -2.05559129    -0.94638997     1.36081553
     14      C    -2.93195925    -0.02655341     2.24149866
     15      C    -1.60586065    -2.15983486     2.19763356
     16      H    -0.98310900    -1.86929091     3.04757222
     17      H    -3.83353097    -1.93312181     0.58994744
     18      H    -2.44303424    -2.16621427    -0.44759621
     19      H    -3.28171759    -0.60421797    -0.42963160
     20      H    -3.84397221    -0.55500260     2.53603577
     21      H    -3.23631400     0.87744444     1.70308993
     22      H    -2.42939471     0.27871472     3.16167132
     23      H    -2.48132157    -2.67768537     2.60194674
     24      H    -1.04923879    -2.89119352     1.60396220
     25      H     0.46689427     0.64311937    -1.65505384
     26     Al     4.03313450    -0.52348045    -0.75217201
     27      F     3.93707917    -2.14855266    -0.34645700
     28      F     4.48569497     0.52327482     0.47614576
     29      F     4.63339025    -0.19746068    -2.28069639
 
Total System Charge             0.00000
 
 *** GOStep18 ***

 Energy gradients wrt nuclear displacements
 ==========================================

     Atom      Cartesian (a.u./angstrom)
                 X         Y         Z
 ----------------------------------------
     1 H     0.000334  0.000252  0.001094
     2 C     0.003019  0.002825  0.002356
     3 C    -0.000297 -0.001089 -0.006287
     4 C    -0.000124  0.002170 -0.003460
     5 O     0.002755 -0.006347  0.008919
     6 H    -0.000315 -0.000540  0.000097
[...]
 Index  Atom      ---- Displacements (x/y/z) ----
     1     H      -0.002153   0.001984  -0.001795
     2     C       0.000443  -0.000740   0.000453
     3     C       0.000313  -0.000113  -0.000071
     4     C       0.000020  -0.000336   0.000352
     5     O       0.000089  -0.000004  -0.000053
     6     H      -0.005506   0.010414  -0.006283
     7     H       0.001942   0.001905   0.003229
     8     H       0.006703  -0.008634   0.006569
     9     C       0.000003   0.001276  -0.000971
    10     H      -0.007567  -0.006914   0.004622
    11     H      -0.000848   0.000539  -0.000011
    12     C       0.012737  -0.074635   0.015873
    13     C       0.000583  -0.000744  -0.000012
    14     C       0.014608   0.040235  -0.024246
    15     C      -0.006695   0.000002   0.004300
    16     H       0.000136   0.000887   0.003454
    17     H       0.286725   0.160735  -0.123733
    18     H      -0.235011   0.258618   0.273497
    19     H      -0.209590   0.470371  -0.339639
    20     H      -0.323726  -0.225645   0.089083
    21     H       0.117388  -0.278621   0.156525
    22     H       0.031937   0.026596   0.043062
    23     H       0.048293   0.034972  -0.021044
    24     H       0.029826  -0.032688  -0.033170
    25     H      -0.001874   0.002846  -0.002036
    26    Al      -0.000021   0.000006  -0.000004
    27     F       0.000007  -0.000003   0.000004
    28     F       0.000007   0.000002   0.000003
    29     F       0.000006  -0.000002  -0.000002
 
 Mode:    80      Frequency (cm-1):     3066.6567     Intensity (km/mol):       18.4324
 Index  Atom      ---- Displacements (x/y/z) ----
     1     H      -0.010752   0.011040  -0.007922
     2     C       0.000600  -0.001083   0.000502
     3     C       0.000817  -0.000953   0.000114
     4     C      -0.000090  -0.000407   0.000422
     5     O       0.000181  -0.000006  -0.000069
     6     H      -0.007450   0.013330  -0.010272
     7     H       0.003611   0.005229   0.007414
     8     H      -0.007169   0.008276  -0.006430
     9     C      -0.001551  -0.000260   0.002361
    10     H       0.009860   0.009865  -0.006109
    11     H       0.016381  -0.013991  -0.014885
    12     C       0.063170  -0.025585  -0.036648
    13     C       0.000885  -0.001259   0.000087
    14     C      -0.016741  -0.038645   0.019394
    15     C      -0.014497   0.000024   0.009384
    16     H      -0.003855   0.000410   0.004442
    17     H      -0.364731  -0.254214   0.162127
    18     H      -0.340097   0.412076   0.393925
    19     H      -0.052022   0.148700  -0.119087
    20     H       0.311129   0.217310  -0.085311
    21     H      -0.109780   0.259362  -0.144003
    22     H      -0.007802  -0.012718  -0.000615
    23     H       0.104083   0.077256  -0.043197
    24     H       0.070036  -0.073416  -0.074494
    25     H      -0.002073   0.003047  -0.002212
    26    Al      -0.000039   0.000012  -0.000018
    27     F       0.000015  -0.000010   0.000013
    28     F       0.000012   0.000006   0.000009
    29     F       0.000012  -0.000004  -0.000001
 
 Mode:    81      Frequency (cm-1):     3069.1077     Intensity (km/mol):        4.4559
 Index  Atom      ---- Displacements (x/y/z) ----
     1     H      -0.005130   0.005682  -0.003862
     2     C       0.000828  -0.001867   0.001699
     3     C       0.000937  -0.000112   0.000665
     4     C       0.000032  -0.000345  -0.000041
     5     O       0.000041   0.000070   0.000060
     6     H      -0.014275   0.017245  -0.014407
     7     H      -0.005483  -0.003751  -0.005560
     8     H      -0.225236   0.274765  -0.231040
     9     C      -0.012385  -0.036231   0.041304
    10     H       0.277454   0.257352  -0.170326
    11     H       0.096635  -0.099375  -0.090546
    12     C       0.015278   0.027577  -0.019713
    13     C      -0.000284   0.000915  -0.000592
    14     C       0.009099   0.031675  -0.022125
    15     C      -0.045120  -0.014498   0.003614
    16     H       0.129624   0.073069   0.208688
    17     H      -0.262447  -0.164626   0.114448
    18     H      -0.001146   0.011292  -0.000134
    19     H       0.084143  -0.175831   0.123982
    20     H      -0.246145  -0.170813   0.066467
    21     H       0.100150  -0.239262   0.132185
    22     H       0.039720   0.028896   0.063787
    23     H       0.303737   0.219389  -0.132710
    24     H       0.105145  -0.121738  -0.118065
    25     H      -0.001199   0.002155  -0.001131
    26    Al       0.000021  -0.000013  -0.000003
    27     F       0.000002  -0.000002  -0.000004
    28     F      -0.000011   0.000002   0.000001
    29     F      -0.000007   0.000005   0.000006
 
 Mode:    82      Frequency (cm-1):     3071.6354     Intensity (km/mol):       25.8677
 Index  Atom      ---- Displacements (x/y/z) ----
     1     H      -0.033673   0.035692  -0.028279
     2     C      -0.002156   0.003877  -0.003150
     3     C       0.003177  -0.002555   0.003343
     4     C       0.000157   0.000467   0.000020
     5     O      -0.000067  -0.000089  -0.000059
     6     H       0.027963  -0.042800   0.033767
     7     H      -0.007803  -0.008645  -0.009321
     8     H       0.269965  -0.327421   0.275602
     9     C       0.016729   0.041070  -0.051353
    10     H      -0.329417  -0.307301   0.202888
    11     H      -0.142568   0.141355   0.133847
    12     C       0.012784   0.023133  -0.016809
    13     C      -0.000208   0.000861  -0.000306
    14     C       0.015240   0.025055  -0.007988
    15     C      -0.035174   0.002177   0.021786
    16     H       0.008490   0.009287   0.031086
    17     H      -0.222176  -0.139261   0.096671
    18     H      -0.001589   0.010509   0.000325
    19     H       0.071709  -0.149109   0.105057
    20     H      -0.219301  -0.154399   0.063910
    21     H       0.061580  -0.138562   0.078295
    22     H      -0.021892  -0.007963  -0.047504
    23     H       0.222173   0.163576  -0.090851
    24     H       0.190881  -0.200748  -0.198350
    25     H       0.001460  -0.003259   0.001990
    26    Al      -0.000030   0.000063  -0.000031
    27     F       0.000002  -0.000045   0.000046
    28     F       0.000014  -0.000018   0.000004
    29     F       0.000009  -0.000015   0.000005
 
 Mode:    83      Frequency (cm-1):     3075.4163     Intensity (km/mol):       61.3068
 Index  Atom      ---- Displacements (x/y/z) ----
     1     H      -0.019051   0.019396  -0.014762
     2     C       0.000918  -0.000413   0.000494
     3     C       0.001937  -0.001349   0.001797
     4     C       0.000386   0.000003  -0.000054
     5     O      -0.000175   0.000013   0.000033
     6     H      -0.006398   0.012340  -0.009094
     7     H      -0.005334  -0.006710  -0.007718
     8     H      -0.021926   0.027560  -0.024062
     9     C       0.003701  -0.004355  -0.000015
    10     H       0.004965   0.002192  -0.002692
    11     H      -0.025887   0.022694   0.026788
    12     C      -0.033165  -0.018224   0.029751
    13     C      -0.001642  -0.001659   0.001511
    14     C      -0.001160  -0.028295   0.029497
    15     C      -0.062308  -0.015140   0.013423
    16     H       0.133306   0.077204   0.221625
    17     H       0.360251   0.232576  -0.155458
    18     H       0.103221  -0.135392  -0.119704
    19     H      -0.063617   0.123156  -0.084083
    20     H       0.213297   0.143418  -0.055416
    21     H      -0.103440   0.255980  -0.138851
    22     H      -0.091843  -0.058466  -0.159566
    23     H       0.428836   0.314961  -0.186708
    24     H       0.184248  -0.205332  -0.200076
    25     H      -0.000762   0.001151  -0.000639
    26    Al       0.000057  -0.000007  -0.000005
    27     F      -0.000020  -0.000002   0.000008
    28     F      -0.000022  -0.000008  -0.000006
    29     F      -0.000019   0.000008   0.000013
 
 Mode:    84      Frequency (cm-1):     3083.3648     Intensity (km/mol):       20.5400
 Index  Atom      ---- Displacements (x/y/z) ----
     1     H      -0.052868   0.054460  -0.041125
     2     C      -0.000178   0.000214   0.000027
     3     C       0.005575  -0.003712   0.004900
     4     C       0.000464  -0.000153   0.000004
     5     O      -0.000118   0.000028   0.000037
     6     H       0.000640  -0.001407   0.001523
     7     H      -0.014834  -0.015121  -0.018005
     8     H      -0.003630   0.000948   0.002133
     9     C      -0.013422   0.003625   0.011884
    10     H       0.054829   0.057585  -0.035372
    11     H       0.108620  -0.099134  -0.108351
    12     C      -0.009800   0.001236   0.006773
    13     C      -0.000960   0.000596   0.000838
    14     C      -0.033498  -0.009984  -0.032275
    15     C       0.001649   0.040327   0.063777
    16     H      -0.329574  -0.171278  -0.468941
    17     H       0.070647   0.048738  -0.030547
    18     H       0.048927  -0.060129  -0.058666
    19     H       0.000140  -0.004640   0.005295
    20     H       0.162486   0.120234  -0.058565
    21     H       0.037596  -0.120443   0.057986
    22     H       0.205243   0.116505   0.379998
    23     H      -0.011570   0.002900   0.021440
    24     H       0.323635  -0.314624  -0.314062
    25     H      -0.001562   0.002463  -0.001358
    26    Al       0.000034   0.000009  -0.000011
    27     F       0.000007  -0.000022   0.000014
    28     F      -0.000016  -0.000009  -0.000003
    29     F      -0.000012   0.000002   0.000010
 
 Mode:    85      Frequency (cm-1):     3088.7834     Intensity (km/mol):       38.5382
 Index  Atom      ---- Displacements (x/y/z) ----
     1     H      -0.016846   0.017369  -0.011965
     2     C       0.001212  -0.001944   0.001611
     3     C       0.001678  -0.001080   0.001576
     4     C       0.000226  -0.000222   0.000112
     5     O      -0.000058   0.000024   0.000002
     6     H      -0.014705   0.021403  -0.016741
     7     H      -0.004658  -0.004827  -0.006589
     8     H      -0.118924   0.150316  -0.129838
     9     C       0.009266  -0.019559   0.009182
    10     H       0.057837   0.047142  -0.034925
    11     H      -0.046947   0.038464   0.049798
    12     C       0.003152   0.001531  -0.002669
    13     C       0.001463   0.000710   0.001276
    14     C       0.050851   0.015114   0.050005
    15     C       0.015600   0.028457   0.037629
    16     H      -0.247729  -0.128165  -0.358539
    17     H      -0.039466  -0.025841   0.015785
    18     H      -0.007754   0.009776   0.007934
    19     H       0.003408  -0.005471   0.002330
    20     H      -0.236096  -0.175546   0.085862
    21     H      -0.057062   0.178137  -0.086631
    22     H      -0.319870  -0.185704  -0.596382
    23     H      -0.099235  -0.066097   0.054130
    24     H       0.156332  -0.147347  -0.148383
    25     H      -0.001259   0.002317  -0.001347
    26    Al       0.000000   0.000002   0.000029
    27     F       0.000015  -0.000012  -0.000019
    28     F       0.000002  -0.000003  -0.000012
    29     F      -0.000001  -0.000002  -0.000010
 
 Mode:    86      Frequency (cm-1):     3106.2385     Intensity (km/mol):       16.0124
 Index  Atom      ---- Displacements (x/y/z) ----
     1     H       0.284964  -0.295746   0.224635
     2     C       0.001353  -0.001349   0.000193
     3     C      -0.028485   0.020643  -0.024227
     4     C      -0.001746   0.000966  -0.000771
     5     O       0.000254  -0.000046  -0.000004
     6     H      -0.006027   0.006636  -0.009035
     7     H       0.057249   0.061207   0.068222
     8     H      -0.188303   0.250427  -0.224609
     9     C       0.056755  -0.047477  -0.021734
    10     H      -0.055125  -0.077231   0.040495
    11     H      -0.439858   0.390695   0.444947
    12     C       0.000307  -0.000201  -0.000089
    13     C      -0.000306   0.000019  -0.000134
    14     C      -0.012832  -0.004245  -0.014365
    15     C      -0.000035   0.004530   0.007206
    16     H      -0.036393  -0.019614  -0.051920
    17     H      -0.001052  -0.000668   0.000657
    18     H      -0.002438   0.002337   0.002258
    19     H      -0.000154   0.000861  -0.000580
    20     H       0.053318   0.040654  -0.018992
    21     H       0.011687  -0.039962   0.018421
    22     H       0.094335   0.054454   0.172312
    23     H      -0.000320   0.000760   0.001431
    24     H       0.037901  -0.036058  -0.036245
    25     H       0.009337  -0.016139   0.010796
    26    Al      -0.000004  -0.000067   0.000081
    27     F      -0.000122   0.000119  -0.000109
    28     F       0.000019   0.000024  -0.000010
    29     F       0.000009   0.000003  -0.000033
 
 Mode:    87      Frequency (cm-1):     3108.1601     Intensity (km/mol):        2.6104
 Index  Atom      ---- Displacements (x/y/z) ----
     1     H       0.513089  -0.533417   0.400924
     2     C      -0.003167   0.003704  -0.003053
     3     C      -0.050388   0.036799  -0.043576
     4     C      -0.003262   0.002168  -0.002005
     5     O       0.000436  -0.000099   0.000094
     6     H       0.035447  -0.047527   0.031420
     7     H       0.099494   0.106687   0.120065
     8     H       0.114869  -0.150082   0.136950
     9     C      -0.031517   0.027397   0.010932
    10     H       0.025015   0.038584  -0.019436
    11     H       0.242345  -0.215097  -0.244553
    12     C      -0.000350   0.000691  -0.000186
    13     C       0.000035   0.000237   0.000274
    14     C       0.006079   0.002205   0.006972
    15     C      -0.004883   0.002984   0.005451
    16     H      -0.008876  -0.003393  -0.010048
    17     H      -0.000456  -0.000612   0.000242
    18     H       0.000560  -0.002150  -0.001838
    19     H       0.002935  -0.005936   0.004095
    20     H      -0.024662  -0.018772   0.008971
    21     H      -0.004526   0.016509  -0.007435
    22     H      -0.046721  -0.027238  -0.085364
    23     H       0.022491   0.016459  -0.008287
    24     H       0.047964  -0.048306  -0.048247
    25     H       0.018870  -0.033350   0.022289
    26    Al       0.000079  -0.000124   0.000072
    27     F      -0.000281   0.000242  -0.000146
    28     F      -0.000008   0.000031   0.000001
    29     F      -0.000007   0.000013  -0.000026

PES point character: Geometry corresponds to a local minimum on the PES.
                     (Hint: Very small negative frequencies do not count towards being a
                     transition state, as they usually indicate noise on a very flat PES. See
                     the PESPointCharacter%NegativeFrequenciesTolerance keyword documentation.)




 ============================
 Statistical Thermal Analysis  ***  ideal gas assumed  ***
 ============================
  
 Pressure:                  1.000000 atm.
 Temperature:             298.150000 K



 Moments of Inertia [amu*bohr^2] and principal axis
 ==================================================

        1313.9057       6602.4268       6696.4021
 ------------------------------------------------
          -0.9343         -0.2425         -0.2615
          -0.0240         -0.6888          0.7245
           0.3558         -0.6832         -0.6377


 The rotational contribution to the molecular entropy includes
 a term, dependent on the symmetry number sigma. The results 
 reported below were computed using sigma = 1, determined from
 the point group symmetry of the input geometry (NOSYM). 
 If this is not the correct symmetry, try symmetrizing the molecule before
 running the calculation (note: linear molecules should be aligned along one
 of the Cartesian axes).
 Contributions from frequencies below 20 1/cm are not included in vibrational sums.
 Their contributions, if any, are reported separately.


     Temp                                                        Transl      Rotat     Vibrat     Total
     ----                                                        ------      -----     ------     -----

     298.15   Entropy (cal/mol-K):                               41.959     32.430     49.589    123.978
              Nuclear Internal Energy (kcal/mol):                 0.889      0.889    152.784    154.562
              Constant Volume Heat Capacity (cal/mol-K):          2.981      2.981     51.604     57.566
          (c) Constant Volume Heat Capacity (cal/mol-K):          2.981      2.981     49.230     55.191

 Contributions from frequencies below 20 1/cm
 Frequency (1/cm):                                   18.479
 Entropy (cal/mol-K):                                 6.791
 Nuclear Internal Energy (kcal/mol):                  0.593
 Constant Volume Heat Capacity (cal/mol-K):           1.986

       Summary of energy terms
                                                   hartree              eV         kcal/mol           kJ/mol
                                      --------------------     -----------       ----------      -----------
      Energy from Engine:               -5.675647955032965       -154.4422         -3561.52        -14901.41
      Nuclear Internal Energy:           0.246310122229145          6.7024           154.56           646.69
  (c) Nuclear Internal Energy:           0.245032493929666          6.6677           153.76           643.33
      Internal Energy U:                -5.429337832803821       -147.7398         -3406.96        -14254.72
      pV/n = RT:                         0.000944186013486          0.0257             0.59             2.48
      Enthalpy H:                       -5.428393646790335       -147.7141         -3406.37        -14252.25
      -T*S:                             -0.058906068051817         -1.6029           -36.96          -154.66
  (c) -T*S:                             -0.059435322109323         -1.6173           -37.30          -156.05
      Gibbs free energy:                -5.487299714842152       -149.3170         -3443.33        -14406.90
 
 
 
  (c) The properties marked with this symbol have been corrected using 'low vibrational frequency free rotor
      interpolation corrections'. For those terms all positive frequencies are used (also ones below 20 1/cm),
      but the contribution to the partition function of small vibrational frequencies is modified as described
      in the following paper:
      S. Grimme, 'Supramolecular Binding Thermodynamics by Dispersion-Corrected Density Functional Theory'
      (Chem. Eur. J. 2012, 18, 9955-9964)
      Configuration: Dampener Frequency          :   100.000 1/cm
                     Dampener Alpha              :     4.000
                     Averaging Moment of Inertia : 1.000E-44 kg m2

--------------
Atomic charges
--------------
  Index   Atom    Charge
      1      H   -0.0744
      2      C    0.1750
      3      C    0.4248
      4      C    0.7383
      5      O   -0.5636
      6      H   -0.1815
      7      H   -0.1766
      8      H   -0.2010
      9      C    0.7215
     10      H   -0.2362
     11      H   -0.2484
     12      C    0.7570
     13      C   -0.0452
     14      C    0.7641
     15      C    0.7579
     16      H   -0.2417
     17      H   -0.2374
     18      H   -0.2544
     19      H   -0.2504
     20      H   -0.2467
     21      H   -0.2495
     22      H   -0.2399
     23      H   -0.2398
     24      H   -0.2503
     25      H   -0.2383
     26     Al    1.7398
     27      F   -0.6476
     28      F   -0.6276
     29      F   -0.6280


Dipole moment vector    (Debye):    -8.56182907    1.39805411    0.89270656
              magnitude (Debye):     8.72103189


Final PES point is a local minimum. Geometry optimization successful!


AMS application finished. Exiting.
NORMAL TERMINATION
     Total cpu time:   89214.55
  Total system time:     443.90
 Total elapsed time:  180123.99
 WARNING: total elapsed time is much higher than the (CPU+system) time. 
 Make sure the machine is not oversubscribed and has enough memory, SCM_TMPDIR p
 oints to a fast file system, and the network is fast enough.
