

 Parallel Execution: Process Information
 ==============================================================================
 Rank   Node Name                              NodeID   MyNodeRank  NodeMaster
    0   node115                                   0          0          0
    1   node115                                   0          1         -1
    2   node115                                   0          2         -1
    3   node115                                   0          3         -1
 ==============================================================================


May use up to 122928MB of RAM as shared memory on node 0

 *******************************************************************************
 *                                                                             *
 *  --------------------------------                                           *
 *   Amsterdam Modeling Suite (AMS)              2021.102                      *
 *  --------------------------------                                           *
 *                                               r95042 2021-06-07             *
 *                                                                             *
 *                                                                             *
 *                              =================                              *
 *                              |               |                              *
 *                              |     A M S     |                              *
 *                              |               |                              *
 *                              =================                              *
 *                                                                             *
 *                                                                             *
 *   Online information and documentation:  https://www.scm.com/support/       *
 *   E-mail:  support@scm.com   info@scm.com                                   *
 *                                                                             *
 *   Scientific publications using AMS results must be properly referenced     *
 *   See the User Manuals (or the web site) for recommended citations          *
 *   The terms and conditions of the End User License Agreement apply to       *
 *   the use of AMS, https://www.scm.com/license-terms/                        *
 *                                                                             *
 **********************  x86_64_linux_intel / intelmpi  ************************
 
 Licensed to: VU/FEW (+ SARA) / ALGEMEEN / Amsterdam / THE NETHERLANDS
 SCM User ID: u7668
  
 AMS 2021.102  RunTime: Jan23-2022 04:24:39  ShM Nodes: 1  Procs: 4

 AMS jobname: 23.achiral_catalyst.H_H_AlF3.P1
 AMS jobid  : 387368847

 Start   directory: /scistor/tc/yhk800/MasterProject/calculations/achiral_catalyst_H_H_AlF3/23.achiral_catalyst.H_H_AlF3.P1/
 Results directory: /scistor/tc/yhk800/MasterProject/calculations/achiral_catalyst_H_H_AlF3/23.achiral_catalyst.H_H_AlF3.P1/
 Scratch directory: /scratch/3978/amstmp_23.achiral_catalyst.H_H_AlF3.P1_kid0.387368847/


 Communication costs MPI_COMM_WORLD:      1.753 usec per message,   0.0027 usec per 8-byte item
 Communication costs for intra-node:      0.041 usec per message,   0.0078 usec per 8-byte item

 RNG seed: -795021118 1496600238 -1348510257 93642403 -794821246 -1579012619 -1494391249 -629525819



                      ************************************************************************
                      *  ADF 2021.102  RunTime: Jan23-2022 04:24:40  ShM Nodes: 1  Procs: 4  *
                      ************************************************************************
  
       ***************************
       *  GEOMETRY OPTIMIZATION  *
       ***************************

Optimization Method                    Quasi Newton
Optimization Coordinates               Delocalized Coordinates
Optimize lattice                       F
 
 ------------------------------------------------------
 Convergence criteria (Hartree,Angstrom)
 ------------------------------------------------------
 Maximum gradient               0.001000000000
 Maximum rms gradient           0.000666666667
 Maximum step allowed           0.010000000000
 Maximum rms step allowed       0.006666666667
 Maximum energy change allowe   0.000160000000
 Maximum stress energy allowe   0.000500000000
 
Initial model Hessian                  Automatic Hessian
 
------------------------------------
Quasi-Newton Optimizer Parameters
------------------------------------
Hessian Update Method                  BFGS
Maximum number of steps                  250
First GDIIS cycle                          0
Maximum GDIIS vectors                      0
Trust radius (bohr)                        0.200000
Trust radius varies                        T
Constraints converged at all steps         T
Use projector                              T
 
 Rigid motions settings for: old optimizer
 Atomic rotations (x,y,z):     T T T
 Atomic translations (x,y,z):  T T T
 Tolerance:                   1.000000000000000E-006
 
--------
Geometry
--------
Formula: C4H7AlF3O
Atoms
  Index Symbol   x (angstrom)   y (angstrom)   z (angstrom)
      1      H     0.30883566    -1.71322737     0.34845077
      2      C    -0.85933175     0.07325638     0.95361639
      3      C     0.30566658    -0.62207952     0.35697327
      4      C     1.44363467     0.02246096    -0.23005168
      5      O     1.61592302     1.24992601    -0.30213575
      6      H    -0.69195270     1.15283717     0.94428296
      7      H    -1.40849480    -1.48746718     2.39475159
      8      C    -1.20706757    -0.41125312     2.37345100
      9      H    -0.38777363    -0.20492454     3.06899219
     10      H    -2.09949902     0.10683830     2.73788510
     11      H    -1.70568492    -0.10955427     0.32499363
     12      H     2.18584514    -0.63577321    -0.63098981
     13     Al     2.05590296     4.51894516    -0.20247893
     14      F     1.83561811     4.49974647     1.39983763
     15      F     0.79092386     4.71931678    -1.19040173
     16      F     3.54116692     4.33777221    -0.81687269
 
Total System Charge             0.00000
 
 
----------------
ADF Engine Input
----------------
 
 NumericalQuality VeryGood
 SCF
 Converge 1.0e-6
 Iterations 99
 End
 SYMMETRY NOSYM
 SpinPolarization 1.0
 Unrestricted Yes
 XC
 GGA OLYP
 End
 basis
 core None
 type TZ2P
 End
 

 Title: *** (NO TITLE) ***

 Using automatic Hessian for delocalized coordinates.
 *** GOStep1 ***

 Energy gradients wrt nuclear displacements
 ==========================================

     Atom      Cartesian (a.u./angstrom)
                 X         Y         Z
 ----------------------------------------
     1 H    -0.000074  0.000097  0.000159
     2 C    -0.029441 -0.006492 -0.021184
     3 C     0.000569 -0.002442 -0.001282
     4 C     0.029196 -0.023464 -0.015884
     5 O     0.002693 -0.009747 -0.002193
     6 H    -0.001653 -0.001392 -0.000269
     7 H     0.000099 -0.000027  0.000075
     8 C    -0.000891  0.000139 -0.001938
     9 H     0.000309  0.000141 -0.000059
    10 H    -0.000009  0.000021  0.000096
    11 H     0.032526  0.007150  0.023700
    12 H    -0.033896  0.029828  0.018334
    13 Al    0.001037  0.023682  0.002503
    14 F     0.005520 -0.004971 -0.041763
    15 F     0.032161 -0.010816  0.024673
    16 F    -0.038145 -0.001706  0.015032
 ----------------------------------------
 Mulliken charges used for AMS results%charges...
 
----------------------------------------------------------------------
Geometry Convergence after Step   1       (Hartree/Angstrom,Angstrom)
----------------------------------------------------------------------
current energy                               -3.14161229 Hartree
energy change                      -3.14161229     0.00016000    F
constrained gradient max            0.04177115     0.00100000    F
constrained gradient rms            0.01645346     0.00066667    F
gradient max                        0.04177115
gradient rms                        0.01645346
cart. step max                      0.02859242     0.01000000    F
cart. step rms                      0.01311593     0.00666667    F
 
 
--------
Geometry
--------
Formula: C4H7AlF3O
Atoms
  Index Symbol   x (angstrom)   y (angstrom)   z (angstrom)
      1      H     0.30024970    -1.71934067     0.34523521
      2      C    -0.85374209     0.07931707     0.94836209
      3      C     0.30514943    -0.62813902     0.35306523
      4      C     1.44793842     0.00948517    -0.23234210
      5      O     1.61354125     1.24218897    -0.29715107
      6      H    -0.67091403     1.15728105     0.93581017
      7      H    -1.41168978    -1.46967665     2.39942858
      8      C    -1.19832662    -0.39587901     2.37310566
      9      H    -0.37370432    -0.19606868     3.06404020
     10      H    -2.08332651     0.13314794     2.73985387
     11      H    -1.72237112    -0.10032294     0.31061981
     12      H     2.21013394    -0.66312781    -0.64418084
     13     Al     2.03922133     4.49771039    -0.19256388
     14      F     1.81219493     4.49325156     1.42843005
     15      F     0.76269909     4.71566433    -1.19308400
     16      F     3.54665892     4.34132853    -0.80832504
 
Total System Charge             0.00000
 
 *** GOStep2 ***

 Energy gradients wrt nuclear displacements
 ==========================================

     Atom      Cartesian (a.u./angstrom)
                 X         Y         Z
 ----------------------------------------
     1 H     0.000125  0.000023 -0.000016
     2 C    -0.010743 -0.002697 -0.007177
     3 C    -0.000447 -0.000242  0.000572
     4 C     0.009998 -0.016129 -0.005613
     5 O     0.000667  0.001227 -0.000998
     6 H     0.000032 -0.000152  0.000308
     7 H     0.000050 -0.000040 -0.000025
     8 C     0.000285  0.000481 -0.000540
     9 H    -0.000009 -0.000093  0.000228
    10 H    -0.000035 -0.000013  0.000061
    11 H     0.009731  0.002171  0.007179
    12 H    -0.010227  0.008628  0.005517
    13 Al    0.001339  0.020734  0.001745
    14 F     0.002306 -0.004016 -0.017494
    15 F     0.013315 -0.006604  0.010131
    16 F    -0.016386 -0.003278  0.006120
 ----------------------------------------
 Mulliken charges used for AMS results%charges...

 dE(predicted):    -0.25535E-02, dE(actual):    -0.35291E-02, Trust radius:    0.200000, all in a.u.
 
----------------------------------------------------------------------
Geometry Convergence after Step   2       (Hartree/Angstrom,Angstrom)
----------------------------------------------------------------------
current energy                               -3.14514135 Hartree
energy change                      -0.00352906     0.00016000    F
constrained gradient max            0.02072711     0.00100000    F
constrained gradient rms            0.00697172     0.00066667    F
gradient max                        0.02072711
gradient rms                        0.00697172
cart. step max                      0.02497589     0.01000000    F
cart. step rms                      0.00816166     0.00666667    F
 
 
--------
Geometry
--------
Formula: C4H7AlF3O
Atoms
  Index Symbol   x (angstrom)   y (angstrom)   z (angstrom)
      1      H     0.29254306    -1.72225891     0.33950020
      2      C    -0.84953097     0.08323740     0.94796889
      3      C     0.30271353    -0.63108096     0.34885391
      4      C     1.44677653     0.00464209    -0.23338827
      5      O     1.61187746     1.23631288    -0.29197549
      6      H    -0.66099549     1.16038682     0.93253488
      7      H    -1.41189286    -1.46257988     2.40194878
      8      C    -1.19254816    -0.39004390     2.37421688
      9      H    -0.36418228    -0.19395501     3.06153566
     10      H    -2.07324380     0.14432175     2.74343307
     11      H    -1.73125657    -0.09510396     0.30578633
     12      H     2.22089065    -0.67547447    -0.65113966
     13     Al     2.03037636     4.47273449    -0.19000709
     14      F     1.79206974     4.49837315     1.44365379
     15      F     0.75177531     4.71894506    -1.20421608
     16      F     3.55834000     4.34836368    -0.79840186
 
Total System Charge             0.00000
 
 *** GOStep3 ***

 Energy gradients wrt nuclear displacements
 ==========================================

     Atom      Cartesian (a.u./angstrom)
                 X         Y         Z
 ----------------------------------------
     1 H     0.000141 -0.000187 -0.000006
     2 C     0.000446  0.000158  0.000621
     3 C     0.000424  0.000950  0.000130
     4 C    -0.001532 -0.005541  0.000270
     5 O    -0.000757 -0.001728 -0.000220
     6 H     0.000524  0.000334  0.000161
     7 H    -0.000039 -0.000104  0.000051
     8 C     0.000443  0.000117  0.000134
     9 H    -0.000086 -0.000072  0.000047
    10 H    -0.000064 -0.000019  0.000024
    11 H    -0.001734 -0.000329 -0.001136
    12 H     0.001599 -0.001274 -0.000632
    13 Al    0.001269  0.014894  0.000879
    14 F     0.000116 -0.002001 -0.001156
    15 F     0.000798 -0.002421  0.000526
    16 F    -0.001546 -0.002778  0.000308
 ----------------------------------------
 Mulliken charges used for AMS results%charges...

 dE(predicted):    -0.83173E-03, dE(actual):    -0.10159E-02, Trust radius:    0.200000, all in a.u.
 
----------------------------------------------------------------------
Geometry Convergence after Step   3       (Hartree/Angstrom,Angstrom)
----------------------------------------------------------------------
current energy                               -3.14615720 Hartree
energy change                      -0.00101586     0.00016000    F
constrained gradient max            0.01488561     0.00100000    F
constrained gradient rms            0.00247778     0.00066667    F
gradient max                        0.01488561
gradient rms                        0.00247778
cart. step max                      0.01364051     0.01000000    F
cart. step rms                      0.00426074     0.00666667    T
 
 
--------
Geometry
--------
Formula: C4H7AlF3O
Atoms
  Index Symbol   x (angstrom)   y (angstrom)   z (angstrom)
      1      H     0.29019474    -1.72114143     0.33582765
      2      C    -0.84902897     0.08299826     0.95148354
      3      C     0.30218403    -0.63015944     0.34986880
      4      C     1.44668762     0.00698097    -0.23017182
      5      O     1.61369955     1.23756291    -0.28786484
      6      H    -0.66223615     1.16025771     0.93794382
      7      H    -1.41337687    -1.46694130     2.40009614
      8      C    -1.19418938    -0.39436787     2.37582483
      9      H    -0.36646238    -0.19989634     3.06438155
     10      H    -2.07527898     0.13905745     2.74530348
     11      H    -1.73172028    -0.09462359     0.30709605
     12      H     2.21923973    -0.67462380    -0.65510537
     13     Al     2.03166335     4.45909398    -0.19474140
     14      F     1.79091819     4.51034027     1.44192823
     15      F     0.75479275     4.72556510    -1.21222064
     16      F     3.56662558     4.35671735    -0.79934609
 
Total System Charge             0.00000
 
 *** GOStep4 ***

 Energy gradients wrt nuclear displacements
 ==========================================

     Atom      Cartesian (a.u./angstrom)
                 X         Y         Z
 ----------------------------------------
     1 H    -0.000028 -0.000131  0.000014
     2 C     0.002696  0.000769  0.002054
     3 C     0.000343  0.000380 -0.000368
     4 C    -0.003202 -0.001824  0.002636
     5 O    -0.000801 -0.004031 -0.000733
     6 H     0.000290  0.000154 -0.000007
     7 H    -0.000034 -0.000060  0.000028
     8 C     0.000167 -0.000045  0.000161
     9 H    -0.000036 -0.000009 -0.000039
    10 H    -0.000046 -0.000015  0.000025
    11 H    -0.003250 -0.000673 -0.002281
    12 H     0.003196 -0.002769 -0.002031
    13 Al    0.001070  0.010439  0.000383
    14 F    -0.000396 -0.000379  0.002947
    15 F    -0.002219 -0.000279 -0.001769
    16 F     0.002250 -0.001527 -0.001020
 ----------------------------------------
 Mulliken charges used for AMS results%charges...

 dE(predicted):    -0.14849E-03, dE(actual):    -0.21942E-03, Trust radius:    0.200000, all in a.u.
 
----------------------------------------------------------------------
Geometry Convergence after Step   4       (Hartree/Angstrom,Angstrom)
----------------------------------------------------------------------
current energy                               -3.14637662 Hartree
energy change                      -0.00021942     0.00016000    F
constrained gradient max            0.01043084     0.00100000    F
constrained gradient rms            0.00216340     0.00066667    F
gradient max                        0.01043084
gradient rms                        0.00216340
cart. step max                      0.02084140     0.01000000    F
cart. step rms                      0.00757611     0.00666667    F
 
 
--------
Geometry
--------
Formula: C4H7AlF3O
Atoms
  Index Symbol   x (angstrom)   y (angstrom)   z (angstrom)
      1      H     0.28751329    -1.71866522     0.33124507
      2      C    -0.85144184     0.08168055     0.95496468
      3      C     0.29815693    -0.62789931     0.34716624
      4      C     1.43944233     0.01125842    -0.23787112
      5      O     1.61215925     1.24022719    -0.28861724
      6      H    -0.67015529     1.15961193     0.94134735
      7      H    -1.40736585    -1.47185953     2.40235457
      8      C    -1.19164840    -0.39866174     2.37935627
      9      H    -0.36258272    -0.20255962     3.06590572
     10      H    -2.07327560     0.13173606     2.75164996
     11      H    -1.73491211    -0.09828060     0.31365572
     12      H     2.21530346    -0.67079964    -0.65412057
     13     Al     2.03391683     4.43825258    -0.19896228
     14      F     1.77568682     4.52173888     1.43561306
     15      F     0.77273428     4.73546532    -1.23033313
     16      F     3.58018116     4.36557494    -0.78305035
 
Total System Charge             0.00000
 
 *** GOStep5 ***

 Energy gradients wrt nuclear displacements
 ==========================================

     Atom      Cartesian (a.u./angstrom)
                 X         Y         Z
 ----------------------------------------
     1 H    -0.000165  0.000058 -0.000015
     2 C     0.002789  0.000784  0.001954
     3 C     0.000675 -0.000394  0.000513
     4 C    -0.004729  0.001156 -0.000924
     5 O    -0.000062 -0.007529  0.000228
     6 H    -0.000118 -0.000115 -0.000157
     7 H     0.000006  0.000023 -0.000018
     8 C    -0.000170 -0.000161  0.000056
     9 H     0.000041  0.000036 -0.000069
    10 H    -0.000003 -0.000006 -0.000002
    11 H    -0.002354 -0.000500 -0.001731
    12 H     0.003272 -0.002341 -0.000394
    13 Al    0.000746  0.004521 -0.000045
    14 F    -0.000535  0.001813  0.004559
    15 F    -0.003229  0.002125 -0.002579
    16 F     0.003836  0.000530 -0.001377
 ----------------------------------------
 Mulliken charges used for AMS results%charges...

 dE(predicted):    -0.14126E-03, dE(actual):    -0.16934E-03, Trust radius:    0.200000, all in a.u.
 
----------------------------------------------------------------------
Geometry Convergence after Step   5       (Hartree/Angstrom,Angstrom)
----------------------------------------------------------------------
current energy                               -3.14654597 Hartree
energy change                      -0.00016934     0.00016000    F
constrained gradient max            0.00753495     0.00100000    F
constrained gradient rms            0.00205902     0.00066667    F
gradient max                        0.00753495
gradient rms                        0.00205902
cart. step max                      0.02319144     0.01000000    F
cart. step rms                      0.00984872     0.00666667    F
 
 
--------
Geometry
--------
Formula: C4H7AlF3O
Atoms
  Index Symbol   x (angstrom)   y (angstrom)   z (angstrom)
      1      H     0.28599550    -1.71248642     0.32539963
      2      C    -0.84930336     0.08448064     0.96313945
      3      C     0.30052307    -0.62209604     0.35290773
      4      C     1.44779458     0.01748769    -0.22080605
      5      O     1.61926317     1.24584404    -0.27627910
      6      H    -0.66558436     1.16199526     0.96299788
      7      H    -1.41825690    -1.48371345     2.38898444
      8      C    -1.19903991    -0.41106759     2.37987249
      9      H    -0.37331988    -0.22575105     3.07346476
     10      H    -2.08101581     0.11792823     2.75315350
     11      H    -1.72784625    -0.08509427     0.31644346
     12      H     2.20564127    -0.66251845    -0.66479518
     13     Al     2.03643433     4.42493039    -0.21086959
     14      F     1.78103970     4.53818550     1.42149244
     15      F     0.77823516     4.73376097    -1.24115489
     16      F     3.58315220     4.37493478    -0.79364701
 
Total System Charge             0.00000
 
 *** GOStep6 ***

 Energy gradients wrt nuclear displacements
 ==========================================

     Atom      Cartesian (a.u./angstrom)
                 X         Y         Z
 ----------------------------------------
     1 H    -0.000090  0.000186  0.000073
     2 C     0.001035  0.000183  0.000708
     3 C    -0.000922 -0.000614 -0.001681
     4 C     0.001516  0.001191  0.005211
     5 O    -0.001343 -0.009797 -0.002218
     6 H    -0.000358 -0.000256 -0.000140
     7 H     0.000050  0.000067 -0.000065
     8 C    -0.000332 -0.000042 -0.000130
     9 H     0.000073  0.000044 -0.000027
    10 H     0.000061 -0.000023 -0.000007
    11 H    -0.000178 -0.000104 -0.000241
    12 H    -0.000403 -0.000444 -0.001920
    13 Al    0.000448  0.000979 -0.000339
    14 F    -0.000215  0.003201  0.003308
    15 F    -0.002101  0.003362 -0.001679
    16 F     0.002757  0.002067 -0.000851
 ----------------------------------------
 Mulliken charges used for AMS results%charges...

 dE(predicted):    -0.95909E-04, dE(actual):    -0.68264E-04, Trust radius:    0.200000, all in a.u.
 
----------------------------------------------------------------------
Geometry Convergence after Step   6       (Hartree/Angstrom,Angstrom)
----------------------------------------------------------------------
current energy                               -3.14661423 Hartree
energy change                      -0.00006826     0.00016000    T
constrained gradient max            0.00980304     0.00100000    F
constrained gradient rms            0.00202809     0.00066667    F
gradient max                        0.00980304
gradient rms                        0.00202809
cart. step max                      0.01927744     0.01000000    F
cart. step rms                      0.00576249     0.00666667    T
 
 
--------
Geometry
--------
Formula: C4H7AlF3O
Atoms
  Index Symbol   x (angstrom)   y (angstrom)   z (angstrom)
      1      H     0.28488908    -1.71058478     0.32332893
      2      C    -0.85058960     0.08576569     0.96305344
      3      C     0.29784962    -0.62007214     0.34927569
      4      C     1.44214162     0.01956261    -0.23052483
      5      O     1.61602296     1.24806675    -0.27973788
      6      H    -0.66698781     1.16341459     0.96262938
      7      H    -1.41280224    -1.48249814     2.39161187
      8      C    -1.19409706    -0.40972946     2.38136435
      9      H    -0.36579582    -0.22401205     3.07175024
     10      H    -2.07485285     0.11886356     2.75809927
     11      H    -1.73033315    -0.08398901     0.32063185
     12      H     2.20480526    -0.65946844    -0.66250004
     13     Al     2.03482523     4.41852740    -0.20958226
     14      F     1.76181261     4.53162289     1.41819747
     15      F     0.79024056     4.72974906    -1.25292397
     16      F     3.58658413     4.37160170    -0.77436957
 
Total System Charge             0.00000
 
 *** GOStep7 ***

 Energy gradients wrt nuclear displacements
 ==========================================

     Atom      Cartesian (a.u./angstrom)
                 X         Y         Z
 ----------------------------------------
     1 H    -0.000024  0.000156 -0.000009
     2 C    -0.000507 -0.000233 -0.000411
     3 C    -0.000493 -0.000428 -0.000306
     4 C     0.001259 -0.000286  0.000394
     5 O    -0.000829 -0.009683 -0.000881
     6 H    -0.000281 -0.000155 -0.000068
     7 H     0.000051  0.000050 -0.000045
     8 C    -0.000204  0.000005 -0.000145
     9 H     0.000052  0.000008  0.000014
    10 H     0.000054 -0.000016 -0.000027
    11 H     0.001106  0.000185  0.000714
    12 H    -0.001103  0.000697  0.000298
    13 Al    0.000435  0.001183 -0.000193
    14 F     0.000108  0.003169  0.001396
    15 F    -0.000633  0.003102 -0.000541
    16 F     0.001009  0.002246 -0.000190
 ----------------------------------------
 Mulliken charges used for AMS results%charges...

 dE(predicted):    -0.66829E-04, dE(actual):    -0.10594E-03, Trust radius:    0.200000, all in a.u.
 
----------------------------------------------------------------------
Geometry Convergence after Step   7       (Hartree/Angstrom,Angstrom)
----------------------------------------------------------------------
current energy                               -3.14672017 Hartree
energy change                      -0.00010594     0.00016000    T
constrained gradient max            0.00968939     0.00100000    F
constrained gradient rms            0.00165745     0.00066667    F
gradient max                        0.00968939
gradient rms                        0.00165745
cart. step max                      0.05400649     0.01000000    F
cart. step rms                      0.01549275     0.00666667    F
 
 
--------
Geometry
--------
Formula: C4H7AlF3O
Atoms
  Index Symbol   x (angstrom)   y (angstrom)   z (angstrom)
      1      H     0.28051431    -1.70180932     0.31384573
      2      C    -0.85031369     0.09353025     0.96684384
      3      C     0.29329278    -0.61112913     0.34239679
      4      C     1.43374083     0.02857705    -0.24490909
      5      O     1.61082823     1.25779882    -0.28121138
      6      H    -0.66175758     1.17062347     0.97361483
      7      H    -1.40619157    -1.48235005     2.39010871
      8      C    -1.18379053    -0.41020747     2.38485416
      9      H    -0.34974587    -0.23194310     3.07018573
     10      H    -2.05988190     0.11871794     2.77197489
     11      H    -1.73319796    -0.06852561     0.33116493
     12      H     2.20012622    -0.64721550    -0.66559944
     13     Al     2.02873470     4.39983831    -0.21045253
     14      F     1.70780612     4.51316149     1.40488636
     15      F     0.81958415     4.70778699    -1.29029455
     16      F     3.59396428     4.35996610    -0.72710504
 
Total System Charge             0.00000
 
 *** GOStep8 ***

 Energy gradients wrt nuclear displacements
 ==========================================

     Atom      Cartesian (a.u./angstrom)
                 X         Y         Z
 ----------------------------------------
     1 H     0.000161 -0.000023 -0.000131
     2 C    -0.003481 -0.000993 -0.002554
     3 C     0.000018  0.000312  0.001562
     4 C     0.002213 -0.003857 -0.006326
     5 O    -0.000487 -0.009130  0.000994
     6 H     0.000048  0.000144  0.000140
     7 H     0.000029 -0.000027  0.000019
     8 C     0.000172  0.000137 -0.000080
     9 H    -0.000024 -0.000075  0.000080
    10 H     0.000013 -0.000009 -0.000037
    11 H     0.003231  0.000629  0.002328
    12 H    -0.002893  0.002855  0.003543
    13 Al    0.000385  0.002525  0.000156
    14 F     0.000905  0.002818 -0.002608
    15 F     0.002384  0.002306  0.001926
    16 F    -0.002675  0.002389  0.000986
 ----------------------------------------
 Mulliken charges used for AMS results%charges...

 dE(predicted):    -0.14629E-03, dE(actual):    -0.23367E-03, Trust radius:    0.400000, all in a.u.
 
----------------------------------------------------------------------
Geometry Convergence after Step   8       (Hartree/Angstrom,Angstrom)
----------------------------------------------------------------------
current energy                               -3.14695384 Hartree
energy change                      -0.00023367     0.00016000    F
constrained gradient max            0.00913538     0.00100000    F
constrained gradient rms            0.00233934     0.00066667    F
gradient max                        0.00913538
gradient rms                        0.00233934
cart. step max                      0.10802289     0.01000000    F
cart. step rms                      0.03297221     0.00666667    F
 
 
--------
Geometry
--------
Formula: C4H7AlF3O
Atoms
  Index Symbol   x (angstrom)   y (angstrom)   z (angstrom)
      1      H     0.27311689    -1.67792567     0.29153100
      2      C    -0.84680302     0.11299889     0.97873357
      3      C     0.28730804    -0.58722612     0.33179825
      4      C     1.42107452     0.05539798    -0.26486944
      5      O     1.60158901     1.28607071    -0.27616600
      6      H    -0.64744072     1.18832844     1.00563697
      7      H    -1.39749421    -1.48524459     2.38017238
      8      C    -1.16602278    -0.41490721     2.39167004
      9      H    -0.32253487    -0.25633220     3.07006278
     10      H    -2.03304544     0.11352700     2.79953571
     11      H    -1.73549175    -0.02964466     0.35216472
     12      H     2.18939976    -0.61297797    -0.68048771
     13     Al     2.01570990     4.35169641    -0.21659986
     14      F     1.59978323     4.47030174     1.37131751
     15      F     0.87890926     4.64987236    -1.36798965
     16      F     3.60565469     4.33288509    -0.63620633
 
Total System Charge             0.00000
 
 *** GOStep9 ***

 Energy gradients wrt nuclear displacements
 ==========================================

     Atom      Cartesian (a.u./angstrom)
                 X         Y         Z
 ----------------------------------------
     1 H     0.000424 -0.000378 -0.000327
     2 C    -0.007706 -0.001831 -0.005625
     3 C     0.000770  0.001530  0.004077
     4 C     0.004069 -0.009429 -0.014997
     5 O    -0.000422 -0.008401  0.003566
     6 H     0.000651  0.000603  0.000473
     7 H    -0.000029 -0.000173  0.000120
     8 C     0.000796  0.000297  0.000126
     9 H    -0.000154 -0.000195  0.000152
    10 H    -0.000071 -0.000001 -0.000027
    11 H     0.005949  0.001081  0.004425
    12 H    -0.005538  0.005677  0.007693
    13 Al    0.000175  0.005338  0.000706
    14 F     0.002693  0.002162 -0.008413
    15 F     0.006503  0.001149  0.005976
    16 F    -0.008110  0.002571  0.002076
 ----------------------------------------
 Mulliken charges used for AMS results%charges...

 dE(predicted):    -0.33606E-03, dE(actual):    -0.53019E-03, Trust radius:    0.800000, all in a.u.
 
----------------------------------------------------------------------
Geometry Convergence after Step   9       (Hartree/Angstrom,Angstrom)
----------------------------------------------------------------------
current energy                               -3.14748403 Hartree
energy change                      -0.00053019     0.00016000    F
constrained gradient max            0.01499875     0.00100000    F
constrained gradient rms            0.00450933     0.00066667    F
gradient max                        0.01499875
gradient rms                        0.00450933
cart. step max                      0.17016884     0.01000000    F
cart. step rms                      0.05848863     0.00666667    F
 
 
--------
Geometry
--------
Formula: C4H7AlF3O
Atoms
  Index Symbol   x (angstrom)   y (angstrom)   z (angstrom)
      1      H     0.26847262    -1.62535220     0.25336241
      2      C    -0.83829528     0.15243619     1.00018660
      3      C     0.28241550    -0.53508997     0.31650644
      4      C     1.40417288     0.11819875    -0.28982964
      5      O     1.58295307     1.35182373    -0.25976018
      6      H    -0.62290591     1.22380523     1.06452548
      7      H    -1.38357033    -1.48865846     2.35578348
      8      C    -1.13837417    -0.42197851     2.39991542
      9      H    -0.28205542    -0.29707991     3.06886321
     10      H    -1.99200352     0.10164757     2.84119108
     11      H    -1.73528399     0.04220680     0.38525596
     12      H     2.17653412    -0.53443789    -0.70655374
     13     Al     1.99056181     4.24489952    -0.22818906
     14      F     1.42961439     4.36836679     1.30656415
     15      F     0.97370171     4.52069887    -1.48291675
     16      F     3.60777503     4.27533371    -0.49460092
 
Total System Charge             0.00000
 
 *** GOStep10 ***

 Energy gradients wrt nuclear displacements
 ==========================================

     Atom      Cartesian (a.u./angstrom)
                 X         Y         Z
 ----------------------------------------
     1 H     0.000763 -0.000982 -0.000608
     2 C    -0.013198 -0.002439 -0.009514
     3 C     0.001910  0.003254  0.007310
     4 C     0.006441 -0.017822 -0.026185
     5 O    -0.000874 -0.006760  0.007295
     6 H     0.001660  0.001249  0.001006
     7 H    -0.000157 -0.000416  0.000260
     8 C     0.001777  0.000441  0.000539
     9 H    -0.000380 -0.000361  0.000208
    10 H    -0.000239  0.000013  0.000029
    11 H     0.008971  0.001336  0.006792
    12 H    -0.008844  0.008691  0.012841
    13 Al   -0.000425  0.012232  0.001482
    14 F     0.006717  0.000336 -0.016916
    15 F     0.011777 -0.000958  0.013197
    16 F    -0.015898  0.002185  0.002263
 ----------------------------------------
 Mulliken charges used for AMS results%charges...

 dE(predicted):    -0.10801E-02, dE(actual):    -0.13933E-02, Trust radius:    1.000000, all in a.u.
 
----------------------------------------------------------------------
Geometry Convergence after Step  10       (Hartree/Angstrom,Angstrom)
----------------------------------------------------------------------
current energy                               -3.14887733 Hartree
energy change                      -0.00139329     0.00016000    F
constrained gradient max            0.02618500     0.00100000    F
constrained gradient rms            0.00790722     0.00066667    F
gradient max                        0.02618500
gradient rms                        0.00790722
cart. step max                      0.18866082     0.01000000    F
cart. step rms                      0.06417474     0.00666667    F
 
 
--------
Geometry
--------
Formula: C4H7AlF3O
Atoms
  Index Symbol   x (angstrom)   y (angstrom)   z (angstrom)
      1      H     0.27945596    -1.55767604     0.21908190
      2      C    -0.82559355     0.20467713     1.01409969
      3      C     0.28796331    -0.46770485     0.30242743
      4      C     1.39706074     0.20093584    -0.30727007
      5      O     1.56310432     1.44041878    -0.23551108
      6      H    -0.59309612     1.27058894     1.11594714
      7      H    -1.36977792    -1.47751845     2.32294074
      8      C    -1.11176494    -0.41522912     2.39855231
      9      H    -0.24597962    -0.32159905     3.05981849
     10      H    -1.95413592     0.10160504     2.86912636
     11      H    -1.72930070     0.12476861     0.40689353
     12      H     2.18162552    -0.43046664    -0.72266099
     13     Al     1.95231252     4.10825330    -0.23004651
     14      F     1.28745467     4.19260457     1.25409059
     15      F     1.02847226     4.33203806    -1.55200089
     16      F     3.57591200     4.19112412    -0.38518470
 
Total System Charge             0.00000
 
 *** GOStep11 ***

 Energy gradients wrt nuclear displacements
 ==========================================

     Atom      Cartesian (a.u./angstrom)
                 X         Y         Z
 ----------------------------------------
     1 H     0.001095 -0.002031 -0.000922
     2 C    -0.017772 -0.002466 -0.012808
     3 C     0.003518  0.005196  0.010630
     4 C     0.007249 -0.029842 -0.036283
     5 O    -0.001576 -0.000256  0.011668
     6 H     0.003320  0.002167  0.001729
     7 H    -0.000362 -0.000793  0.000444
     8 C     0.003266  0.000597  0.001192
     9 H    -0.000713 -0.000530  0.000194
    10 H    -0.000516  0.000038  0.000190
    11 H     0.009717  0.001224  0.007855
    12 H    -0.010714  0.009958  0.016673
    13 Al   -0.003201  0.028967  0.002537
    14 F     0.013408 -0.004927 -0.029807
    15 F     0.018947 -0.006145  0.025144
    16 F    -0.025668 -0.001157  0.001565
 ----------------------------------------
 Mulliken charges used for AMS results%charges...
 Rebuilding optimization coordinates

 dE(predicted):    -0.20064E-02, dE(actual):    -0.21049E-02, Trust radius:    1.000000, all in a.u.
 
----------------------------------------------------------------------
Geometry Convergence after Step  11       (Hartree/Angstrom,Angstrom)
----------------------------------------------------------------------
current energy                               -3.15098222 Hartree
energy change                      -0.00210489     0.00016000    F
constrained gradient max            0.03628425     0.00100000    F
constrained gradient rms            0.01238734     0.00066667    F
gradient max                        0.03628425
gradient rms                        0.01238734
cart. step max                      0.19955422     0.01000000    F
cart. step rms                      0.06247948     0.00666667    F
 
 
--------
Geometry
--------
Formula: C4H7AlF3O
Atoms
  Index Symbol   x (angstrom)   y (angstrom)   z (angstrom)
      1      H     0.30250304    -1.48267517     0.19198839
      2      C    -0.81546075     0.25875413     1.02284661
      3      C     0.29961997    -0.39307469     0.29282337
      4      C     1.39814147     0.29226278    -0.31390650
      5      O     1.54611876     1.53852228    -0.20399079
      6      H    -0.57275079     1.31932010     1.16156520
      7      H    -1.35662487    -1.46539446     2.28229393
      8      C    -1.09321301    -0.40668050     2.38946625
      9      H    -0.22345666    -0.33747162     3.04786604
     10      H    -1.93096997     0.09710504     2.88252051
     11      H    -1.72147715     0.20173840     0.41871950
     12      H     2.19980391    -0.31675967    -0.71831553
     13     Al     1.91446823     3.95237427    -0.23091093
     14      F     1.20234903     4.00084242     1.21968002
     15      F     1.04318480     4.13248384    -1.58032522
     16      F     3.53147651     4.10547307    -0.33201691
 
Total System Charge             0.00000
 
 *** GOStep12 ***

 Energy gradients wrt nuclear displacements
 ==========================================

     Atom      Cartesian (a.u./angstrom)
                 X         Y         Z
 ----------------------------------------
     1 H     0.001378 -0.003152 -0.001245
     2 C    -0.022598 -0.002383 -0.016111
     3 C     0.004993  0.006822  0.014093
     4 C     0.008384 -0.042970 -0.046428
     5 O    -0.002672  0.009200  0.017041
     6 H     0.005069  0.003108  0.002535
     7 H    -0.000604 -0.001262  0.000668
     8 C     0.004833  0.000744  0.001878
     9 H    -0.001106 -0.000744  0.000179
    10 H    -0.000863  0.000011  0.000430
    11 H     0.010148  0.001051  0.008964
    12 H    -0.013085  0.010931  0.020270
    13 Al   -0.008452  0.049335  0.002719
    14 F     0.022330 -0.012651 -0.047561
    15 F     0.028421 -0.012484  0.041718
    16 F    -0.036175 -0.005558  0.000850
 ----------------------------------------
 Mulliken charges used for AMS results%charges...

 dE(predicted):    -0.21463E-02, dE(actual):    -0.21717E-02, Trust radius:    1.000000, all in a.u.
 
----------------------------------------------------------------------
Geometry Convergence after Step  12       (Hartree/Angstrom,Angstrom)
----------------------------------------------------------------------
current energy                               -3.15315396 Hartree
energy change                      -0.00217174     0.00016000    F
constrained gradient max            0.04933810     0.00100000    F
constrained gradient rms            0.01822992     0.00066667    F
gradient max                        0.04933810
gradient rms                        0.01822992
cart. step max                      0.18013306     0.01000000    F
cart. step rms                      0.06847417     0.00666667    F
 
 
--------
Geometry
--------
Formula: C4H7AlF3O
Atoms
  Index Symbol   x (angstrom)   y (angstrom)   z (angstrom)
      1      H     0.31187988    -1.40766129     0.15305439
      2      C    -0.80912433     0.30414885     1.04644359
      3      C     0.29740931    -0.32002017     0.27979738
      4      C     1.37637384     0.38712175    -0.33432823
      5      O     1.49409827     1.63815280    -0.16420505
      6      H    -0.55479827     1.35625015     1.22936106
      7      H    -1.33602210    -1.47007009     2.24449830
      8      C    -1.06420217    -0.41774180     2.38991726
      9      H    -0.18330404    -0.38002522     3.03544716
     10      H    -1.89063984     0.06902384     2.91817853
     11      H    -1.72011608     0.27626879     0.45788199
     12      H     2.19143702    -0.19460547    -0.72676258
     13     Al     1.89166438     3.79174012    -0.24699256
     14      F     1.05845639     3.89184091     1.12166504
     15      F     1.16472714     3.95235078    -1.66515707
     16      F     3.49587313     4.02004628    -0.20849527
 
Total System Charge             0.00000
 
 *** GOStep13 ***

 Energy gradients wrt nuclear displacements
 ==========================================

     Atom      Cartesian (a.u./angstrom)
                 X         Y         Z
 ----------------------------------------
     1 H     0.001890 -0.003805 -0.001865
     2 C    -0.031539 -0.002484 -0.021924
     3 C     0.005930  0.009177  0.019371
     4 C     0.017232 -0.056206 -0.065297
     5 O    -0.007710  0.022910  0.026523
     6 H     0.006637  0.003680  0.003680
     7 H    -0.000715 -0.001589  0.000688
     8 C     0.006256  0.001329  0.002349
     9 H    -0.001378 -0.000986  0.000243
    10 H    -0.001090 -0.000048  0.000625
    11 H     0.015307  0.000920  0.012739
    12 H    -0.020910  0.013144  0.027648
    13 Al   -0.014381  0.065361 -0.003740
    14 F     0.037463 -0.024731 -0.066001
    15 F     0.036628 -0.018156  0.068233
    16 F    -0.049620 -0.008514 -0.003271
 ----------------------------------------
 Mulliken charges used for AMS results%charges...

 dE(predicted):    -0.15139E-02, dE(actual):    -0.91711E-03, Trust radius:    1.000000, all in a.u.
 
----------------------------------------------------------------------
Geometry Convergence after Step  13       (Hartree/Angstrom,Angstrom)
----------------------------------------------------------------------
current energy                               -3.15407107 Hartree
energy change                      -0.00091711     0.00016000    F
constrained gradient max            0.06823501     0.00100000    F
constrained gradient rms            0.02607639     0.00066667    F
gradient max                        0.06823501
gradient rms                        0.02607639
cart. step max                      0.21162538     0.01000000    F
cart. step rms                      0.05958918     0.00666667    F
 
 
--------
Geometry
--------
Formula: C4H7AlF3O
Atoms
  Index Symbol   x (angstrom)   y (angstrom)   z (angstrom)
      1      H     0.34613007    -1.39255092     0.15894783
      2      C    -0.80552325     0.31865052     1.01769729
      3      C     0.31598928    -0.30416695     0.27726803
      4      C     1.40043300     0.39321943    -0.32829890
      5      O     1.50282910     1.63545685    -0.11099956
      6      H    -0.56097988     1.37331564     1.20183644
      7      H    -1.33903330    -1.45398571     2.21794846
      8      C    -1.07618454    -0.39930463     2.36222973
      9      H    -0.20807358    -0.35114092     3.02386841
     10      H    -1.91552262     0.08632366     2.87012133
     11      H    -1.69799874     0.27957933     0.41837829
     12      H     2.23753323    -0.17560267    -0.64904268
     13     Al     1.86892063     3.58011474    -0.22910409
     14      F     1.21568038     3.91696163     1.22688970
     15      F     1.01045580     3.95805857    -1.56330286
     16      F     3.42905693     4.03189167    -0.36413347
 
Total System Charge             0.00000
 
 *** GOStep14 ***

 Energy gradients wrt nuclear displacements
 ==========================================

     Atom      Cartesian (a.u./angstrom)
                 X         Y         Z
 ----------------------------------------
     1 H     0.003963 -0.003432 -0.002673
     2 C    -0.042260 -0.003697 -0.030367
     3 C     0.009155  0.017971  0.024370
     4 C     0.032640 -0.048843 -0.085364
     5 O    -0.012899 -0.001914  0.033981
     6 H     0.007316  0.004216  0.004047
     7 H    -0.000733 -0.001735  0.000743
     8 C     0.006959  0.001944  0.002661
     9 H    -0.001476 -0.001345  0.000635
    10 H    -0.001151 -0.000103  0.000501
    11 H     0.024869  0.001694  0.019522
    12 H    -0.034959  0.020614  0.037546
    13 Al    0.004960  0.027699 -0.001421
    14 F     0.022312 -0.011191 -0.046509
    15 F     0.030737 -0.004063  0.039789
    16 F    -0.049432  0.002184  0.002537
 ----------------------------------------
 Mulliken charges used for AMS results%charges...
 Rebuilding optimization coordinates

 dE(predicted):    -0.90496E-02, dE(actual):    -0.58039E-02, Trust radius:    1.000000, all in a.u.
 Residual max backtransformation error   0.1483E+01
 
----------------------------------------------------------------------
Geometry Convergence after Step  14       (Hartree/Angstrom,Angstrom)
----------------------------------------------------------------------
current energy                               -3.15987501 Hartree
energy change                      -0.00580394     0.00016000    F
constrained gradient max            0.08536719     0.00100000    F
constrained gradient rms            0.02441626     0.00066667    F
gradient max                        0.08536719
gradient rms                        0.02441626
cart. step max                      0.20313179     0.01000000    F
cart. step rms                      0.06197167     0.00666667    F
 
 
--------
Geometry
--------
Formula: C4H7AlF3O
Atoms
  Index Symbol   x (angstrom)   y (angstrom)   z (angstrom)
      1      H     0.37806891    -1.40340228     0.19182981
      2      C    -0.80272550     0.31915568     0.98547129
      3      C     0.34081369    -0.31295787     0.28779551
      4      C     1.43790517     0.37688370    -0.30126392
      5      O     1.55328755     1.61988957    -0.11883593
      6      H    -0.57021116     1.37967909     1.15003829
      7      H    -1.35306043    -1.43060071     2.21278815
      8      C    -1.10226366    -0.37065518     2.33911620
      9      H    -0.25174288    -0.29935724     3.02106456
     10      H    -1.95830576     0.11940658     2.81388526
     11      H    -1.68280667     0.25829606     0.36313580
     12      H     2.28629798    -0.19566718    -0.60077881
     13     Al     1.85693844     3.57475798    -0.20753116
     14      F     1.39831623     3.84938280     1.33631066
     15      F     0.80732401     3.96454741    -1.40388804
     16      F     3.38587661     4.04746183    -0.53883373
 
Total System Charge             0.00000
 
 *** GOStep15 ***

 Energy gradients wrt nuclear displacements
 ==========================================

     Atom      Cartesian (a.u./angstrom)
                 X         Y         Z
 ----------------------------------------
     1 H     0.003781 -0.003943 -0.002207
     2 C    -0.037536 -0.003656 -0.028440
     3 C     0.009907  0.016415  0.022408
     4 C     0.023121 -0.042362 -0.075797
     5 O    -0.008385 -0.006549  0.030641
     6 H     0.007304  0.004405  0.003776
     7 H    -0.000812 -0.001849  0.000930
     8 C     0.006939  0.001375  0.002869
     9 H    -0.001508 -0.001309  0.000574
    10 H    -0.001183 -0.000064  0.000428
    11 H     0.020305  0.001854  0.017243
    12 H    -0.029299  0.020487  0.033640
    13 Al    0.005525  0.025850  0.002599
    14 F     0.014886 -0.008769 -0.045526
    15 F     0.029123 -0.003598  0.028492
    16 F    -0.042169  0.001712  0.008371
 ----------------------------------------
 Mulliken charges used for AMS results%charges...

 dE(predicted):    -0.66388E-02, dE(actual):    -0.22294E-02, Trust radius:    1.000000, all in a.u.
 Residual max backtransformation error   0.8498E+00
 
----------------------------------------------------------------------
Geometry Convergence after Step  15       (Hartree/Angstrom,Angstrom)
----------------------------------------------------------------------
current energy                               -3.16210445 Hartree
energy change                      -0.00222943     0.00016000    F
constrained gradient max            0.07580002     0.00100000    F
constrained gradient rms            0.02147755     0.00066667    F
gradient max                        0.07580002
gradient rms                        0.02147755
cart. step max                      0.20630225     0.01000000    F
cart. step rms                      0.06540843     0.00666667    F
 
 
--------
Geometry
--------
Formula: C4H7AlF3O
Atoms
  Index Symbol   x (angstrom)   y (angstrom)   z (angstrom)
      1      H     0.41467102    -1.40959497     0.22814324
      2      C    -0.80053972     0.32026907     0.95074346
      3      C     0.36663102    -0.31758282     0.29888858
      4      C     1.47383623     0.36769758    -0.27411379
      5      O     1.59619309     1.61194831    -0.12711894
      6      H    -0.58297380     1.38700862     1.09368230
      7      H    -1.36422121    -1.40527847     2.20715364
      8      C    -1.12843907    -0.33964638     2.31322589
      9      H    -0.29707187    -0.24088837     3.01493609
     10      H    -2.00225015     0.15211438     2.75265614
     11      H    -1.66630457     0.23333102     0.30584768
     12      H     2.33565112    -0.20497928    -0.54885607
     13     Al     1.84486807     3.55730490    -0.18290830
     14      F     1.60461847     3.77359635     1.42053136
     15      F     0.61901445     3.95144523    -1.20645007
     16      F     3.31002944     4.06007507    -0.71605725
 
Total System Charge             0.00000
 
 *** GOStep16 ***

 Energy gradients wrt nuclear displacements
 ==========================================

     Atom      Cartesian (a.u./angstrom)
                 X         Y         Z
 ----------------------------------------
     1 H     0.003640 -0.004380 -0.001734
     2 C    -0.033579 -0.003736 -0.026917
     3 C     0.010485  0.014959  0.020667
     4 C     0.014849 -0.036746 -0.067737
     5 O    -0.004483 -0.007092  0.027751
     6 H     0.007450  0.004632  0.003754
     7 H    -0.000894 -0.001941  0.001060
     8 C     0.006930  0.001043  0.003132
     9 H    -0.001559 -0.001260  0.000506
    10 H    -0.001224 -0.000041  0.000390
    11 H     0.016336  0.001917  0.015148
    12 H    -0.024373  0.020527  0.030268
    13 Al    0.006550  0.022537  0.005904
    14 F     0.008082 -0.007345 -0.045135
    15 F     0.027312 -0.004038  0.020049
    16 F    -0.035521  0.000965  0.012894
 ----------------------------------------
 Mulliken charges used for AMS results%charges...

 dE(predicted):    -0.49723E-02, dE(actual):    -0.17567E-02, Trust radius:    1.000000, all in a.u.
 Residual max backtransformation error   0.6419E+00
 Residual max backtransformation error   0.1512E+00
 Residual max backtransformation error   0.2518E-02
 
----------------------------------------------------------------------
Geometry Convergence after Step  16       (Hartree/Angstrom,Angstrom)
----------------------------------------------------------------------
current energy                               -3.16386114 Hartree
energy change                      -0.00175669     0.00016000    F
constrained gradient max            0.06774237     0.00100000    F
constrained gradient rms            0.01914328     0.00066667    F
gradient max                        0.06774237
gradient rms                        0.01914328
cart. step max                      0.20600989     0.01000000    F
cart. step rms                      0.06301262     0.00666667    F
 
 
--------
Geometry
--------
Formula: C4H7AlF3O
Atoms
  Index Symbol   x (angstrom)   y (angstrom)   z (angstrom)
      1      H     0.43558108    -1.43933128     0.27392252
      2      C    -0.79795930     0.29773573     0.92932251
      3      C     0.38706769    -0.34749824     0.32118371
      4      C     1.50791916     0.32836784    -0.23720608
      5      O     1.63431472     1.57213167    -0.17612634
      6      H    -0.60640475     1.37138850     1.04054899
      7      H    -1.38124540    -1.39736043     2.21394681
      8      C    -1.16425839    -0.32633695     2.29795097
      9      H    -0.35683949    -0.19417781     3.02214045
     10      H    -2.05828459     0.16623141     2.69284188
     11      H    -1.64650911     0.17771484     0.25833785
     12      H     2.36750293    -0.25814772    -0.52788579
     13     Al     1.85278886     3.62410604    -0.16271934
     14      F     1.81062836     3.81096710     1.47781917
     15      F     0.47807700     4.02505265    -1.01092710
     16      F     3.26133376     4.08597690    -0.88284628
 
Total System Charge             0.00000
 
 *** GOStep17 ***

 Energy gradients wrt nuclear displacements
 ==========================================

     Atom      Cartesian (a.u./angstrom)
                 X         Y         Z
 ----------------------------------------
     1 H     0.002777 -0.003062 -0.001438
     2 C    -0.023855 -0.002691 -0.020960
     3 C     0.008024  0.011982  0.014094
     4 C     0.005611 -0.024722 -0.044843
     5 O    -0.003715 -0.029559  0.015667
     6 H     0.005392  0.003217  0.003002
     7 H    -0.000782 -0.001448  0.000785
     8 C     0.005092  0.000017  0.003244
     9 H    -0.001173 -0.000777  0.000230
    10 H    -0.000938  0.000054  0.000097
    11 H     0.011724  0.001574  0.011469
    12 H    -0.014719  0.017056  0.021225
    13 Al    0.016084  0.023302  0.004742
    14 F     0.001709 -0.000114 -0.022180
    15 F     0.008388  0.001332  0.004170
    16 F    -0.019621  0.003839  0.010697
 ----------------------------------------
 Mulliken charges used for AMS results%charges...
 Rebuilding optimization coordinates
Bad geometry: added dihedral    12    4   13   14
Bad geometry: added dihedral    15   13    4   12
Bad geometry: added dihedral    16   13    4   12

 dE(predicted):    -0.11329E-01, dE(actual):    -0.28021E-02, Trust radius:    1.000000, all in a.u.
 
----------------------------------------------------------------------
Geometry Convergence after Step  17       (Hartree/Angstrom,Angstrom)
----------------------------------------------------------------------
current energy                               -3.16666323 Hartree
energy change                      -0.00280210     0.00016000    F
constrained gradient max            0.04484063     0.00100000    F
constrained gradient rms            0.01328479     0.00066667    F
gradient max                        0.04484242
gradient rms                        0.01328479
cart. step max                      0.21574551     0.01000000    F
cart. step rms                      0.06521011     0.00666667    F
 
 
--------
Geometry
--------
Formula: C4H7AlF3O
Atoms
  Index Symbol   x (angstrom)   y (angstrom)   z (angstrom)
      1      H     0.44639263    -1.40664805     0.25584100
      2      C    -0.79906253     0.30447276     0.94667435
      3      C     0.40072240    -0.31820068     0.34588461
      4      C     1.53832735     0.37498357    -0.15471538
      5      O     1.66551321     1.61820251    -0.07438923
      6      H    -0.61651307     1.37277791     1.10455898
      7      H    -1.42476999    -1.44093135     2.13863808
      8      C    -1.21191501    -0.37478164     2.27484891
      9      H    -0.42871298    -0.27202700     3.02983745
     10      H    -2.11886413     0.10234602     2.65862266
     11      H    -1.62701338     0.21152985     0.24243386
     12      H     2.39823554    -0.20481938    -0.47288552
     13     Al     1.87696071     3.62426039    -0.19303073
     14      F     2.01264437     3.91756265     1.43165006
     15      F     0.40838983     3.97591375    -0.90507336
     16      F     3.20337759     4.01217891    -1.09859179
 
Total System Charge             0.00000
 
 *** GOStep18 ***

 Energy gradients wrt nuclear displacements
 ==========================================

     Atom      Cartesian (a.u./angstrom)
                 X         Y         Z
 ----------------------------------------
     1 H     0.002223 -0.002314 -0.001238
     2 C    -0.019445 -0.000926 -0.018708
     3 C     0.005408  0.008203  0.010779
     4 C     0.002074 -0.020815 -0.033211
     5 O    -0.000372 -0.021628  0.012813
     6 H     0.004178  0.001904  0.003132
     7 H    -0.000748 -0.001187  0.000414
     8 C     0.004147 -0.000494  0.003530
     9 H    -0.001006 -0.000445 -0.000053
    10 H    -0.000825  0.000090  0.000038
    11 H     0.009580  0.000766  0.010133
    12 H    -0.010764  0.013915  0.016746
    13 Al    0.015814  0.020808 -0.000331
    14 F    -0.000792 -0.002054 -0.017068
    15 F     0.005186  0.000343  0.002447
    16 F    -0.014659  0.003833  0.010579
 ----------------------------------------
 Mulliken charges used for AMS results%charges...

 dE(predicted):    -0.10254E-01, dE(actual):    -0.26349E-02, Trust radius:    1.000000, all in a.u.
 
----------------------------------------------------------------------
Geometry Convergence after Step  18       (Hartree/Angstrom,Angstrom)
----------------------------------------------------------------------
current energy                               -3.16929814 Hartree
energy change                      -0.00263490     0.00016000    F
constrained gradient max            0.03320996     0.00100000    F
constrained gradient rms            0.01053731     0.00066667    F
gradient max                        0.03320996
gradient rms                        0.01053731
cart. step max                      0.21762123     0.01000000    F
cart. step rms                      0.07223679     0.00666667    F
 
 
--------
Geometry
--------
Formula: C4H7AlF3O
Atoms
  Index Symbol   x (angstrom)   y (angstrom)   z (angstrom)
      1      H     0.46156560    -1.37047001     0.23804615
      2      C    -0.79139683     0.31943737     0.95848077
      3      C     0.42222696    -0.28703089     0.37119052
      4      C     1.57944598     0.41605080    -0.06626212
      5      O     1.71369311     1.65703407     0.03714295
      6      H    -0.61523940     1.38007930     1.16176259
      7      H    -1.46961546    -1.46837044     2.05270466
      8      C    -1.25845427    -0.41015437     2.24086118
      9      H    -0.50350611    -0.34110709     3.02788450
     10      H    -2.17727784     0.05671285     2.60815762
     11      H    -1.59516688     0.25819693     0.21910947
     12      H     2.43892903    -0.15863221    -0.41005415
     13     Al     1.88512185     3.60639669    -0.21256351
     14      F     2.22792076     4.01327644     1.36185866
     15      F     0.32408283     3.90746884    -0.74180234
     16      F     3.08138319     3.91793196    -1.31621302
 
Total System Charge             0.00000
 
 *** GOStep19 ***

 Energy gradients wrt nuclear displacements
 ==========================================

     Atom      Cartesian (a.u./angstrom)
                 X         Y         Z
 ----------------------------------------
     1 H     0.001648 -0.001541 -0.001014
     2 C    -0.014921  0.000543 -0.015920
     3 C     0.003519  0.004875  0.007129
     4 C    -0.001596 -0.015559 -0.021544
     5 O     0.002254 -0.013001  0.009964
     6 H     0.003092  0.000751  0.003107
     7 H    -0.000678 -0.000867  0.000076
     8 C     0.003170 -0.000919  0.003728
     9 H    -0.000814 -0.000118 -0.000283
    10 H    -0.000717  0.000112  0.000011
    11 H     0.007205  0.000070  0.008420
    12 H    -0.006593  0.011054  0.012051
    13 Al    0.014686  0.015031 -0.005615
    14 F    -0.002315 -0.003282 -0.011299
    15 F     0.001681 -0.000876  0.001589
    16 F    -0.009622  0.003728  0.009601
 ----------------------------------------
 Mulliken charges used for AMS results%charges...

 dE(predicted):    -0.63970E-02, dE(actual):    -0.19214E-02, Trust radius:    1.000000, all in a.u.
 
----------------------------------------------------------------------
Geometry Convergence after Step  19       (Hartree/Angstrom,Angstrom)
----------------------------------------------------------------------
current energy                               -3.17121956 Hartree
energy change                      -0.00192142     0.00016000    F
constrained gradient max            0.02154402     0.00100000    F
constrained gradient rms            0.00771108     0.00066667    F
gradient max                        0.02154402
gradient rms                        0.00771108
cart. step max                      0.21261176     0.01000000    F
cart. step rms                      0.06308373     0.00666667    F
 
 
--------
Geometry
--------
Formula: C4H7AlF3O
Atoms
  Index Symbol   x (angstrom)   y (angstrom)   z (angstrom)
      1      H     0.49498315    -1.35302818     0.25131235
      2      C    -0.74545348     0.34739364     0.95074136
      3      C     0.47179983    -0.27212874     0.39367599
      4      C     1.63923356     0.42599319    -0.02302769
      5      O     1.74657614     1.67757769     0.07269416
      6      H    -0.58291635     1.41047075     1.14212745
      7      H    -1.48934110    -1.43115048     2.00984446
      8      C    -1.27919498    -0.37552531     2.20792637
      9      H    -0.55856856    -0.31193417     3.02768207
     10      H    -2.20819051     0.10169702     2.53161883
     11      H    -1.52198342     0.28834268     0.17239313
     12      H     2.47307350    -0.15545893    -0.44163182
     13     Al     1.83498608     3.52632985    -0.17321994
     14      F     2.33252390     3.99587764     1.35816711
     15      F     0.21523583     3.80029504    -0.52919058
     16      F     2.90094895     3.82206853    -1.42080931
 
Total System Charge             0.00000
 
 *** GOStep20 ***

 Energy gradients wrt nuclear displacements
 ==========================================

     Atom      Cartesian (a.u./angstrom)
                 X         Y         Z
 ----------------------------------------
     1 H     0.000552  0.000515 -0.000860
     2 C    -0.004513  0.001433 -0.007359
     3 C    -0.001525  0.001930  0.002458
     4 C     0.005716 -0.020069 -0.005055
     5 O    -0.004331  0.030728  0.004067
     6 H     0.000727  0.000045  0.000887
     7 H    -0.000141  0.000098 -0.000188
     8 C     0.000389 -0.001526  0.002515
     9 H    -0.000134  0.000127 -0.000268
    10 H    -0.000169  0.000138 -0.000197
    11 H     0.002898  0.000175  0.003798
    12 H    -0.001771 -0.001252  0.001179
    13 Al    0.005139 -0.009438 -0.008211
    14 F    -0.000403 -0.001123  0.000766
    15 F     0.001135 -0.003487  0.001931
    16 F    -0.003568  0.001706  0.004538
 ----------------------------------------
 Mulliken charges used for AMS results%charges...

 dE(predicted):    -0.18244E-02, dE(actual):    -0.13526E-02, Trust radius:    1.000000, all in a.u.
 
----------------------------------------------------------------------
Geometry Convergence after Step  20       (Hartree/Angstrom,Angstrom)
----------------------------------------------------------------------
current energy                               -3.17257220 Hartree
energy change                      -0.00135264     0.00016000    F
constrained gradient max            0.03071996     0.00100000    F
constrained gradient rms            0.00613757     0.00066667    F
gradient max                        0.03071996
gradient rms                        0.00613757
cart. step max                      0.13651731     0.01000000    F
cart. step rms                      0.04077062     0.00666667    F
 
 
--------
Geometry
--------
Formula: C4H7AlF3O
Atoms
  Index Symbol   x (angstrom)   y (angstrom)   z (angstrom)
      1      H     0.47074701    -1.33549302     0.20852306
      2      C    -0.75303944     0.34174118     0.98265195
      3      C     0.45676994    -0.26112930     0.39355988
      4      C     1.62855344     0.44861023     0.00782623
      5      O     1.76085142     1.68256113     0.15550419
      6      H    -0.58994574     1.39783834     1.20671435
      7      H    -1.50365220    -1.46899038     1.97647697
      8      C    -1.28995578    -0.42198927     2.21204651
      9      H    -0.56825633    -0.39144898     3.03314189
     10      H    -2.21646153     0.04683277     2.55403417
     11      H    -1.53283662     0.31350187     0.20135190
     12      H     2.44622980    -0.12183945    -0.46120122
     13     Al     1.86571006     3.56928777    -0.19861790
     14      F     2.33180133     4.13239495     1.31093443
     15      F     0.25298713     3.82484304    -0.60650878
     16      F     2.96421004     3.74009935    -1.44613370
 
Total System Charge             0.00000
 
 *** GOStep21 ***

 Energy gradients wrt nuclear displacements
 ==========================================

     Atom      Cartesian (a.u./angstrom)
                 X         Y         Z
 ----------------------------------------
     1 H     0.000071  0.000378 -0.000096
     2 C    -0.000128  0.001386 -0.002227
     3 C    -0.000228  0.001554 -0.001806
     4 C     0.000580  0.000371  0.004314
     5 O    -0.001133 -0.006375  0.001009
     6 H    -0.000380 -0.000465 -0.000147
     7 H     0.000026  0.000275 -0.000158
     8 C    -0.000527 -0.001358  0.001443
     9 H     0.000038  0.000193 -0.000203
    10 H     0.000051  0.000128 -0.000171
    11 H     0.001093  0.000026  0.001346
    12 H    -0.000782  0.000275 -0.000883
    13 Al    0.005262  0.002745 -0.008128
    14 F    -0.000013  0.000511  0.003977
    15 F    -0.003333 -0.001277  0.001031
    16 F    -0.000594  0.001633  0.000698
 ----------------------------------------
 Mulliken charges used for AMS results%charges...

 dE(predicted):    -0.57351E-03, dE(actual):    -0.46895E-03, Trust radius:    1.000000, all in a.u.
 
----------------------------------------------------------------------
Geometry Convergence after Step  21       (Hartree/Angstrom,Angstrom)
----------------------------------------------------------------------
current energy                               -3.17304115 Hartree
energy change                      -0.00046895     0.00016000    F
constrained gradient max            0.00813271     0.00100000    F
constrained gradient rms            0.00213488     0.00066667    F
gradient max                        0.00813271
gradient rms                        0.00213488
cart. step max                      0.17050012     0.01000000    F
cart. step rms                      0.05002309     0.00666667    F
 
 
--------
Geometry
--------
Formula: C4H7AlF3O
Atoms
  Index Symbol   x (angstrom)   y (angstrom)   z (angstrom)
      1      H     0.45462105    -1.34011309     0.20609027
      2      C    -0.76405828     0.33198569     0.99712154
      3      C     0.43565819    -0.26399948     0.38130325
      4      C     1.59180810     0.45365196    -0.03999671
      5      O     1.71863660     1.69002680     0.09918746
      6      H    -0.60328163     1.39033065     1.21297297
      7      H    -1.47970596    -1.47884998     2.01494571
      8      C    -1.26739392    -0.42934798     2.24088340
      9      H    -0.52735916    -0.39157231     3.04533485
     10      H    -2.18863905     0.03468504     2.60291819
     11      H    -1.56096644     0.29540169     0.23353192
     12      H     2.40582890    -0.11715245    -0.51238516
     13     Al     1.87992607     3.57698685    -0.20406171
     14      F     2.19331014     4.10725824     1.35404903
     15      F     0.32953048     3.87518705    -0.77700890
     16      F     3.10579746     3.76234156    -1.32458218
 
Total System Charge             0.00000
 
 *** GOStep22 ***

 Energy gradients wrt nuclear displacements
 ==========================================

     Atom      Cartesian (a.u./angstrom)
                 X         Y         Z
 ----------------------------------------
     1 H    -0.000195  0.000052  0.000027
     2 C    -0.000098  0.000790 -0.001441
     3 C    -0.001264  0.000440 -0.000746
     4 C     0.001087 -0.000762  0.000526
     5 O     0.001010 -0.002929  0.000869
     6 H    -0.000499 -0.000500 -0.000318
     7 H     0.000063  0.000158 -0.000035
     8 C    -0.000469 -0.000869  0.000790
     9 H     0.000059  0.000062 -0.000066
    10 H     0.000101  0.000104 -0.000122
    11 H     0.001307  0.000036  0.001321
    12 H    -0.001458 -0.000026  0.000749
    13 Al    0.002959  0.001711 -0.004439
    14 F    -0.000798  0.000358  0.001466
    15 F    -0.000579 -0.000396  0.000813
    16 F    -0.001225  0.001773  0.000607
 ----------------------------------------
 Mulliken charges used for AMS results%charges...

 dE(predicted):    -0.14163E-03, dE(actual):    -0.21750E-03, Trust radius:    1.000000, all in a.u.
 
----------------------------------------------------------------------
Geometry Convergence after Step  22       (Hartree/Angstrom,Angstrom)
----------------------------------------------------------------------
current energy                               -3.17325865 Hartree
energy change                      -0.00021750     0.00016000    F
constrained gradient max            0.00441806     0.00100000    F
constrained gradient rms            0.00117596     0.00066667    F
gradient max                        0.00441806
gradient rms                        0.00117596
cart. step max                      0.21907010     0.01000000    F
cart. step rms                      0.06176650     0.00666667    F
 
 
--------
Geometry
--------
Formula: C4H7AlF3O
Atoms
  Index Symbol   x (angstrom)   y (angstrom)   z (angstrom)
      1      H     0.42808741    -1.32715840     0.17927375
      2      C    -0.77510705     0.32619100     1.02965528
      3      C     0.40850183    -0.25357224     0.36927486
      4      C     1.54652235     0.47857362    -0.07824312
      5      O     1.67350079     1.71124699     0.07533672
      6      H    -0.61173832     1.38145189     1.25955738
      7      H    -1.46029052    -1.50332694     2.03235366
      8      C    -1.24454630    -0.45727847     2.27100716
      9      H    -0.48410691    -0.43280294     3.05696151
     10      H    -2.15687743    -0.00259734     2.66580809
     11      H    -1.59164523     0.30163082     0.28492798
     12      H     2.35017898    -0.08306793    -0.57835541
     13     Al     1.90144532     3.58477906    -0.22053541
     14      F     2.02216667     4.13499694     1.35522400
     15      F     0.45032128     3.90992714    -0.99607900
     16      F     3.26729966     3.72782702    -1.17586353
 
Total System Charge             0.00000
 
 *** GOStep23 ***

 Energy gradients wrt nuclear displacements
 ==========================================

     Atom      Cartesian (a.u./angstrom)
                 X         Y         Z
 ----------------------------------------
     1 H    -0.000510 -0.000125  0.000109
     2 C     0.000828 -0.000074  0.000259
     3 C    -0.001452 -0.000505 -0.000599
     4 C    -0.000519  0.004677  0.000383
     5 O     0.004410 -0.005301 -0.001229
     6 H    -0.000730 -0.000424 -0.000567
     7 H     0.000120  0.000104  0.000020
     8 C    -0.000523 -0.000142 -0.000102
     9 H     0.000115 -0.000041  0.000053
    10 H     0.000164  0.000061 -0.000083
    11 H     0.000793  0.000006  0.000524
    12 H    -0.001403  0.000048  0.001455
    13 Al   -0.000585  0.000287  0.000039
    14 F    -0.001167 -0.000055 -0.000843
    15 F     0.001268  0.000221  0.001029
    16 F    -0.000808  0.001263 -0.000449
 ----------------------------------------
 Mulliken charges used for AMS results%charges...

 dE(predicted):    -0.25144E-03, dE(actual):    -0.24886E-03, Trust radius:    1.000000, all in a.u.
 Residual max backtransformation error   0.3133E-04
 
----------------------------------------------------------------------
Geometry Convergence after Step  23       (Hartree/Angstrom,Angstrom)
----------------------------------------------------------------------
current energy                               -3.17350752 Hartree
energy change                      -0.00024886     0.00016000    F
constrained gradient max            0.00530172     0.00100000    F
constrained gradient rms            0.00136314     0.00066667    F
gradient max                        0.00530172
gradient rms                        0.00136314
cart. step max                      0.21274104     0.01000000    F
cart. step rms                      0.06396270     0.00666667    F
 
 
--------
Geometry
--------
Formula: C4H7AlF3O
Atoms
  Index Symbol   x (angstrom)   y (angstrom)   z (angstrom)
      1      H     0.39972619    -1.30826213     0.14780836
      2      C    -0.78742579     0.31983644     1.06626766
      3      C     0.37880238    -0.23861574     0.35851850
      4      C     1.49670378     0.51189398    -0.11065884
      5      O     1.62355506     1.74019445     0.06199475
      6      H    -0.62046029     1.37012262     1.31697808
      7      H    -1.44247971    -1.53420030     2.04113418
      8      C    -1.22273243    -0.49346770     2.29895325
      9      H    -0.44208715    -0.48686582     3.06542452
     10      H    -2.12511134    -0.05142344     2.72925859
     11      H    -1.62360911     0.31177879     0.34114799
     12      H     2.29113142    -0.03667235    -0.64017904
     13     Al     1.92668086     3.59438538    -0.24133945
     14      F     1.85898114     4.18895227     1.31943114
     15      F     0.60194883     3.93605708    -1.20882004
     16      F     3.41008869     3.67310669    -1.01561572
 
Total System Charge             0.00000
 
 *** GOStep24 ***

 Energy gradients wrt nuclear displacements
 ==========================================

     Atom      Cartesian (a.u./angstrom)
                 X         Y         Z
 ----------------------------------------
     1 H    -0.000802 -0.000276  0.000212
     2 C     0.001884 -0.001037  0.001928
     3 C    -0.001420 -0.001604 -0.000616
     4 C    -0.003448  0.010424  0.001178
     5 O     0.008372 -0.007606 -0.003512
     6 H    -0.000843 -0.000346 -0.000616
     7 H     0.000164  0.000043  0.000061
     8 C    -0.000547  0.000658 -0.000875
     9 H     0.000155 -0.000132  0.000173
    10 H     0.000201 -0.000002 -0.000011
    11 H    -0.000002 -0.000026 -0.000418
    12 H    -0.000682  0.000054  0.001922
    13 Al   -0.004634 -0.000806  0.003400
    14 F    -0.001047 -0.000604 -0.002794
    15 F     0.002499  0.000579  0.001444
    16 F     0.000149  0.000680 -0.001475
 ----------------------------------------
 Mulliken charges used for AMS results%charges...

 dE(predicted):    -0.87795E-03, dE(actual):    -0.26076E-03, Trust radius:    1.000000, all in a.u.
 
----------------------------------------------------------------------
Geometry Convergence after Step  24       (Hartree/Angstrom,Angstrom)
----------------------------------------------------------------------
current energy                               -3.17376828 Hartree
energy change                      -0.00026076     0.00016000    F
constrained gradient max            0.01042733     0.00100000    F
constrained gradient rms            0.00265270     0.00066667    F
gradient max                        0.01042733
gradient rms                        0.00265270
cart. step max                      0.19800471     0.01000000    F
cart. step rms                      0.06632733     0.00666667    F
 
 
--------
Geometry
--------
Formula: C4H7AlF3O
Atoms
  Index Symbol   x (angstrom)   y (angstrom)   z (angstrom)
      1      H     0.37433298    -1.28119717     0.11299056
      2      C    -0.80398733     0.31003891     1.10551766
      3      C     0.34658850    -0.21729836     0.34990072
      4      C     1.43914022     0.56045358    -0.13514807
      5      O     1.56360183     1.78282034     0.06467544
      6      H    -0.63731940     1.35453455     1.38134048
      7      H    -1.42171101    -1.57436426     2.04299752
      8      C    -1.20244084    -0.53945530     2.32404122
      9      H    -0.40257346    -0.54952241     3.07062238
     10      H    -2.09622919    -0.11707618     2.79044433
     11      H    -1.65951329     0.31731845     0.39968946
     12      H     2.22839931     0.03308158    -0.69614752
     13     Al     1.95829448     3.60371871    -0.26575573
     14      F     1.72488932     4.27577835     1.24515388
     15      F     0.78143405     3.94959960    -1.40682474
     16      F     3.53080636     3.58838984    -0.85319365
 
Total System Charge             0.00000
 
 *** GOStep25 ***

 Energy gradients wrt nuclear displacements
 ==========================================

     Atom      Cartesian (a.u./angstrom)
                 X         Y         Z
 ----------------------------------------
     1 H    -0.001036 -0.000439  0.000336
     2 C     0.003478 -0.002195  0.003946
     3 C    -0.000856 -0.003118 -0.000840
     4 C    -0.009161  0.017800  0.003419
     5 O     0.013812 -0.009887 -0.006850
     6 H    -0.000759 -0.000167 -0.000480
     7 H     0.000206 -0.000035  0.000063
     8 C    -0.000512  0.001679 -0.001721
     9 H     0.000200 -0.000207  0.000264
    10 H     0.000237 -0.000087  0.000083
    11 H    -0.001565 -0.000044 -0.001940
    12 H     0.001360 -0.000028  0.001973
    13 Al   -0.009922 -0.002683  0.006763
    14 F    -0.000566 -0.001178 -0.004149
    15 F     0.002959  0.000744  0.001583
    16 F     0.002125 -0.000157 -0.002451
 ----------------------------------------
 Mulliken charges used for AMS results%charges...

 dE(predicted):    -0.10163E-02, dE(actual):    -0.32146E-03, Trust radius:    1.000000, all in a.u.
 
----------------------------------------------------------------------
Geometry Convergence after Step  25       (Hartree/Angstrom,Angstrom)
----------------------------------------------------------------------
current energy                               -3.17408973 Hartree
energy change                      -0.00032146     0.00016000    F
constrained gradient max            0.01779898     0.00100000    F
constrained gradient rms            0.00457502     0.00066667    F
gradient max                        0.01779898
gradient rms                        0.00457502
cart. step max                      0.18846112     0.01000000    F
cart. step rms                      0.06278292     0.00666667    F
 
 
--------
Geometry
--------
Formula: C4H7AlF3O
Atoms
  Index Symbol   x (angstrom)   y (angstrom)   z (angstrom)
      1      H     0.35321106    -1.25287015     0.08299673
      2      C    -0.82265016     0.29731337     1.14117780
      3      C     0.31509957    -0.19493111     0.34360005
      4      C     1.38022034     0.61232008    -0.15548879
      5      O     1.49864617     1.82948214     0.06750956
      6      H    -0.66258389     1.33753145     1.43767850
      7      H    -1.39567601    -1.61601862     2.04528144
      8      C    -1.18286985    -0.58521957     2.34607618
      9      H    -0.36614189    -0.60402526     3.07425036
     10      H    -2.07068245    -0.18651489     2.84361547
     11      H    -1.69532299     0.31158035     0.45369108
     12      H     2.16422139     0.10766068    -0.74609503
     13     Al     1.99226134     3.61438620    -0.28882734
     14      F     1.62598100     4.37113145     1.15201502
[...]
     7     H      -0.173240   0.064770  -0.047442
     8     C       0.089599   0.021825   0.022200
     9     H      -0.092467  -0.200930   0.284849
    10     H      -0.048605   0.018373  -0.171837
    11     H       0.337064   0.307725  -0.643609
    12     H      -0.027220   0.037074   0.006197
    13    Al      -0.000457   0.000565   0.000015
    14     F       0.000088  -0.000060  -0.000028
    15     F       0.000180  -0.000096   0.000061
    16     F       0.000108  -0.000247  -0.000019
 
 Mode:    34      Frequency (cm-1):     1294.1081     Intensity (km/mol):        0.2499
 Index  Atom      ---- Displacements (x/y/z) ----
     1     H       0.188079   0.109411  -0.157497
     2     C      -0.048404  -0.017171   0.112085
     3     C      -0.065411  -0.000710   0.047058
     4     C       0.047077   0.009302  -0.031138
     5     O      -0.006625  -0.002414   0.004025
     6     H       0.324636   0.290236  -0.748517
     7     H      -0.066022  -0.097517   0.118044
     8     C       0.022321  -0.052099  -0.047929
     9     H      -0.064190   0.153277   0.042351
    10     H       0.059232   0.167997  -0.069543
    11     H       0.112077   0.076784  -0.157749
    12     H       0.070443   0.062475  -0.037646
    13    Al       0.000593  -0.000092  -0.000481
    14     F       0.000015  -0.000134  -0.000006
    15     F      -0.000138   0.000007   0.000190
    16     F      -0.000203   0.000158   0.000140
 
 Mode:    35      Frequency (cm-1):     1368.6963     Intensity (km/mol):       15.5431
 Index  Atom      ---- Displacements (x/y/z) ----
     1     H      -0.108736  -0.048320   0.041841
     2     C      -0.006712  -0.008795   0.017761
     3     C       0.044392   0.003221  -0.027969
     4     C       0.021123  -0.035022  -0.024622
     5     O      -0.017246   0.067022   0.029398
     6     H      -0.046850   0.049453  -0.133699
     7     H      -0.055039  -0.135664   0.436278
     8     C       0.009409   0.058442  -0.081456
     9     H      -0.192397  -0.278053   0.241081
    10     H       0.115379  -0.336310   0.246340
    11     H      -0.050483   0.071897   0.068365
    12     H      -0.166583  -0.573438  -0.001691
    13    Al      -0.001257   0.000006   0.000696
    14     F       0.000096  -0.000820  -0.000283
    15     F       0.000131  -0.000287   0.000453
    16     F      -0.000234  -0.000267  -0.000123
 
 Mode:    36      Frequency (cm-1):     1375.8746     Intensity (km/mol):       36.8695
 Index  Atom      ---- Displacements (x/y/z) ----
     1     H      -0.028523   0.033748   0.010993
     2     C       0.026811  -0.011453  -0.016977
     3     C      -0.018913   0.021068   0.021105
     4     C      -0.043577   0.049700   0.047684
     5     O       0.023793  -0.094238  -0.041181
     6     H      -0.066538   0.012164  -0.066856
     7     H       0.000620  -0.115470   0.378805
     8     C       0.001381   0.054942  -0.062698
     9     H      -0.146102  -0.288296   0.187355
    10     H       0.090548  -0.293838   0.216113
    11     H      -0.034263   0.062529   0.058519
    12     H       0.176317   0.695767   0.020792
    13    Al       0.000768  -0.000700  -0.000691
    14     F      -0.000025   0.001568   0.000570
    15     F       0.000044   0.000585  -0.000948
    16     F       0.000944   0.000358   0.000164
 
 Mode:    37      Frequency (cm-1):     1409.1225     Intensity (km/mol):       12.6822
 Index  Atom      ---- Displacements (x/y/z) ----
     1     H      -0.133580  -0.035510   0.021212
     2     C       0.046513  -0.051049   0.016403
     3     C       0.041883   0.005048  -0.017421
     4     C      -0.018082   0.001765   0.014655
     5     O       0.002595  -0.006427  -0.003454
     6     H      -0.613517   0.113567  -0.334477
     7     H       0.068543   0.016576  -0.090054
     8     C      -0.005196  -0.018685   0.020162
     9     H       0.062710   0.031614  -0.076671
    10     H      -0.027703   0.123356  -0.078005
    11     H      -0.153767   0.603773   0.189066
    12     H      -0.020536  -0.006098   0.020187
    13    Al      -0.000209   0.000158   0.000058
    14     F       0.000074   0.000078   0.000069
    15     F       0.000101  -0.000040  -0.000072
    16     F       0.000192  -0.000055  -0.000021
 
 Mode:    38      Frequency (cm-1):     1454.8489     Intensity (km/mol):        2.5743
 Index  Atom      ---- Displacements (x/y/z) ----
     1     H      -0.363531  -0.120257   0.242580
     2     C      -0.040603  -0.019684   0.040094
     3     C       0.128401   0.065602  -0.080968
     4     C      -0.069973  -0.011933   0.051152
     5     O       0.011008  -0.023336  -0.014243
     6     H       0.219575   0.037475  -0.144669
     7     H      -0.553528   0.068665  -0.122104
     8     C       0.037553  -0.021860  -0.001691
     9     H      -0.044282   0.500344   0.025630
    10     H      -0.028245  -0.282447   0.022565
    11     H      -0.023523  -0.082228   0.039996
    12     H      -0.043509   0.090644   0.059154
    13    Al      -0.000452   0.000119   0.000431
    14     F       0.000086   0.000525   0.000071
    15     F       0.000188   0.000110  -0.000490
    16     F       0.000525  -0.000074  -0.000159
 
 Mode:    39      Frequency (cm-1):     1462.8099     Intensity (km/mol):       11.6044
 Index  Atom      ---- Displacements (x/y/z) ----
     1     H      -0.117874  -0.042348   0.080252
     2     C      -0.022815  -0.014648  -0.000967
     3     C       0.036132   0.018607  -0.023900
     4     C      -0.019220  -0.002128   0.014599
     5     O       0.003103  -0.006074  -0.003814
     6     H       0.072845  -0.023919   0.006817
     7     H       0.334712   0.069073  -0.329489
     8     C      -0.025020  -0.032329  -0.030316
     9     H      -0.323530   0.032737   0.390313
    10     H       0.373529   0.415524   0.410164
    11     H      -0.003278  -0.012350  -0.029491
    12     H      -0.016806   0.018410   0.014931
    13    Al      -0.000245  -0.000049   0.000120
    14     F       0.000035   0.000175   0.000028
    15     F       0.000077   0.000059  -0.000157
    16     F       0.000203  -0.000036  -0.000028
 
 Mode:    40      Frequency (cm-1):     1472.7582     Intensity (km/mol):        5.6187
 Index  Atom      ---- Displacements (x/y/z) ----
     1     H      -0.244121  -0.090266   0.171590
     2     C      -0.071217   0.000078   0.054389
     3     C       0.103150   0.046647  -0.067433
     4     C      -0.052444  -0.022319   0.034327
     5     O       0.007665  -0.006980  -0.007563
     6     H       0.262346   0.056928  -0.127911
     7     H       0.462066  -0.103176   0.209371
     8     C      -0.034593   0.017231   0.014340
     9     H       0.220404  -0.456368  -0.265262
    10     H      -0.152575   0.253077  -0.283445
    11     H       0.019687  -0.105478  -0.052870
    12     H      -0.032467   0.052210   0.041771
    13    Al      -0.000322   0.000128   0.000282
    14     F       0.000046   0.000257   0.000048
    15     F       0.000125   0.000036  -0.000210
    16     F       0.000241  -0.000046  -0.000098
 
 Mode:    41      Frequency (cm-1):     1538.5983     Intensity (km/mol):      108.4759
 Index  Atom      ---- Displacements (x/y/z) ----
     1     H      -0.174757  -0.145818   0.110197
     2     C      -0.008280   0.015382   0.012316
     3     C      -0.011521  -0.071380  -0.011914
     4     C       0.060839   0.443052   0.057812
     5     O      -0.010736  -0.229839  -0.046161
     6     H       0.039192   0.024898  -0.001840
     7     H       0.019406  -0.014059   0.014169
     8     C       0.003612  -0.007449   0.000819
     9     H       0.024101  -0.008458  -0.025477
    10     H      -0.020384   0.050714  -0.056437
    11     H       0.050008  -0.050284  -0.073525
    12     H      -0.329126  -0.730927   0.090905
    13    Al      -0.002757  -0.002748   0.001725
    14     F       0.000812   0.003355   0.000427
    15     F       0.000734   0.001076  -0.003803
    16     F       0.003976  -0.000434  -0.000574
 
 Mode:    42      Frequency (cm-1):     2917.1376     Intensity (km/mol):        9.4819
 Index  Atom      ---- Displacements (x/y/z) ----
     1     H      -0.001253   0.008568  -0.000658
     2     C       0.063692  -0.003105   0.038964
     3     C       0.002734  -0.000449   0.000012
     4     C       0.000233  -0.000680   0.000406
     5     O      -0.000149  -0.000054   0.000051
     6     H       0.022936   0.128912   0.058781
     7     H      -0.002396   0.010984   0.003492
     8     C      -0.003079  -0.000650  -0.000767
     9     H       0.032730   0.002377   0.025234
    10     H       0.017614  -0.005112  -0.014822
    11     H      -0.825776  -0.088689  -0.530600
    12     H       0.000890   0.000860  -0.001828
    13    Al       0.000057   0.000086  -0.000009
    14     F       0.000000  -0.000030  -0.000017
    15     F      -0.000017  -0.000023   0.000018
    16     F      -0.000034  -0.000012   0.000000
 
 Mode:    43      Frequency (cm-1):     3004.4814     Intensity (km/mol):       18.8373
 Index  Atom      ---- Displacements (x/y/z) ----
     1     H      -0.001171   0.013006   0.002774
     2     C      -0.000300  -0.002394  -0.000607
     3     C      -0.000333  -0.001014   0.000088
     4     C      -0.000210  -0.000062   0.000178
     5     O       0.000010   0.000126   0.000015
     6     H       0.000763   0.024754   0.008035
     7     H      -0.044269  -0.588882  -0.224774
     8     C       0.001690   0.036088  -0.033044
     9     H       0.455836   0.048003   0.333347
    10     H      -0.431474   0.115832   0.276741
    11     H       0.006125  -0.001216   0.004505
    12     H       0.004297  -0.001300  -0.003500
    13    Al      -0.000041  -0.000053   0.000012
    14     F       0.000006   0.000022   0.000005
    15     F       0.000009   0.000015  -0.000015
    16     F       0.000025   0.000008   0.000001
 
 Mode:    44      Frequency (cm-1):     3023.7863     Intensity (km/mol):       11.2018
 Index  Atom      ---- Displacements (x/y/z) ----
     1     H      -0.019793   0.091327   0.035814
     2     C       0.000466   0.002273   0.000718
     3     C       0.003694  -0.005515  -0.004122
     4     C      -0.063250   0.020267   0.053941
     5     O       0.000498   0.000699  -0.000278
     6     H       0.000257  -0.028291  -0.011411
     7     H       0.000573   0.007098   0.002616
     8     C      -0.000059  -0.000561  -0.000065
     9     H      -0.001110  -0.000185  -0.000870
    10     H       0.000912  -0.000226  -0.000506
    11     H      -0.001138   0.000396  -0.000658
    12     H       0.720280  -0.272581  -0.623297
    13    Al      -0.000286  -0.000127   0.000207
    14     F       0.000041   0.000090  -0.000004
    15     F       0.000024  -0.000032  -0.000165
    16     F       0.000151  -0.000124  -0.000032
 
 Mode:    45      Frequency (cm-1):     3063.8302     Intensity (km/mol):        2.3658
 Index  Atom      ---- Displacements (x/y/z) ----
     1     H       0.010882  -0.086042  -0.030521
     2     C      -0.007688  -0.067926  -0.029402
     3     C      -0.001663   0.007292   0.002305
     4     C      -0.002486  -0.000045   0.002118
     5     O      -0.000275   0.000204   0.000195
     6     H       0.025456   0.816657   0.301478
     7     H      -0.021999  -0.317195  -0.117290
     8     C       0.007484   0.030499   0.029611
     9     H      -0.216854  -0.011752  -0.152819
    10     H       0.146618  -0.029689  -0.083760
    11     H       0.083886  -0.006524   0.048141
    12     H       0.028196  -0.009344  -0.023743
    13    Al      -0.000006   0.000001   0.000027
    14     F       0.000006   0.000006  -0.000009
    15     F      -0.000004  -0.000005  -0.000011
    16     F       0.000007  -0.000001  -0.000004
 
 Mode:    46      Frequency (cm-1):     3085.2966     Intensity (km/mol):       12.4316
 Index  Atom      ---- Displacements (x/y/z) ----
     1     H       0.011538  -0.094072  -0.031820
     2     C      -0.005958  -0.035638  -0.016718
     3     C      -0.001386   0.008199   0.002796
     4     C      -0.001446  -0.000090   0.001115
     5     O      -0.000108   0.000128   0.000102
     6     H       0.014102   0.420620   0.151748
     7     H       0.039999   0.620820   0.222126
     8     C      -0.027520  -0.056042  -0.053291
     9     H       0.446251   0.027254   0.322525
    10     H      -0.160481   0.024210   0.088716
    11     H       0.068172  -0.001109   0.044158
    12     H       0.014528  -0.004535  -0.012224
    13    Al      -0.000009  -0.000013   0.000000
    14     F       0.000002   0.000007   0.000005
    15     F      -0.000000   0.000002  -0.000001
    16     F       0.000008   0.000001   0.000004
 
 Mode:    47      Frequency (cm-1):     3089.4541     Intensity (km/mol):       10.5566
 Index  Atom      ---- Displacements (x/y/z) ----
     1     H       0.003476  -0.027079  -0.008816
     2     C       0.002737  -0.005322  -0.000516
     3     C      -0.000537   0.002385   0.000873
     4     C      -0.000425  -0.000108   0.000226
     5     O      -0.000014   0.000063   0.000018
     6     H       0.001829   0.063022   0.022709
     7     H       0.033180   0.170699   0.062181
     8     C       0.088139  -0.024211  -0.014247
     9     H      -0.426581  -0.046137  -0.333231
    10     H      -0.659394   0.166444   0.439686
    11     H      -0.025576  -0.002391  -0.018380
    12     H       0.002747  -0.000923  -0.001814
    13    Al       0.000002  -0.000015   0.000008
    14     F      -0.000003   0.000007   0.000001
    15     F      -0.000003   0.000003  -0.000005
    16     F       0.000001   0.000006  -0.000004
 
 Mode:    48      Frequency (cm-1):     3121.9016     Intensity (km/mol):        7.5627
 Index  Atom      ---- Displacements (x/y/z) ----
     1     H      -0.146792   0.916431   0.320175
     2     C      -0.003247  -0.010342  -0.003677
     3     C       0.011540  -0.079077  -0.026905
     4     C       0.007871  -0.001413  -0.006455
     5     O      -0.000144   0.001086   0.000379
     6     H       0.002106   0.121520   0.046852
     7     H       0.004227   0.046337   0.013785
     8     C       0.000545  -0.003859  -0.002346
     9     H       0.006268  -0.000238   0.003620
    10     H      -0.015967   0.004656   0.009423
    11     H       0.021268   0.000279   0.011302
    12     H      -0.068049   0.020745   0.057826
    13    Al       0.000039   0.000014  -0.000027
    14     F      -0.000010  -0.000010   0.000004
    15     F      -0.000005   0.000003   0.000026
    16     F      -0.000026   0.000015   0.000004

PES point character: Geometry corresponds to a transition state.
                     (Hint: Very small negative frequencies do not count towards being a
                     transition state, as they usually indicate noise on a very flat PES. See
                     the PESPointCharacter%NegativeFrequenciesTolerance keyword documentation.)




 ============================
 Statistical Thermal Analysis  ***  ideal gas assumed  ***
 ============================
  
 Pressure:                  1.000000 atm.
 Temperature:             298.150000 K



 Moments of Inertia [amu*bohr^2] and principal axis
 ==================================================

         716.7421       3298.6051       3404.6402
 ------------------------------------------------
          -0.5466          0.3490         -0.7612
          -0.7539         -0.6007          0.2659
           0.3645         -0.7192         -0.5915


 The rotational contribution to the molecular entropy includes
 a term, dependent on the symmetry number sigma. The results 
 reported below were computed using sigma = 1, determined from
 the point group symmetry of the input geometry (NOSYM). 
 If this is not the correct symmetry, try symmetrizing the molecule before
 running the calculation (note: linear molecules should be aligned along one
 of the Cartesian axes).
 Contributions from frequencies below 20 1/cm are not included in vibrational sums.
 Their contributions, if any, are reported separately.


     Temp                                                        Transl      Rotat     Vibrat     Total
     ----                                                        ------      -----     ------     -----

     298.15   Entropy (cal/mol-K):                               41.025     30.466     28.664    100.155
              Nuclear Internal Energy (kcal/mol):                 0.889      0.889     72.130     73.907
              Constant Volume Heat Capacity (cal/mol-K):          2.981      2.981     28.881     34.843
          (c) Constant Volume Heat Capacity (cal/mol-K):          2.981      2.981     27.765     33.727

 Contributions from frequencies below 20 1/cm
 Frequency (1/cm):                                   19.349
 Entropy (cal/mol-K):                                 6.700
 Nuclear Internal Energy (kcal/mol):                  0.593
 Constant Volume Heat Capacity (cal/mol-K):           1.986

       Summary of energy terms
                                                   hartree              eV         kcal/mol           kJ/mol
                                      --------------------     -----------       ----------      -----------
      Energy from Engine:               -3.179549157421441        -86.5199         -1995.20         -8347.91
      Nuclear Internal Energy:           0.117778949013021          3.2049            73.91           309.23
  (c) Nuclear Internal Energy:           0.117156067505831          3.1880            73.52           307.59
      Internal Energy U:                -3.061770208408420        -83.3150         -1921.29         -8038.68
      pV/n = RT:                         0.000944186013486          0.0257             0.59             2.48
      Enthalpy H:                       -3.060826022394934        -83.2893         -1920.70         -8036.20
      -T*S:                             -0.047586985728172         -1.2949           -29.86          -124.94
  (c) -T*S:                             -0.048825422606703         -1.3286           -30.64          -128.19
      Gibbs free energy:                -3.108413008123107        -84.5842         -1950.56         -8161.14
 
 
 
  (c) The properties marked with this symbol have been corrected using 'low vibrational frequency free rotor
      interpolation corrections'. For those terms all positive frequencies are used (also ones below 20 1/cm),
      but the contribution to the partition function of small vibrational frequencies is modified as described
      in the following paper:
      S. Grimme, 'Supramolecular Binding Thermodynamics by Dispersion-Corrected Density Functional Theory'
      (Chem. Eur. J. 2012, 18, 9955-9964)
      Configuration: Dampener Frequency          :   100.000 1/cm
                     Dampener Alpha              :     4.000
                     Averaging Moment of Inertia : 1.000E-44 kg m2

--------------
Atomic charges
--------------
  Index   Atom    Charge
      1      H   -0.1836
      2      C    0.3780
      3      C    0.2943
      4      C    0.7065
      5      O   -0.5716
      6      H   -0.1514
      7      H   -0.2037
      8      C    0.6398
      9      H   -0.1873
     10      H   -0.1948
     11      H   -0.1409
     12      H   -0.2183
     13     Al    1.7367
     14      F   -0.6279
     15      F   -0.6368
     16      F   -0.6389


Dipole moment vector    (Debye):    -4.72277619   -8.23377694    2.00187861
              magnitude (Debye):     9.70088736


ERROR: Geometry optimization failed! (Converged, but did not find a minimum on the PES.)


AMS application finished. Exiting.
NORMAL TERMINATION
     Total cpu time:   32784.07
  Total system time:     201.98
 Total elapsed time:   66313.35
 WARNING: total elapsed time is much higher than the (CPU+system) time. 
 Make sure the machine is not oversubscribed and has enough memory, SCM_TMPDIR p
 oints to a fast file system, and the network is fast enough.
