
 *******************************************************************************
 *                                                                             *
 *  --------------------------------                                           *
 *   Amsterdam Modeling Suite (AMS)              2021.102                      *
 *  --------------------------------                                           *
 *                                               r95042 2021-06-07             *
 *                                                                             *
 *                                                                             *
 *                              =================                              *
 *                              |               |                              *
 *                              |     A M S     |                              *
 *                              |               |                              *
 *                              =================                              *
 *                                                                             *
 *                                                                             *
 *   Online information and documentation:  https://www.scm.com/support/       *
 *   E-mail:  support@scm.com   info@scm.com                                   *
 *                                                                             *
 *   Scientific publications using AMS results must be properly referenced     *
 *   See the User Manuals (or the web site) for recommended citations          *
 *   The terms and conditions of the End User License Agreement apply to       *
 *   the use of AMS, https://www.scm.com/license-terms/                        *
 *                                                                             *
 **********************  x86_64_linux_intel / intelmpi  ************************
 
 Licensed to: VU/FEW (+ SARA) / ALGEMEEN / Amsterdam / THE NETHERLANDS
 SCM User ID: u7668
  
 AMS 2021.102  RunTime: Jan21-2022 00:36:28  ShM Nodes: 1  Procs: 1

 AMS jobname: 15.no_catalyst_H_H.TS
 AMS jobid  : 2066073020

 Start   directory: /scistor/tc/yhk800/MasterProject/calculations/no_catalyst_H_H/15.no_catalyst_H_H.TS/
 Results directory: /scistor/tc/yhk800/MasterProject/calculations/no_catalyst_H_H/15.no_catalyst_H_H.TS/
 Scratch directory: /scratch/3671/amstmp_15.no_catalyst_H_H.TS_kid0.2066073020/

 RNG seed: 504231647 1900307354 2043842141 -560957336 156121572 1744749622 356982738 -779111402



                      ************************************************************************
                      *  ADF 2021.102  RunTime: Jan21-2022 00:36:29  ShM Nodes: 1  Procs: 1  *
                      ************************************************************************
  
       *****************************
       *  TRANSITION STATE SEARCH  *
       *****************************

Optimization Method                    Quasi Newton
Optimization Coordinates               Delocalized Coordinates
Optimize lattice                       F
 
 ------------------------------------------------------
 Convergence criteria (Hartree,Angstrom)
 ------------------------------------------------------
 Maximum gradient               0.001000000000
 Maximum rms gradient           0.000666666667
 Maximum step allowed           0.010000000000
 Maximum rms step allowed       0.006666666667
 Maximum energy change allowe   0.000120000000
 Maximum stress energy allowe   0.000500000000
 
Initial model Hessian                  Automatic Hessian
 
------------------------------------
Quasi-Newton Optimizer Parameters
------------------------------------
Hessian Update Method                  Bofill
Maximum number of steps                  250
First GDIIS cycle                          0
Maximum GDIIS vectors                      0
Trust radius (bohr)                        0.200000
Trust radius varies                        F
Constraints converged at all steps         T
Use projector                              T
 
 Rigid motions settings for: old optimizer
 Atomic rotations (x,y,z):     T T T
 Atomic translations (x,y,z):  T T T
 Tolerance:                   1.000000000000000E-006
 
           1  TSRC entries:
    i   type      a1    a2    a3    a4    coef
    1 Distance     2     3               -1.000
 
--------
Geometry
--------
Formula: C4H7O
Atoms
  Index Symbol   x (angstrom)   y (angstrom)   z (angstrom)
      1      C     0.81668000    -0.23471900     0.88197500
      2      C     0.81678400    -0.23413100    -0.47719300
      3      C    -1.53160000    -0.46998000    -1.30857600
      4      H     0.85636200    -1.16386700     1.44859300
      5      C     0.73893400     1.00063500     1.66014300
      6      H    -1.75224300    -1.42324600    -0.84366900
      7      H     0.86540100     0.70149500    -1.02879400
      8      H    -1.29572100    -0.45322200    -2.36675600
      9      H    -1.93437200     0.42729600    -0.85485600
     10      O     0.73088900     1.05622100     2.88164900
     11      H     0.99495642    -1.13003362    -1.03443002
     12      H     0.69350848     1.89581258     1.07576845
 
Total System Charge             0.00000
 
 
----------------
ADF Engine Input
----------------
 
 NumericalQuality VeryGood
 SCF
 Converge 1.0e-6
 Iterations 99
 End
 SYMMETRY NOSYM
 SpinPolarization 1.0
 Unrestricted Yes
 XC
 GGA OLYP
 End
 basis
 core None
 type TZ2P
 End
 

 Title: *** (NO TITLE) ***

 Using automatic Hessian for delocalized coordinates.
 *** GOStep1 ***

 Energy gradients wrt nuclear displacements
 ==========================================

     Atom      Cartesian (a.u./angstrom)
                 X         Y         Z
 ----------------------------------------
     1 C    -0.000025  0.001563 -0.001522
     2 C     0.002964 -0.015709 -0.009620
     3 C    -0.000008  0.000021  0.000005
     4 H    -0.000038  0.000322  0.000297
     5 C    -0.002315  0.043857 -0.022547
     6 H     0.000015 -0.000012 -0.000028
     7 H     0.000049 -0.000274 -0.000085
     8 H     0.000026 -0.000013  0.000004
     9 H     0.000041 -0.000001 -0.000000
    10 O    -0.000024  0.000785 -0.006440
    11 H    -0.003064  0.016232  0.010263
    12 H     0.002380 -0.046770  0.029673
 ----------------------------------------
 Mulliken charges used for AMS results%charges...
           Primitive Internal Coordinates (atoms in internal order)
-------------------------------------------------------------------------------
    index    type      i       j       k       l   value(A,deg)     TSRC Vect
-------------------------------------------------------------------------------
       1     bnd       1       5       0       0     1.46208392    -0.00000000
       2     bnd       1       2       0       0     1.35916813     0.04479268
       3     bnd       3       9       0       0     1.08313958     0.02690305
       4     bnd       1       4       0       0     1.08901177    -0.00000000
       5     bnd       3       6       0       0     1.08329955     0.02663923
       6     bnd       2       7       0       0     1.08720894     0.01630736
       7     bnd       3       8       0       0     1.08428070     0.02926956
       8     bnd       5      10       0       0     1.22279656    -0.00000000
       9     bnd       2      11       0       0     1.07000001     0.01192701
      10     bnd       5      12       0       0     1.07000000     0.00000000
      11     bnd       2       3       0       0     2.50234487    -0.14439287
      12     bnd       1       3       0       0     3.21998143    -0.08845678
      13     bnd       2       6       0       0     2.85450501    -0.09171576
      14     bnd       2       8       0       0     2.84273224    -0.09097435
      15     bnd       2       9       0       0     2.85464085    -0.09162039
      16     bnd       3       7       0       0     2.68258186    -0.09715668
      17     bnd       3      11       0       0     2.62570260    -0.09970240
      18     ang       5       1       2       0   122.13193049     0.00521399
      19     ang       5       1       4       0   116.48149708    -0.00688352
      20     ang       5       1       3       0   112.64562536     0.00973384
      21     ang       2       1       4       0   121.37727346     0.00158420
      22     ang       2       1       3       0    47.13980479    -0.01996672
      23     ang       4       1       3       0   108.55407601     0.00760328
      24     ang       1       2       7       0   120.51279539    -0.00751574
      25     ang       1       2      11       0   121.36128216    -0.00632428
      26     ang       1       2       3       0   109.39804563     0.00718623
      27     ang       1       2       6       0    97.36189422     0.00046005
      28     ang       1       2       8       0   131.65236189     0.01918542
      29     ang       1       2       9       0    97.60393042     0.00044784
      30     ang       7       2      11       0   116.67222783     0.00524026
      31     ang       7       2       3       0    87.39281970     0.01512433
      32     ang       7       2       6       0   109.48758492     0.02643907
      33     ang       7       2       8       0    76.25016237     0.00886246
      34     ang       7       2       9       0    77.08981866     0.00882184
      35     ang      11       2       3       0    84.51010404     0.01486022
      36     ang      11       2       6       0    74.58595081     0.00884666
      37     ang      11       2       8       0    73.32443789     0.00868490
      38     ang      11       2       9       0   106.59375947     0.02621540
      39     ang       6       2       8       0    38.16371016     0.01972913
      40     ang       6       2       9       0    38.01699289     0.01935327
      41     ang       8       2       9       0    38.16203879     0.01975683
      42     ang       9       3       6       0   118.25885447    -0.00663164
      43     ang       9       3       8       0   118.48323850    -0.00711804
      44     ang       9       3       2       0    97.56929804     0.01622358
      45     ang       9       3       1       0    85.73843521     0.00883083
      46     ang       9       3       7       0    85.80331135     0.00868206
      47     ang       9       3      11       0   121.48827574     0.02839201
      48     ang       6       3       8       0   118.47247906    -0.00706732
      49     ang       6       3       2       0    97.55621160     0.01623869
      50     ang       6       3       1       0    85.46171991     0.00882796
      51     ang       6       3       7       0   121.43376470     0.02854592
      52     ang       6       3      11       0    85.98434689     0.00885558
      53     ang       8       3       2       0    96.81291220     0.01588123
      54     ang       8       3       1       0   120.27444570     0.02866179
      55     ang       8       3       7       0    84.29830723     0.00879637
      56     ang       8       3      11       0    84.05640983     0.00878086
      57     ang       1       3       7       0    41.01789145     0.02117921
      58     ang       1       3      11       0    41.02628758     0.02110946
      59     ang       7       3      11       0    40.45513557     0.02075255
      60     ang       1       5      10       0   124.78014579    -0.00000000
      61     ang       1       5      12       0   114.73739870     0.00000000
      62     ang      10       5      12       0   120.48134627     0.00000000
      63     ang       3       6       2       0    60.34468769    -0.02755152
      64     ang       2       7       3       0    68.72451165    -0.02742977
      65     ang       3       8       2       0    60.93212808    -0.02788032
      66     ang       3       9       2       0    60.33684884    -0.02757832
      67     ang       2      11       3       0    71.55860906    -0.02702927
      68     dih       2       1       5      10   179.74813341    -0.00792984
      69     dih       2       1       5      12    -0.63506965    -0.00792984
      70     dih       4       1       5      10     0.84367616    -0.00291417
      71     dih       4       1       5      12   180.46047311    -0.00291417
      72     dih       3       1       5      10   127.21624574     0.01084401
      73     dih       3       1       5      12   -53.16695732     0.01084401
      74     dih       5       1       2       7     6.57009342     0.02221798
      75     dih       5       1       2      11   172.35502872    -0.01839394
      76     dih       5       1       2       3   267.85385074     0.00209181
      77     dih       5       1       2       6   248.75690649    -0.00766707
      78     dih       5       1       2       8   267.65479661     0.00202092
      79     dih       5       1       2       9   -72.88759900     0.01191440
      80     dih       4       1       2       7   185.42152053     0.01687134
      81     dih       4       1       2      11    -8.79354417    -0.02374058
      82     dih       4       1       2       3    86.70527785    -0.00325483
      83     dih       4       1       2       6    67.60833360    -0.01301372
      84     dih       4       1       2       8    86.50622373    -0.00332573
      85     dih       4       1       2       9   105.96382811     0.00656776
      86     dih       3       1       2       7    98.71624268     0.02012617
      87     dih       3       1       2      11   264.50117798    -0.02048575
      88     dih       3       1       2       6   -19.09694425    -0.00975888
      89     dih       3       1       2       8    -0.19905413    -0.00007089
      90     dih       3       1       2       9    19.25855026     0.00982259
      91     dih       6       3       9       2   102.82836572     0.02662757
      92     dih       8       3       9       2   257.98018397    -0.02617358
      93     dih       1       3       9       2    20.30570963     0.01068283
      94     dih       7       3       9       2   -20.82918846    -0.01007666
      95     dih      11       3       9       2    -0.82262789    -0.00035798
      96     dih       9       3       6       2   257.16400671    -0.02661896
      97     dih       8       3       6       2   102.00948582     0.02618919
      98     dih       1       3       6       2   -20.14929510    -0.01064504
      99     dih       7       3       6       2     0.52968161     0.00012654
     100     dih      11       3       6       2    20.99355189     0.01003677
     101     dih       1       2       7       3   248.95626953    -0.01638682
     102     dih      11       2       7       3    82.52763162     0.02387965
     103     dih       6       2       7       3     0.44547776     0.00004405
     104     dih       8       2       7       3    19.49721097     0.00980451
     105     dih       9       2       7       3   -19.75505464    -0.00907959
     106     dih       9       3       8       2   102.45974316     0.02639111
     107     dih       6       3       8       2   257.55808319    -0.02641483
     108     dih       1       3       8       2    -0.18104675    -0.00006382
     109     dih       7       3       8       2    20.38290605     0.01019953
     110     dih      11       3       8       2   -20.29058747    -0.01001133
     111     dih       1       2      11       3   109.40048384     0.01684084
     112     dih       7       2      11       3   -84.29422306    -0.02394593
     113     dih       6       2      11       3    20.10982482     0.00907258
     114     dih       8       2      11       3   -19.64380594    -0.00974187
     115     dih       9       2      11       3    -0.67870888    -0.00018841
     116     dih       1       2       3       9    60.36685908     0.00014480
     117     dih       1       2       3       6   -59.59533627    -0.00045332
     118     dih       1       2       3       8   180.39271465    -0.00017808
     119     dih       1       2       3       7   121.52101014    -0.00106815
     120     dih       1       2       3      11   238.63730914     0.00074508
     121     dih       7       2       3       9   -61.15415106     0.00121295
     122     dih       7       2       3       6   178.88365359     0.00061483
     123     dih       7       2       3       8    58.87170451     0.00089007
     124     dih       7       2       3       1   238.47898986     0.00106815
     125     dih       7       2       3      11   117.11629900     0.00181323
     126     dih      11       2       3       9   181.72954994    -0.00060028
     127     dih      11       2       3       6    61.76735459    -0.00119840
     128     dih      11       2       3       8   -58.24459449    -0.00092316
     129     dih      11       2       3       1   121.36269086    -0.00074508
     130     dih      11       2       3       7   242.88370100    -0.00181323
     131     dih       6       2       3       9   119.96219535     0.00059812
     132     dih       6       2       3       8   239.98805092     0.00027524
     133     dih       6       2       3       1    59.59533627     0.00045332
     134     dih       6       2       3       7   181.11634641    -0.00061483
     135     dih       6       2       3      11   -61.76735459     0.00119840
     136     dih       8       2       3       9   239.97414443     0.00032288
     137     dih       8       2       3       6   120.01194908    -0.00027524
     138     dih       8       2       3       1   179.60728535     0.00017808
     139     dih       8       2       3       7   -58.87170451    -0.00089007
     140     dih       8       2       3      11    58.24459449     0.00092316
     141     dih       9       2       3       6   240.03780465    -0.00059812
     142     dih       9       2       3       8   120.02585557    -0.00032288
     143     dih       9       2       3       1   -60.36685908    -0.00014480
     144     dih       9       2       3       7    61.15415106    -0.00121295
     145     dih       9       2       3      11   178.27045006     0.00060028
     146     dih       5       1       3       9    -6.70885435    -0.00667420
     147     dih       5       1       3       6   234.46351100     0.00233166
     148     dih       5       1       3       8   113.97123608    -0.00207422
     149     dih       5       1       3       2   113.51971531    -0.00198637
     150     dih       5       1       3       7    81.79279287    -0.00452005
     151     dih       5       1       3      11   145.36861586     0.00025840
     152     dih       2       1       3       9   239.77143035    -0.00468782
     153     dih       2       1       3       6   120.94379569     0.00431803
     154     dih       2       1       3       8     0.45152078    -0.00008785
     155     dih       2       1       3       7   -31.72692244    -0.00253368
     156     dih       2       1       3      11    31.84890055     0.00224478
     157     dih       4       1       3       9   123.80841936    -0.00181578
     158     dih       4       1       3       6     4.98078471     0.00719008
     159     dih       4       1       3       8   244.48850980     0.00278420
     160     dih       4       1       3       2   244.03698902     0.00287205
     161     dih       4       1       3       7   212.31006658     0.00033837
     162     dih       4       1       3      11   -84.11411043     0.00511682
     163     dih       1       2       6       3   124.88764731     0.00316217
     164     dih       7       2       6       3    -1.18296723     0.00044411
     165     dih      11       2       6       3   245.46600317    -0.00362440
     166     dih       8       2       6       3   -32.05539858    -0.00274125
     167     dih       9       2       6       3    31.94330304     0.00179020
     168     dih       1       2       8       3     0.49575478    -0.00009904
     169     dih       7       2       8       3   241.68513846    -0.00174912
     170     dih      11       2       8       3   117.92511051     0.00113566
     171     dih       6       2       8       3    31.81706571     0.00180946
     172     dih       9       2       8       3   -31.80538315    -0.00187154
     173     dih       1       2       9       3   235.80616395    -0.00351500
     174     dih       7       2       9       3   116.14173452     0.00407809
     175     dih      11       2       9       3     1.79645291    -0.00033370
     176     dih       6       2       9       3   -31.95136330    -0.00172181
     177     dih       8       2       9       3    32.05169900     0.00273514
     178     dih       9       3       7       2   119.46891254     0.00612504
     179     dih       6       3       7       2    -1.29702339     0.00036811
     180     dih       8       3       7       2   238.67074179    -0.00367677
     181     dih       1       3       7       2    31.14063561     0.00347590
     182     dih      11       3       7       2   -33.81065462    -0.00144349
     183     dih       9       3      11       2     2.01064384    -0.00016307
     184     dih       6       3      11       2   241.10811001    -0.00619594
     185     dih       8       3      11       2   121.91193176     0.00359725
     186     dih       1       3      11       2   -31.19334464    -0.00341436
     187     dih       7       3      11       2    33.73730423     0.00168721
Hessian eigenvector     1(     0.004) has overlap with TSRC:    0.37249E-04
Hessian eigenvector     2(     0.008) has overlap with TSRC:    0.15155E-03
Hessian eigenvector     3(     0.009) has overlap with TSRC:    0.11066E-02
Hessian eigenvector     4(     0.009) has overlap with TSRC:    0.39842E-02
Hessian eigenvector     5(     0.010) has overlap with TSRC:    0.52499E-02
Hessian eigenvector     6(     0.020) has overlap with TSRC:    0.11495E+00
Hessian eigenvector     7(     0.021) has overlap with TSRC:    0.31680E-01
Hessian eigenvector     8(     0.024) has overlap with TSRC:    0.27272E-01
Hessian eigenvector     9(     0.024) has overlap with TSRC:    0.97383E-02
Hessian eigenvector    10(     0.032) has overlap with TSRC:    0.12557E+00
Hessian eigenvector    11(     0.048) has overlap with TSRC:    0.89312E-02
Hessian eigenvector    12(     0.055) has overlap with TSRC:    0.56135E-02
Hessian eigenvector    13(     0.062) has overlap with TSRC:    0.39021E-02
Hessian eigenvector    14(     0.063) has overlap with TSRC:    0.14656E-02
Hessian eigenvector    15(     0.067) has overlap with TSRC:    0.35321E-01
Hessian eigenvector    16(     0.073) has overlap with TSRC:    0.35162E-01
Hessian eigenvector    17(     0.094) has overlap with TSRC:    0.25095E+00
Hessian eigenvector    18(     0.105) has overlap with TSRC:    0.37117E-01
Hessian eigenvector    19(     0.226) has overlap with TSRC:    0.36670E-08
Hessian eigenvector    20(     0.249) has overlap with TSRC:    0.87868E-09
Hessian eigenvector    21(     0.361) has overlap with TSRC:    0.14426E-04
Hessian eigenvector    22(     0.365) has overlap with TSRC:    0.12730E-01
Hessian eigenvector    23(     0.375) has overlap with TSRC:    0.23695E-01
Hessian eigenvector    24(     0.380) has overlap with TSRC:    0.22613E-01
Hessian eigenvector    25(     0.382) has overlap with TSRC:    0.21374E-01
Hessian eigenvector    26(     0.420) has overlap with TSRC:    0.50735E-01
Hessian eigenvector    27(     0.500) has overlap with TSRC:    0.15390E-15
Hessian eigenvector    28(     0.509) has overlap with TSRC:    0.19845E-14
Hessian eigenvector    29(     0.526) has overlap with TSRC:    0.50307E-15
Hessian eigenvector    30(     0.601) has overlap with TSRC:    0.13558E-14
Hessian eigenvector    17 has the largest overlap with TSRC:  0.25095
           Primitive Internal Coordinates (atoms in internal order)
-------------------------------------------------------------------------------
    index    type      i       j       k       l   value(A,deg)     Max Ovl Vect
-------------------------------------------------------------------------------
       1     bnd       1       5       0       0     1.46208392    -0.00000000
       2     bnd       1       2       0       0     1.35916813    -0.04691673
       3     bnd       3       9       0       0     1.08313958    -0.00936969
       4     bnd       1       4       0       0     1.08901177    -0.00000000
       5     bnd       3       6       0       0     1.08329955    -0.00908747
       6     bnd       2       7       0       0     1.08720894    -0.01260322
       7     bnd       3       8       0       0     1.08428070    -0.00677651
       8     bnd       5      10       0       0     1.22279656    -0.00000000
       9     bnd       2      11       0       0     1.07000001    -0.01288975
      10     bnd       5      12       0       0     1.07000000     0.00000000
      11     bnd       2       3       0       0     2.50234487     0.35490274
      12     bnd       1       3       0       0     3.21998143     0.43069929
      13     bnd       2       6       0       0     2.85450501     0.32220152
      14     bnd       2       8       0       0     2.84273224     0.33795610
      15     bnd       2       9       0       0     2.85464085     0.32395237
      16     bnd       3       7       0       0     2.68258186     0.31489846
      17     bnd       3      11       0       0     2.62570260     0.31993919
      18     ang       5       1       2       0   122.13193049    -0.05352206
      19     ang       5       1       4       0   116.48149708     0.13140886
      20     ang       5       1       3       0   112.64562536    -0.03680969
      21     ang       2       1       4       0   121.37727346    -0.07864323
      22     ang       2       1       3       0    47.13980479    -0.02302027
      23     ang       4       1       3       0   108.55407601    -0.05655586
      24     ang       1       2       7       0   120.51279539    -0.01554342
      25     ang       1       2      11       0   121.36128216    -0.00809584
      26     ang       1       2       3       0   109.39804563     0.07279479
      27     ang       1       2       6       0    97.36189422     0.08476473
      28     ang       1       2       8       0   131.65236189     0.04535661
      29     ang       1       2       9       0    97.60393042     0.08329254
      30     ang       7       2      11       0   116.67222783     0.00668671
      31     ang       7       2       3       0    87.39281970    -0.00263417
      32     ang       7       2       6       0   109.48758492    -0.02860198
      33     ang       7       2       8       0    76.25016237     0.01173269
      34     ang       7       2       9       0    77.08981866     0.00728298
      35     ang      11       2       3       0    84.51010404    -0.00019602
      36     ang      11       2       6       0    74.58595081     0.00894503
      37     ang      11       2       8       0    73.32443789     0.01384830
      38     ang      11       2       9       0   106.59375947    -0.02638967
      39     ang       6       2       8       0    38.16371016    -0.04561686
      40     ang       6       2       9       0    38.01699289    -0.04370128
      41     ang       8       2       9       0    38.16203879    -0.04589823
      42     ang       9       3       6       0   118.25885447     0.00325098
      43     ang       9       3       8       0   118.48323850    -0.00317831
      44     ang       9       3       2       0    97.56929804    -0.00014193
      45     ang       9       3       1       0    85.73843521     0.02473955
      46     ang       9       3       7       0    85.80331135     0.01288808
      47     ang       9       3      11       0   121.48827574    -0.03154990
      48     ang       6       3       8       0   118.47247906    -0.00258317
      49     ang       6       3       2       0    97.55621160    -0.00119832
      50     ang       6       3       1       0    85.46171991     0.02569728
      51     ang       6       3       7       0   121.43376470    -0.03144361
      52     ang       6       3      11       0    85.98434689     0.01235208
      53     ang       8       3       2       0    96.81291220     0.00713782
      54     ang       8       3       1       0   120.27444570    -0.04262809
      55     ang       8       3       7       0    84.29830723     0.02367414
      56     ang       8       3      11       0    84.05640983     0.02453503
      57     ang       1       3       7       0    41.01789145    -0.06947342
      58     ang       1       3      11       0    41.02628758    -0.06945153
      59     ang       7       3      11       0    40.45513557    -0.04970675
      60     ang       1       5      10       0   124.78014579     0.00000021
      61     ang       1       5      12       0   114.73739870     0.00000028
      62     ang      10       5      12       0   120.48134627     0.00000022
      63     ang       3       6       2       0    60.34468769     0.02718928
      64     ang       2       7       3       0    68.72451165     0.03290795
      65     ang       3       8       2       0    60.93212808     0.02030836
      66     ang       3       9       2       0    60.33684884     0.02636976
      67     ang       2      11       3       0    71.55860906     0.03164904
      68     dih       2       1       5      10   179.74813341    -0.03148447
      69     dih       2       1       5      12    -0.63506965    -0.03136031
      70     dih       4       1       5      10     0.84367616     0.01383647
      71     dih       4       1       5      12   180.46047311     0.01396062
      72     dih       3       1       5      10   127.21624574     0.01544600
      73     dih       3       1       5      12   -53.16695732     0.01557015
      74     dih       5       1       2       7     6.57009342     0.05710784
      75     dih       5       1       2      11   172.35502872    -0.02346397
      76     dih       5       1       2       3   267.85385074     0.01999311
      77     dih       5       1       2       6   248.75690649     0.03763251
      78     dih       5       1       2       8   267.65479661     0.02123246
      79     dih       5       1       2       9   -72.88759900     0.00119630
      80     dih       4       1       2       7   185.42152053     0.01186665
      81     dih       4       1       2      11    -8.79354417    -0.06870517
      82     dih       4       1       2       3    86.70527785    -0.02524809
      83     dih       4       1       2       6    67.60833360    -0.00760869
      84     dih       4       1       2       8    86.50622373    -0.02400873
      85     dih       4       1       2       9   105.96382811    -0.04404490
      86     dih       3       1       2       7    98.71624268     0.03711474
      87     dih       3       1       2      11   264.50117798    -0.04345707
      88     dih       3       1       2       6   -19.09694425     0.01763940
      89     dih       3       1       2       8    -0.19905413     0.00123936
      90     dih       3       1       2       9    19.25855026    -0.01879681
      91     dih       6       3       9       2   102.82836572    -0.00063689
      92     dih       8       3       9       2   257.98018397    -0.00743493
      93     dih       1       3       9       2    20.30570963    -0.04323082
      94     dih       7       3       9       2   -20.82918846     0.02748510
      95     dih      11       3       9       2    -0.82262789     0.00215307
      96     dih       9       3       6       2   257.16400671     0.00002164
      97     dih       8       3       6       2   102.00948582     0.00696865
      98     dih       1       3       6       2   -20.14929510     0.04205297
      99     dih       7       3       6       2     0.52968161    -0.00188047
     100     dih      11       3       6       2    20.99355189    -0.02853059
     101     dih       1       2       7       3   248.95626953    -0.08110016
     102     dih      11       2       7       3    82.52763162    -0.00231844
     103     dih       6       2       7       3     0.44547776    -0.00147687
     104     dih       8       2       7       3    19.49721097    -0.02399579
     105     dih       9       2       7       3   -19.75505464     0.02485460
     106     dih       9       3       8       2   102.45974316     0.00321965
     107     dih       6       3       8       2   257.55808319    -0.00213349
     108     dih       1       3       8       2    -0.18104675     0.00148379
     109     dih       7       3       8       2    20.38290605    -0.02547653
     110     dih      11       3       8       2   -20.29058747     0.02634143
     111     dih       1       2      11       3   109.40048384     0.08461089
     112     dih       7       2      11       3   -84.29422306     0.00405543
     113     dih       6       2      11       3    20.10982482    -0.02529548
     114     dih       8       2      11       3   -19.64380594     0.02464268
     115     dih       9       2      11       3    -0.67870888     0.00156640
     116     dih       1       2       3       9    60.36685908    -0.00054173
     117     dih       1       2       3       6   -59.59533627    -0.00359720
     118     dih       1       2       3       8   180.39271465    -0.00226197
     119     dih       1       2       3       7   121.52101014    -0.00585398
     120     dih       1       2       3      11   238.63730914     0.00126252
     121     dih       7       2       3       9   -61.15415106     0.00531225
     122     dih       7       2       3       6   178.88365359     0.00225678
     123     dih       7       2       3       8    58.87170451     0.00359202
     124     dih       7       2       3       1   238.47898986     0.00585398
     125     dih       7       2       3      11   117.11629900     0.00711650
     126     dih      11       2       3       9   181.72954994    -0.00180425
     127     dih      11       2       3       6    61.76735459    -0.00485972
     128     dih      11       2       3       8   -58.24459449    -0.00352449
     129     dih      11       2       3       1   121.36269086    -0.00126252
     130     dih      11       2       3       7   242.88370100    -0.00711650
     131     dih       6       2       3       9   119.96219535     0.00305547
     132     dih       6       2       3       8   239.98805092     0.00133523
     133     dih       6       2       3       1    59.59533627     0.00359720
     134     dih       6       2       3       7   181.11634641    -0.00225678
     135     dih       6       2       3      11   -61.76735459     0.00485972
     136     dih       8       2       3       9   239.97414443     0.00172024
     137     dih       8       2       3       6   120.01194908    -0.00133523
     138     dih       8       2       3       1   179.60728535     0.00226197
     139     dih       8       2       3       7   -58.87170451    -0.00359202
     140     dih       8       2       3      11    58.24459449     0.00352449
     141     dih       9       2       3       6   240.03780465    -0.00305547
     142     dih       9       2       3       8   120.02585557    -0.00172024
     143     dih       9       2       3       1   -60.36685908     0.00054173
     144     dih       9       2       3       7    61.15415106    -0.00531225
     145     dih       9       2       3      11   178.27045006     0.00180425
     146     dih       5       1       3       9    -6.70885435    -0.04733539
     147     dih       5       1       3       6   234.46351100    -0.04405893
     148     dih       5       1       3       8   113.97123608    -0.04647861
     149     dih       5       1       3       2   113.51971531    -0.04367509
     150     dih       5       1       3       7    81.79279287    -0.05300308
     151     dih       5       1       3      11   145.36861586    -0.03763875
     152     dih       2       1       3       9   239.77143035    -0.00366030
     153     dih       2       1       3       6   120.94379569    -0.00038383
     154     dih       2       1       3       8     0.45152078    -0.00280352
     155     dih       2       1       3       7   -31.72692244    -0.00932799
     156     dih       2       1       3      11    31.84890055     0.00603634
     157     dih       4       1       3       9   123.80841936     0.05286704
     158     dih       4       1       3       6     4.98078471     0.05614350
     159     dih       4       1       3       8   244.48850980     0.05372382
     160     dih       4       1       3       2   244.03698902     0.05652734
     161     dih       4       1       3       7   212.31006658     0.04719935
     162     dih       4       1       3      11   -84.11411043     0.06256368
     163     dih       1       2       6       3   124.88764731     0.01802659
     164     dih       7       2       6       3    -1.18296723     0.00260298
     165     dih      11       2       6       3   245.46600317    -0.01116108
     166     dih       8       2       6       3   -32.05539858     0.00516957
     167     dih       9       2       6       3    31.94330304    -0.00652906
     168     dih       1       2       8       3     0.49575478    -0.00272819
     169     dih       7       2       8       3   241.68513846    -0.00152497
     170     dih      11       2       8       3   117.92511051     0.00374620
     171     dih       6       2       8       3    31.81706571    -0.00322338
     172     dih       9       2       8       3   -31.80538315     0.00323176
     173     dih       1       2       9       3   235.80616395    -0.02181356
     174     dih       7       2       9       3   116.14173452     0.00960742
     175     dih      11       2       9       3     1.79645291    -0.00212133
     176     dih       6       2       9       3   -31.95136330     0.00615667
     177     dih       8       2       9       3    32.05169900    -0.00480287
     178     dih       9       3       7       2   119.46891254     0.00681844
     179     dih       6       3       7       2    -1.29702339     0.00305369
     180     dih       8       3       7       2   238.67074179    -0.00172037
     181     dih       1       3       7       2    31.14063561    -0.01886377
     182     dih      11       3       7       2   -33.81065462     0.01086675
     183     dih       9       3      11       2     2.01064384    -0.00277548
     184     dih       6       3      11       2   241.10811001    -0.00601165
     185     dih       8       3      11       2   121.91193176     0.00196810
     186     dih       1       3      11       2   -31.19334464     0.02064041
     187     dih       7       3      11       2    33.73730423    -0.00916652
 
----------------------------------------------------------------------
Geometry Convergence after Step   1       (Hartree/Angstrom,Angstrom)
----------------------------------------------------------------------
current energy                               -2.32665185 Hartree
energy change                      -2.32665185     0.00012000    F
constrained gradient max            0.04677457     0.00100000    F
constrained gradient rms            0.01321218     0.00066667    F
gradient max                        0.04677457
gradient rms                        0.01321218
cart. step max                      0.02616608     0.01000000    F
cart. step rms                      0.00540170     0.00666667    T
 
 
--------
Geometry
--------
Formula: C4H7O
Atoms
  Index Symbol   x (angstrom)   y (angstrom)   z (angstrom)
      1      C     0.81667804    -0.23714480     0.88359999
      2      C     0.81687229    -0.23492410    -0.47579703
      3      C    -1.53115791    -0.47015412    -1.30823671
      4      H     0.85625081    -1.16749213     1.44838561
      5      C     0.73925617     0.99851041     1.66278066
      6      H    -1.75214669    -1.42397901    -0.84467140
      7      H     0.86546867     0.70181340    -1.02568997
      8      H    -1.29535088    -0.45183950    -2.36639904
      9      H    -1.93415279     0.42651255    -0.85339299
     10      O     0.73066700     1.04785822     2.88753397
     11      H     0.99493503    -1.13887863    -1.04032898
     12      H     0.69225914     1.92197866     1.06607033
 
Total System Charge             0.00000
 
 *** GOStep2 ***

 Energy gradients wrt nuclear displacements
 ==========================================

     Atom      Cartesian (a.u./angstrom)
                 X         Y         Z
 ----------------------------------------
     1 C    -0.000056 -0.000899  0.000095
     2 C     0.001070 -0.004561 -0.002787
     3 C     0.000077 -0.000123 -0.000070
     4 H     0.000047 -0.000302 -0.000126
     5 C    -0.000664  0.016484 -0.014790
     6 H    -0.000001  0.000020 -0.000016
     7 H    -0.000024  0.000097  0.000057
     8 H     0.000001  0.000018  0.000004
     9 H     0.000000  0.000041  0.000009
    10 O    -0.000102 -0.000337  0.005288
    11 H    -0.001013  0.004484  0.002805
    12 H     0.000664 -0.014921  0.009531
 ----------------------------------------
 Mulliken charges used for AMS results%charges...
Hessian eigenvector     1(     0.004) has overlap with TSRC:    0.23049E-04
Hessian eigenvector     2(     0.008) has overlap with TSRC:    0.28623E-03
Hessian eigenvector     3(     0.009) has overlap with TSRC:    0.14763E-02
Hessian eigenvector     4(     0.009) has overlap with TSRC:    0.38918E-02
Hessian eigenvector     5(     0.010) has overlap with TSRC:    0.49278E-02
Hessian eigenvector     6(     0.020) has overlap with TSRC:    0.11564E+00
Hessian eigenvector     7(     0.021) has overlap with TSRC:    0.31564E-01
Hessian eigenvector     8(     0.024) has overlap with TSRC:    0.26939E-01
Hessian eigenvector     9(     0.024) has overlap with TSRC:    0.98258E-02
Hessian eigenvector    10(     0.032) has overlap with TSRC:    0.12538E+00
Hessian eigenvector    11(     0.048) has overlap with TSRC:    0.91841E-02
Hessian eigenvector    12(     0.056) has overlap with TSRC:    0.61871E-02
Hessian eigenvector    13(     0.062) has overlap with TSRC:    0.39720E-02
Hessian eigenvector    14(     0.063) has overlap with TSRC:    0.13685E-02
Hessian eigenvector    15(     0.067) has overlap with TSRC:    0.35075E-01
Hessian eigenvector    16(     0.074) has overlap with TSRC:    0.34693E-01
Hessian eigenvector    17(     0.094) has overlap with TSRC:    0.25115E+00
Hessian eigenvector    18(     0.105) has overlap with TSRC:    0.36025E-01
Hessian eigenvector    19(     0.226) has overlap with TSRC:    0.19110E-03
Hessian eigenvector    20(     0.248) has overlap with TSRC:    0.85821E-03
Hessian eigenvector    21(     0.316) has overlap with TSRC:    0.51973E-02
Hessian eigenvector    22(     0.362) has overlap with TSRC:    0.20817E-02
Hessian eigenvector    23(     0.367) has overlap with TSRC:    0.16452E-01
Hessian eigenvector    24(     0.376) has overlap with TSRC:    0.19286E-01
Hessian eigenvector    25(     0.380) has overlap with TSRC:    0.32049E-01
Hessian eigenvector    26(     0.400) has overlap with TSRC:    0.10942E-01
Hessian eigenvector    27(     0.421) has overlap with TSRC:    0.49731E-01
Hessian eigenvector    28(     0.500) has overlap with TSRC:    0.27841E-05
Hessian eigenvector    29(     0.526) has overlap with TSRC:    0.38917E-04
Hessian eigenvector    30(     0.600) has overlap with TSRC:    0.19703E-03
Hessian eigenvector    17 has the largest overlap with TSRC:  0.25115
           Primitive Internal Coordinates (atoms in internal order)
-------------------------------------------------------------------------------
    index    type      i       j       k       l   value(A,deg)     Max Ovl Vect
-------------------------------------------------------------------------------
       1     bnd       1       5       0       0     1.46286036    -0.00039012
       2     bnd       1       2       0       0     1.35939885    -0.04710557
       3     bnd       3       9       0       0     1.08318918    -0.00938352
       4     bnd       1       4       0       0     1.08907987    -0.00007701
       5     bnd       3       6       0       0     1.08328701    -0.00908815
       6     bnd       2       7       0       0     1.08729987    -0.01260698
       7     bnd       3       8       0       0     1.08427299    -0.00675370
       8     bnd       5      10       0       0     1.22577716    -0.00168076
       9     bnd       2      11       0       0     1.08052601    -0.01074844
      10     bnd       5      12       0       0     1.10048423     0.00674063
      11     bnd       2       3       0       0     2.50230589     0.35513015
      12     bnd       1       3       0       0     3.22036878     0.43176184
      13     bnd       2       6       0       0     2.85478167     0.32244671
      14     bnd       2       8       0       0     2.84304677     0.33830233
      15     bnd       2       9       0       0     2.85450804     0.32393719
      16     bnd       3       7       0       0     2.68275222     0.31474754
      17     bnd       3      11       0       0     2.62680653     0.32045815
      18     ang       5       1       2       0   122.09122578    -0.05255038
      19     ang       5       1       4       0   116.56883926     0.12900499
      20     ang       5       1       3       0   112.64725158    -0.03592633
      21     ang       2       1       4       0   121.33086407    -0.07720118
      22     ang       2       1       3       0    47.12560883    -0.02335462
      23     ang       4       1       3       0   108.52042199    -0.05526474
      24     ang       1       2       7       0   120.47449973    -0.01555913
      25     ang       1       2      11       0   121.40717530    -0.00808577
      26     ang       1       2       3       0   109.41335227     0.07331658
      27     ang       1       2       6       0    97.37735432     0.08526726
      28     ang       1       2       8       0   131.66390292     0.04585309
      29     ang       1       2       9       0    97.61530778     0.08378948
      30     ang       7       2      11       0   116.68895947     0.00665090
      31     ang       7       2       3       0    87.40260375    -0.00282090
      32     ang       7       2       6       0   109.49409043    -0.02880827
      33     ang       7       2       8       0    76.26823514     0.01157817
      34     ang       7       2       9       0    77.08793148     0.00709588
      35     ang      11       2       3       0    84.38649925    -0.00038697
      36     ang      11       2       6       0    74.47483857     0.00877462
      37     ang      11       2       8       0    73.21213677     0.01367322
      38     ang      11       2       9       0   106.47268996    -0.02657580
      39     ang       6       2       8       0    38.16085718    -0.04565872
      40     ang       6       2       9       0    38.01439674    -0.04371021
      41     ang       8       2       9       0    38.15927864    -0.04591508
      42     ang       9       3       6       0   118.24780040     0.00329076
      43     ang       9       3       8       0   118.47199429    -0.00316619
      44     ang       9       3       2       0    97.56191813    -0.00026509
      45     ang       9       3       1       0    85.73025746     0.02472637
      46     ang       9       3       7       0    85.78565410     0.01275919
      47     ang       9       3      11       0   121.71491074    -0.03125816
      48     ang       6       3       8       0   118.48037582    -0.00262058
      49     ang       6       3       2       0    97.57562669    -0.00117875
      50     ang       6       3       1       0    85.47935967     0.02581008
      51     ang       6       3       7       0   121.45423051    -0.03141534
      52     ang       6       3      11       0    85.89296436     0.01217041
      53     ang       8       3       2       0    96.83433783     0.00720744
      54     ang       8       3       1       0   120.29480280    -0.04274599
      55     ang       8       3       7       0    84.32532936     0.02374482
      56     ang       8       3      11       0    83.95513802     0.02437347
      57     ang       1       3       7       0    41.01026049    -0.06962631
      58     ang       1       3      11       0    41.22724164    -0.06925615
      59     ang       7       3      11       0    40.65699148    -0.04935245
      60     ang       1       5      10       0   124.51162557     0.00085409
      61     ang       1       5      12       0   114.97753093    -0.00036782
      62     ang      10       5      12       0   120.51010905    -0.00048442
      63     ang       3       6       2       0    60.32884329     0.02718935
      64     ang       2       7       3       0    68.71402011     0.03308607
      65     ang       3       8       2       0    60.91451219     0.02026397
      66     ang       3       9       2       0    60.34168352     0.02648788
      67     ang       2      11       3       0    71.44803396     0.03142458
      68     dih       2       1       5      10   179.70533081    -0.03136066
      69     dih       2       1       5      12    -0.60623723    -0.03104412
      70     dih       4       1       5      10     0.78779222     0.01336513
      71     dih       4       1       5      12   180.47622418     0.01368167
      72     dih       3       1       5      10   127.19126310     0.01550532
      73     dih       3       1       5      12   -53.12030494     0.01582187
      74     dih       5       1       2       7     6.54425406     0.05697153
      75     dih       5       1       2      11   172.44886545    -0.02380455
      76     dih       5       1       2       3   267.82300497     0.01975677
      77     dih       5       1       2       6   248.72910238     0.03739161
      78     dih       5       1       2       8   267.63088852     0.02098230
      79     dih       5       1       2       9   -72.91677221     0.00099208
      80     dih       4       1       2       7   185.41081875     0.01231266
      81     dih       4       1       2      11    -8.68456985    -0.06846343
      82     dih       4       1       2       3    86.68956967    -0.02490211
      83     dih       4       1       2       6    67.59566708    -0.00726726
      84     dih       4       1       2       8    86.49745321    -0.02367657
      85     dih       4       1       2       9   105.94979249    -0.04366680
      86     dih       3       1       2       7    98.72124908     0.03721476
      87     dih       3       1       2      11   264.62586048    -0.04356132
      88     dih       3       1       2       6   -19.09390259     0.01763484
      89     dih       3       1       2       8    -0.19211646     0.00122553
      90     dih       3       1       2       9    19.26022282    -0.01876469
      91     dih       6       3       9       2   102.84382133    -0.00067543
      92     dih       8       3       9       2   257.96234966    -0.00744729
      93     dih       1       3       9       2    20.30387742    -0.04338540
      94     dih       7       3       9       2   -20.82409706     0.02747978
      95     dih      11       3       9       2    -0.83292941     0.00212777
      96     dih       9       3       6       2   257.16417035     0.00014338
      97     dih       8       3       6       2   102.04775065     0.00705176
      98     dih       1       3       6       2   -20.14711298     0.04221596
      99     dih       7       3       6       2     0.51167909    -0.00188473
     100     dih      11       3       6       2    21.20062256    -0.02816605
     101     dih       1       2       7       3   248.93911112    -0.08159546
     102     dih      11       2       7       3    82.39174044    -0.00262490
     103     dih       6       2       7       3     0.43018251    -0.00148169
     104     dih       8       2       7       3    19.49686466    -0.02399811
     105     dih       9       2       7       3   -19.75161503     0.02484010
     106     dih       9       3       8       2   102.46090239     0.00311985
     107     dih       6       3       8       2   257.52111713    -0.00218770
     108     dih       1       3       8       2    -0.17476224     0.00147400
     109     dih       7       3       8       2    20.38723826    -0.02546550
     110     dih      11       3       8       2   -20.49120766     0.02599396
     111     dih       1       2      11       3   109.34790760     0.08510899
     112     dih       7       2      11       3   -84.23915705     0.00435916
     113     dih       6       2      11       3    20.11986034    -0.02529557
     114     dih       8       2      11       3   -19.65406938     0.02465062
     115     dih       9       2      11       3    -0.67893517     0.00155924
     116     dih       1       2       3       9    60.36158101    -0.00051861
     117     dih       1       2       3       6   -59.59194369    -0.00359144
     118     dih       1       2       3       8   180.37902081    -0.00223730
     119     dih       1       2       3       7   121.48619183    -0.00585794
     120     dih       1       2       3      11   238.63055784     0.00126610
     121     dih       7       2       3       9   -61.12461082     0.00533933
     122     dih       7       2       3       6   178.92186447     0.00226650
     123     dih       7       2       3       8    58.89282898     0.00362064
     124     dih       7       2       3       1   238.51380817     0.00585794
     125     dih       7       2       3      11   117.14436601     0.00712404
     126     dih      11       2       3       9   181.73102317    -0.00178471
     127     dih      11       2       3       6    61.77749846    -0.00485754
     128     dih      11       2       3       8   -58.25153703    -0.00350340
     129     dih      11       2       3       1   121.36944216    -0.00126610
     130     dih      11       2       3       7   242.85563399    -0.00712404
     131     dih       6       2       3       9   119.95352471     0.00307283
     132     dih       6       2       3       8   239.97096451     0.00135414
     133     dih       6       2       3       1    59.59194369     0.00359144
     134     dih       6       2       3       7   181.07813553    -0.00226650
     135     dih       6       2       3      11   -61.77749846     0.00485754
     136     dih       8       2       3       9   239.98256020     0.00171869
     137     dih       8       2       3       6   120.02903549    -0.00135414
     138     dih       8       2       3       1   179.62097919     0.00223730
     139     dih       8       2       3       7   -58.89282898    -0.00362064
     140     dih       8       2       3      11    58.25153703     0.00350340
     141     dih       9       2       3       6   240.04647529    -0.00307283
     142     dih       9       2       3       8   120.01743980    -0.00171869
     143     dih       9       2       3       1   -60.36158101     0.00051861
     144     dih       9       2       3       7    61.12461082    -0.00533933
     145     dih       9       2       3      11   178.26897683     0.00178471
     146     dih       5       1       3       9    -6.76893695    -0.04670722
     147     dih       5       1       3       6   234.41580361    -0.04345821
     148     dih       5       1       3       8   113.89790410    -0.04587503
     149     dih       5       1       3       2   113.46205686    -0.04309927
     150     dih       5       1       3       7    81.71552087    -0.05254944
     151     dih       5       1       3      11   145.49207435    -0.03661958
     152     dih       2       1       3       9   239.76900619    -0.00360795
     153     dih       2       1       3       6   120.95374675    -0.00035894
     154     dih       2       1       3       8     0.43584724    -0.00277576
     155     dih       2       1       3       7   -31.74653599    -0.00945018
     156     dih       2       1       3      11    32.03001749     0.00647969
     157     dih       4       1       3       9   123.83905498     0.05204417
     158     dih       4       1       3       6     5.02379555     0.05529318
     159     dih       4       1       3       8   244.50589604     0.05287636
     160     dih       4       1       3       2   244.07004879     0.05565212
     161     dih       4       1       3       7   212.32351280     0.04620194
     162     dih       4       1       3      11   -83.89993372     0.06213181
     163     dih       1       2       6       3   124.89536662     0.01820181
     164     dih       7       2       6       3    -1.14253020     0.00261496
     165     dih      11       2       6       3   245.51904675    -0.01109579
     166     dih       8       2       6       3   -32.04566064     0.00516797
     167     dih       9       2       6       3    31.95240032    -0.00652043
     168     dih       1       2       8       3     0.47850854    -0.00269482
     169     dih       7       2       8       3   241.70143528    -0.00143849
     170     dih      11       2       8       3   117.87592707     0.00370651
     171     dih       6       2       8       3    31.80773767    -0.00321357
     172     dih       9       2       8       3   -31.81446710     0.00321131
     173     dih       1       2       9       3   235.79604765    -0.02196697
     174     dih       7       2       9       3   116.17309702     0.00956775
     175     dih      11       2       9       3     1.79647849    -0.00210334
     176     dih       6       2       9       3   -31.95106631     0.00618597
     177     dih       8       2       9       3    32.05111342    -0.00482860
     178     dih       9       3       7       2   119.49367994     0.00679913
     179     dih       6       3       7       2    -1.25284359     0.00306464
     180     dih       8       3       7       2   238.68306045    -0.00171722
     181     dih       1       3       7       2    31.15728979    -0.01901704
     182     dih      11       3       7       2   -33.99515150     0.01052071
     183     dih       9       3      11       2     2.01729649    -0.00274591
     184     dih       6       3      11       2   241.12506821    -0.00599113
     185     dih       8       3      11       2   121.89206574     0.00197541
     186     dih       1       3      11       2   -31.05036515     0.02103653
     187     dih       7       3      11       2    33.57175443    -0.00943360
 
----------------------------------------------------------------------
Geometry Convergence after Step   2       (Hartree/Angstrom,Angstrom)
----------------------------------------------------------------------
current energy                               -2.32788792 Hartree
energy change                      -0.00123607     0.00012000    F
constrained gradient max            0.01648186     0.00100000    F
constrained gradient rms            0.00497939     0.00066667    F
gradient max                        0.01648186
gradient rms                        0.00497939
cart. step max                      0.01033011     0.01000000    F
cart. step rms                      0.00230147     0.00666667    T
 
 
--------
Geometry
--------
Formula: C4H7O
Atoms
  Index Symbol   x (angstrom)   y (angstrom)   z (angstrom)
      1      C     0.81576581    -0.23800654     0.88478698
      2      C     0.81619296    -0.23424966    -0.47460726
      3      C    -1.53107381    -0.47066455    -1.30843983
      4      H     0.85503717    -1.16856679     1.44892440
      5      C     0.73806658     0.99542480     1.66588545
      6      H    -1.75172556    -1.42507135    -0.84586613
      7      H     0.86461835     0.70290334    -1.02370235
      8      H    -1.29493616    -0.45126111    -2.36652711
      9      H    -1.93507382     0.42525214    -0.85305448
     10      O     0.73229554     1.04548778     2.88689576
     11      H     0.99548786    -1.14129587    -1.04240012
     12      H     0.69492398     1.93230877     1.06195913
 
Total System Charge             0.00000
 
 *** GOStep3 ***

 Energy gradients wrt nuclear displacements
 ==========================================

     Atom      Cartesian (a.u./angstrom)
                 X         Y         Z
 ----------------------------------------
     1 C     0.000369 -0.000046  0.001285
     2 C     0.000124  0.000203 -0.000162
     3 C     0.000158 -0.000099 -0.000038
     4 H     0.000019 -0.000001 -0.000136
     5 C    -0.001437  0.002154  0.000223
     6 H    -0.000020  0.000007 -0.000006
     7 H    -0.000013  0.000074  0.000045
     8 H    -0.000006  0.000020 -0.000020
     9 H    -0.000008  0.000011 -0.000006
    10 O     0.000440 -0.000308 -0.002696
    11 H    -0.000142 -0.000296 -0.000257
    12 H     0.000516 -0.001720  0.001767
 ----------------------------------------
 Mulliken charges used for AMS results%charges...
Hessian eigenvector     1(     0.004) has overlap with TSRC:    0.63556E-04
Hessian eigenvector     2(     0.007) has overlap with TSRC:    0.54898E-03
Hessian eigenvector     3(     0.009) has overlap with TSRC:    0.10677E-02
Hessian eigenvector     4(     0.010) has overlap with TSRC:    0.66115E-02
Hessian eigenvector     5(     0.016) has overlap with TSRC:    0.84546E-02
Hessian eigenvector     6(     0.020) has overlap with TSRC:    0.11562E+00
Hessian eigenvector     7(     0.021) has overlap with TSRC:    0.30081E-01
Hessian eigenvector     8(     0.024) has overlap with TSRC:    0.27572E-01
Hessian eigenvector     9(     0.024) has overlap with TSRC:    0.86290E-02
Hessian eigenvector    10(     0.032) has overlap with TSRC:    0.12541E+00
Hessian eigenvector    11(     0.048) has overlap with TSRC:    0.91511E-02
Hessian eigenvector    12(     0.056) has overlap with TSRC:    0.60460E-02
Hessian eigenvector    13(     0.062) has overlap with TSRC:    0.40881E-02
Hessian eigenvector    14(     0.062) has overlap with TSRC:    0.18964E-02
Hessian eigenvector    15(     0.067) has overlap with TSRC:    0.35295E-01
Hessian eigenvector    16(     0.074) has overlap with TSRC:    0.34455E-01
Hessian eigenvector    17(     0.094) has overlap with TSRC:    0.25134E+00
Hessian eigenvector    18(     0.105) has overlap with TSRC:    0.35073E-01
Hessian eigenvector    19(     0.216) has overlap with TSRC:    0.19027E-02
Hessian eigenvector    20(     0.244) has overlap with TSRC:    0.12606E-02
Hessian eigenvector    21(     0.295) has overlap with TSRC:    0.35591E-02
Hessian eigenvector    22(     0.362) has overlap with TSRC:    0.16665E-02
Hessian eigenvector    23(     0.366) has overlap with TSRC:    0.15296E-01
Hessian eigenvector    24(     0.376) has overlap with TSRC:    0.20388E-01
Hessian eigenvector    25(     0.380) has overlap with TSRC:    0.31938E-01
Hessian eigenvector    26(     0.392) has overlap with TSRC:    0.56411E-02
Hessian eigenvector    27(     0.421) has overlap with TSRC:    0.50885E-01
Hessian eigenvector    28(     0.500) has overlap with TSRC:    0.15496E-04
Hessian eigenvector    29(     0.526) has overlap with TSRC:    0.42803E-04
Hessian eigenvector    30(     0.600) has overlap with TSRC:    0.37622E-03
Hessian eigenvector    17 has the largest overlap with TSRC:  0.25134
           Primitive Internal Coordinates (atoms in internal order)
-------------------------------------------------------------------------------
    index    type      i       j       k       l   value(A,deg)     Max Ovl Vect
-------------------------------------------------------------------------------
       1     bnd       1       5       0       0     1.46202082    -0.00044227
       2     bnd       1       2       0       0     1.35939950    -0.04733048
       3     bnd       3       9       0       0     1.08317060    -0.00939537
       4     bnd       1       4       0       0     1.08891489    -0.00008463
       5     bnd       3       6       0       0     1.08330696    -0.00909422
       6     bnd       2       7       0       0     1.08724707    -0.01260101
       7     bnd       3       8       0       0     1.08429064    -0.00673909
       8     bnd       5      10       0       0     1.22204983    -0.00170894
       9     bnd       2      11       0       0     1.08501991    -0.01017209
      10     bnd       5      12       0       0     1.11549983     0.00879780
      11     bnd       2       3       0       0     2.50216508     0.35536355
      12     bnd       1       3       0       0     3.22056358     0.43263097
      13     bnd       2       6       0       0     2.85483711     0.32265899
      14     bnd       2       8       0       0     2.84311816     0.33859903
      15     bnd       2       9       0       0     2.85440604     0.32393802
      16     bnd       3       7       0       0     2.68284885     0.31459864
      17     bnd       3      11       0       0     2.62755350     0.32063983
      18     ang       5       1       2       0   122.13680110    -0.05175960
      19     ang       5       1       4       0   116.49326334     0.12698588
      20     ang       5       1       3       0   112.70917554    -0.03526760
      21     ang       2       1       4       0   121.36052329    -0.07596334
      22     ang       2       1       3       0    47.11133888    -0.02361820
      23     ang       4       1       3       0   108.50311309    -0.05406188
      24     ang       1       2       7       0   120.49257108    -0.01561745
      25     ang       1       2      11       0   121.40213050    -0.00805187
      26     ang       1       2       3       0   109.43196187     0.07374575
      27     ang       1       2       6       0    97.38925530     0.08569711
      28     ang       1       2       8       0   131.68167371     0.04626064
      29     ang       1       2       9       0    97.63828396     0.08418438
      30     ang       7       2      11       0   116.67453917     0.00664048
      31     ang       7       2       3       0    87.41643534    -0.00301128
      32     ang       7       2       6       0   109.50725736    -0.02901565
      33     ang       7       2       8       0    76.27841580     0.01142390
      34     ang       7       2       9       0    77.10412722     0.00690137
      35     ang      11       2       3       0    84.35540899    -0.00049853
      36     ang      11       2       6       0    74.44762633     0.00867477
      37     ang      11       2       8       0    73.18202343     0.01357195
      38     ang      11       2       9       0   106.44186954    -0.02668358
      39     ang       6       2       8       0    38.15997733    -0.04569679
      40     ang       6       2       9       0    38.01382738    -0.04371723
      41     ang       8       2       9       0    38.15890388    -0.04592928
      42     ang       9       3       6       0   118.24335598     0.00333740
      43     ang       9       3       8       0   118.46912473    -0.00314619
      44     ang       9       3       2       0    97.56421115    -0.00038292
      45     ang       9       3       1       0    85.74076368     0.02469033
      46     ang       9       3       7       0    85.79217651     0.01262973
      47     ang       9       3      11       0   121.81533183    -0.03127076
      48     ang       6       3       8       0   118.47703942    -0.00265406
      49     ang       6       3       2       0    97.58634359    -0.00117929
      50     ang       6       3       1       0    85.48498124     0.02591073
      51     ang       6       3       7       0   121.46300589    -0.03140526
      52     ang       6       3      11       0    85.85733444     0.01211663
      53     ang       8       3       2       0    96.84601703     0.00724853
      54     ang       8       3       1       0   120.30208638    -0.04287041
      55     ang       8       3       7       0    84.33389992     0.02379337
      56     ang       8       3      11       0    83.91292676     0.02434969
      57     ang       1       3       7       0    41.01078354    -0.06977206
      58     ang       1       3      11       0    41.30468769    -0.06929807
      59     ang       7       3      11       0    40.73431655    -0.04925025
      60     ang       1       5      10       0   124.65385644     0.00146745
      61     ang       1       5      12       0   114.92121560    -0.00092436
      62     ang      10       5      12       0   120.42069796    -0.00053728
      63     ang       3       6       2       0    60.31872896     0.02720705
      64     ang       2       7       3       0    68.70205712     0.03326600
      65     ang       3       8       2       0    60.90361320     0.02024457
      66     ang       3       9       2       0    60.33908200     0.02660177
      67     ang       2      11       3       0    71.38088497     0.03143064
      68     dih       2       1       5      10   179.88409196    -0.03141753
      69     dih       2       1       5      12    -0.86443911    -0.03041610
      70     dih       4       1       5      10     0.98647206     0.01273670
      71     dih       4       1       5      12   180.23794099     0.01373813
      72     dih       3       1       5      10   127.35568340     0.01541430
      73     dih       3       1       5      12   -53.39284767     0.01641573
      74     dih       5       1       2       7     6.53921321     0.05687991
      75     dih       5       1       2      11   172.43510492    -0.02406522
      76     dih       5       1       2       3   267.78058877     0.01964891
      77     dih       5       1       2       6   248.69063849     0.03726961
      78     dih       5       1       2       8   267.57926193     0.02088422
      79     dih       5       1       2       9   -72.95428178     0.00090089
      80     dih       4       1       2       7   185.38379618     0.01278496
      81     dih       4       1       2      11    -8.72031211    -0.06816017
      82     dih       4       1       2       3    86.62517174    -0.02444604
      83     dih       4       1       2       6    67.53522146    -0.00682534
      84     dih       4       1       2       8    86.42384491    -0.02321073
      85     dih       4       1       2       9   105.89030119    -0.04319406
      86     dih       3       1       2       7    98.75862443     0.03723100
      87     dih       3       1       2      11   264.65451615    -0.04371413
      88     dih       3       1       2       6   -19.08995028     0.01762071
      89     dih       3       1       2       8    -0.20132684     0.00123531
      90     dih       3       1       2       9    19.26512945    -0.01874802
      91     dih       6       3       9       2   102.85648185    -0.00073252
      92     dih       8       3       9       2   257.94812811    -0.00743149
      93     dih       1       3       9       2    20.30366298    -0.04353102
      94     dih       7       3       9       2   -20.82436780     0.02747562
      95     dih      11       3       9       2    -0.83868650     0.00211754
      96     dih       9       3       6       2   257.15642132     0.00026884
      97     dih       8       3       6       2   102.06676843     0.00709091
      98     dih       1       3       6       2   -20.13907236     0.04234877
      99     dih       7       3       6       2     0.51558525    -0.00189356
     100     dih      11       3       6       2    21.28759839    -0.02807472
     101     dih       1       2       7       3   248.90555442    -0.08197218
     102     dih      11       2       7       3    82.36549306    -0.00284679
     103     dih       6       2       7       3     0.43348186    -0.00149024
     104     dih       8       2       7       3    19.49324045    -0.02399395
     105     dih       9       2       7       3   -19.75249895     0.02482856
     106     dih       9       3       8       2   102.46966919     0.00301154
     107     dih       6       3       8       2   257.50266114    -0.00220287
     108     dih       1       3       8       2    -0.18307781     0.00148531
     109     dih       7       3       8       2    20.38318234    -0.02544850
     110     dih      11       3       8       2   -20.57387142     0.02590951
     111     dih       1       2      11       3   109.35021121     0.08554943
     112     dih       7       2      11       3   -84.24092176     0.00462990
     113     dih       6       2      11       3    20.12308267    -0.02530223
     114     dih       8       2      11       3   -19.65584424     0.02466292
     115     dih       9       2      11       3    -0.68018845     0.00155379
     116     dih       1       2       3       9    60.37952173    -0.00054448
     117     dih       1       2       3       6   -59.57239623    -0.00363837
     118     dih       1       2       3       8   180.39709549    -0.00225871
     119     dih       1       2       3       7   121.51394878    -0.00592406
     120     dih       1       2       3      11   238.64504969     0.00122565
     121     dih       7       2       3       9   -61.13442705     0.00537958
     122     dih       7       2       3       6   178.91365500     0.00228568
     123     dih       7       2       3       8    58.88314671     0.00366535
     124     dih       7       2       3       1   238.48605122     0.00592406
     125     dih       7       2       3      11   117.13110091     0.00714971
     126     dih      11       2       3       9   181.73447204    -0.00177013
     127     dih      11       2       3       6    61.78255409    -0.00486403
     128     dih      11       2       3       8   -58.24795420    -0.00348436
     129     dih      11       2       3       1   121.35495031    -0.00122565
     130     dih      11       2       3       7   242.86889909    -0.00714971
     131     dih       6       2       3       9   119.95191795     0.00309390
     132     dih       6       2       3       8   239.96949171     0.00137966
     133     dih       6       2       3       1    59.57239623     0.00363837
     134     dih       6       2       3       7   181.08634500    -0.00228568
     135     dih       6       2       3      11   -61.78255409     0.00486403
     136     dih       8       2       3       9   239.98242624     0.00171423
     137     dih       8       2       3       6   120.03050829    -0.00137966
     138     dih       8       2       3       1   179.60290451     0.00225871
     139     dih       8       2       3       7   -58.88314671    -0.00366535
     140     dih       8       2       3      11    58.24795420     0.00348436
     141     dih       9       2       3       6   240.04808205    -0.00309390
     142     dih       9       2       3       8   120.01757376    -0.00171423
     143     dih       9       2       3       1   -60.37952173     0.00054448
     144     dih       9       2       3       7    61.13442705    -0.00537958
     145     dih       9       2       3      11   178.26552796     0.00177013
     146     dih       5       1       3       9    -6.74325160    -0.04618197
     147     dih       5       1       3       6   234.44808476    -0.04297191
     148     dih       5       1       3       8   113.92874849    -0.04538124
     149     dih       5       1       3       2   113.47209378    -0.04258024
     150     dih       5       1       3       7    81.73906197    -0.05217368
     151     dih       5       1       3      11   145.58922636    -0.03593827
     152     dih       2       1       3       9   239.78465462    -0.00360173
     153     dih       2       1       3       6   120.97599097    -0.00039167
     154     dih       2       1       3       8     0.45665470    -0.00280099
     155     dih       2       1       3       7   -31.73303181    -0.00959343
     156     dih       2       1       3      11    32.11713258     0.00664197
     157     dih       4       1       3       9   123.79796486     0.05138313
     158     dih       4       1       3       6     4.98930121     0.05459319
     159     dih       4       1       3       8   244.46996495     0.05218386
     160     dih       4       1       3       2   244.01331024     0.05498486
     161     dih       4       1       3       7   212.28027843     0.04539142
     162     dih       4       1       3      11   -83.86955718     0.06162683
     163     dih       1       2       6       3   124.91900707     0.01829940
     164     dih       7       2       6       3    -1.15133642     0.00263698
     165     dih      11       2       6       3   245.53489881    -0.01106659
     166     dih       8       2       6       3   -32.04463491     0.00516161
     167     dih       9       2       6       3    31.95390611    -0.00651635
     168     dih       1       2       8       3     0.50140877    -0.00272002
     169     dih       7       2       8       3   241.68712989    -0.00133440
     170     dih      11       2       8       3   117.86871915     0.00369173
     171     dih       6       2       8       3    31.80698352    -0.00320059
     172     dih       9       2       8       3   -31.81518639     0.00319567
     173     dih       1       2       9       3   235.80593445    -0.02213346
     174     dih       7       2       9       3   116.16836073     0.00953974
     175     dih      11       2       9       3     1.79967547    -0.00208955
     176     dih       6       2       9       3   -31.95117231     0.00621429
     177     dih       8       2       9       3    32.05016961    -0.00485209
     178     dih       9       3       7       2   119.48549729     0.00679384
     179     dih       6       3       7       2    -1.26247067     0.00308679
     180     dih       8       3       7       2   238.66975814    -0.00168890
     181     dih       1       3       7       2    31.14060150    -0.01912182
     182     dih      11       3       7       2   -34.08657344     0.01045058
     183     dih       9       3      11       2     2.02350111    -0.00272869
     184     dih       6       3      11       2   241.13206207    -0.00599046
     185     dih       8       3      11       2   121.89067140     0.00199823
     186     dih       1       3      11       2   -30.99658147     0.02125328
     187     dih       7       3      11       2    33.51385571    -0.00950666
 
----------------------------------------------------------------------
Geometry Convergence after Step   3       (Hartree/Angstrom,Angstrom)
----------------------------------------------------------------------
current energy                               -2.32805618 Hartree
energy change                      -0.00016826     0.00012000    F
constrained gradient max            0.00270321     0.00100000    F
constrained gradient rms            0.00079518     0.00066667    F
gradient max                        0.00270321
gradient rms                        0.00079518
cart. step max                      0.00450972     0.01000000    T
cart. step rms                      0.00146464     0.00666667    T
 
 
--------
Geometry
--------
Formula: C4H7O
Atoms
  Index Symbol   x (angstrom)   y (angstrom)   z (angstrom)
      1      C     0.81748736    -0.23857289     0.88414881
      2      C     0.81675988    -0.23432365    -0.47502981
      3      C    -1.53088492    -0.46998525    -1.30749084
      4      H     0.85469785    -1.16918326     1.44839629
      5      C     0.74257630     0.99451123     1.66621410
      6      H    -1.75171333    -1.42420252    -0.84457540
      7      H     0.86552434     0.70264866    -1.02433144
      8      H    -1.29534835    -0.45107575    -2.36572917
      9      H    -1.93436705     0.42618382    -0.85218840
[...]
     5     C       0.008660   0.007044   0.011034
     6     H       0.032158   0.015001   0.014913
     7     H      -0.483420  -0.021935  -0.028098
     8     H       0.010129   0.010644   0.007195
     9     H      -0.078545   0.002418  -0.026075
    10     O       0.000689   0.008176   0.014924
    11     H       0.626189   0.054802   0.006205
    12     H       0.373351   0.031414   0.022178
 
 Mode:    17      Frequency (cm-1):      754.5965     Intensity (km/mol):        7.1136
 Index  Atom      ---- Displacements (x/y/z) ----
     1     C       0.015924  -0.001839   0.021101
     2     C       0.005294   0.001278  -0.001458
     3     C       0.083352   0.008206   0.030591
     4     H      -0.023670   0.010487   0.043972
     5     C       0.001787   0.006711  -0.005041
     6     H      -0.516254   0.004862  -0.221576
     7     H       0.161445   0.025134   0.049301
     8     H      -0.532284  -0.054831  -0.125490
     9     H      -0.503029  -0.107345  -0.220090
    10     O      -0.000347  -0.005370  -0.003485
    11     H       0.165821   0.032097  -0.003224
    12     H      -0.012895   0.003875  -0.005688
 
 Mode:    18      Frequency (cm-1):      899.9842     Intensity (km/mol):       17.0927
 Index  Atom      ---- Displacements (x/y/z) ----
     1     C       0.048928  -0.069316  -0.019729
     2     C      -0.021439  -0.113814  -0.065874
     3     C      -0.019756  -0.000579  -0.006040
     4     H      -0.315783   0.080834   0.262652
     5     C      -0.007778   0.128183   0.017983
     6     H       0.051386   0.000528   0.025180
     7     H       0.004483   0.202992   0.454301
     8     H       0.053864   0.006609   0.012576
     9     H       0.034571   0.013046   0.011633
    10     O       0.000976  -0.006307   0.036181
    11     H       0.213163   0.261731  -0.594074
    12     H      -0.056641   0.195485   0.130564
 
 Mode:    19      Frequency (cm-1):      923.1950     Intensity (km/mol):       10.7454
 Index  Atom      ---- Displacements (x/y/z) ----
     1     C       0.036689   0.023992   0.024942
     2     C      -0.119234   0.016362  -0.010505
     3     C      -0.059260  -0.005735  -0.018543
     4     H       0.009420   0.010138   0.004790
     5     C       0.015998  -0.034340  -0.009910
     6     H       0.084010  -0.006626   0.039631
     7     H       0.650410  -0.005398   0.010679
     8     H       0.091153   0.009295   0.019888
     9     H       0.085277   0.024051   0.042455
    10     O      -0.004562  -0.000315  -0.007742
    11     H       0.688648   0.027082   0.213267
    12     H      -0.038561  -0.056867  -0.040957
 
 Mode:    20      Frequency (cm-1):      971.2369     Intensity (km/mol):       22.2939
 Index  Atom      ---- Displacements (x/y/z) ----
     1     C      -0.121441  -0.031547  -0.008802
     2     C       0.013498  -0.014553  -0.015591
     3     C      -0.001047  -0.004971   0.001607
     4     H       0.716780   0.047688   0.065722
     5     C       0.103063   0.041810   0.003801
     6     H      -0.013268  -0.004173  -0.001087
     7     H       0.425069   0.064795   0.146597
     8     H       0.012282   0.000002   0.004957
     9     H       0.011373  -0.002262   0.004724
    10     O      -0.027504  -0.003564   0.008205
    11     H      -0.266119   0.023653  -0.159432
    12     H      -0.379038   0.037131   0.034362
 
 Mode:    21      Frequency (cm-1):      996.8351     Intensity (km/mol):        4.9418
 Index  Atom      ---- Displacements (x/y/z) ----
     1     C      -0.034704   0.019521   0.001089
     2     C       0.012143   0.001380   0.008766
     3     C       0.001791   0.004888   0.000541
     4     H      -0.372909  -0.017438  -0.038445
     5     C       0.180302  -0.015678  -0.000843
     6     H       0.008567   0.004715   0.001868
     7     H      -0.407183  -0.033555  -0.079617
     8     H      -0.005666   0.000513  -0.001357
     9     H      -0.014460   0.001219  -0.004374
    10     O      -0.041580  -0.000041  -0.003648
    11     H       0.292565   0.002072   0.092449
    12     H      -0.740529  -0.077256  -0.026362
 
 Mode:    22      Frequency (cm-1):     1149.6941     Intensity (km/mol):       74.1351
 Index  Atom      ---- Displacements (x/y/z) ----
     1     C       0.014755  -0.190939  -0.002973
     2     C      -0.020946   0.049950   0.039736
     3     C       0.004366   0.001019   0.001740
     4     H       0.003189  -0.562720  -0.610977
     5     C      -0.006097   0.225307   0.012244
     6     H       0.001121   0.001519   0.000401
     7     H       0.021449  -0.104252  -0.206988
     8     H      -0.000422  -0.004292   0.000827
     9     H       0.002255  -0.002143   0.006246
    10     O       0.000355  -0.033427  -0.007971
    11     H       0.099464  -0.076643   0.268123
    12     H      -0.038369   0.262945   0.064639
 
 Mode:    23      Frequency (cm-1):     1254.4468     Intensity (km/mol):        1.8313
 Index  Atom      ---- Displacements (x/y/z) ----
     1     C      -0.002469   0.141239  -0.079404
     2     C      -0.006228  -0.106837   0.105346
     3     C       0.008166   0.000126   0.001769
     4     H       0.019941  -0.234299  -0.729779
     5     C      -0.001116  -0.031324   0.009679
     6     H      -0.007266   0.005748   0.007838
     7     H       0.024555   0.162594   0.572971
     8     H      -0.018029   0.008742  -0.004149
     9     H      -0.013565  -0.004403  -0.006625
    10     O       0.000459   0.003980  -0.013031
    11     H      -0.004064   0.008860  -0.048740
    12     H       0.010751  -0.048554  -0.029897
 
 Mode:    24      Frequency (cm-1):     1339.9093     Intensity (km/mol):       17.2078
 Index  Atom      ---- Displacements (x/y/z) ----
     1     C      -0.005798   0.051114   0.107044
     2     C       0.005899  -0.022396  -0.032112
     3     C      -0.006961  -0.001884  -0.000248
     4     H       0.015649  -0.125230  -0.178644
     5     C      -0.003325   0.059299  -0.000675
     6     H       0.012985  -0.008697  -0.007477
     7     H       0.030581  -0.130119  -0.242828
     8     H       0.003876   0.011474   0.001773
     9     H       0.012339   0.015165  -0.018493
    10     O       0.001709  -0.036002   0.041813
    11     H      -0.006414   0.176252  -0.374110
    12     H       0.025138  -0.393048  -0.725031
 
 Mode:    25      Frequency (cm-1):     1378.7084     Intensity (km/mol):        3.1664
 Index  Atom      ---- Displacements (x/y/z) ----
     1     C      -0.000253   0.002174   0.000234
     2     C       0.000205  -0.001775   0.000331
     3     C      -0.010108   0.090311   0.002261
     4     H       0.002200  -0.001114  -0.006251
     5     C      -0.000252   0.000222  -0.000355
     6     H       0.076388  -0.146289  -0.403674
     7     H       0.000303   0.001331   0.006023
     8     H       0.076407  -0.799431   0.004767
     9     H      -0.032712  -0.129719   0.372086
    10     O       0.000068  -0.000349   0.000870
    11     H      -0.000572   0.002588  -0.007336
    12     H       0.000826  -0.004524  -0.008849
 
 Mode:    26      Frequency (cm-1):     1382.8284     Intensity (km/mol):        1.9285
 Index  Atom      ---- Displacements (x/y/z) ----
     1     C       0.000741  -0.002518  -0.003416
     2     C       0.000456   0.001342  -0.006070
     3     C       0.029995   0.005430  -0.084853
     4     H      -0.002307   0.009168   0.017037
     5     C      -0.000582   0.006280  -0.000880
     6     H      -0.278022   0.354011   0.514152
     7     H      -0.005152   0.021253   0.028060
     8     H       0.122748  -0.012878  -0.042225
     9     H      -0.204956  -0.406408   0.540992
    10     O       0.000174  -0.002337   0.006465
    11     H      -0.001530  -0.023203   0.033584
    12     H       0.001987  -0.030289  -0.060460
 
 Mode:    27      Frequency (cm-1):     1412.9617     Intensity (km/mol):        8.4474
 Index  Atom      ---- Displacements (x/y/z) ----
     1     C       0.005469  -0.045990  -0.106753
     2     C       0.002597   0.019176  -0.024656
     3     C       0.000402  -0.000394   0.009936
     4     H      -0.014225   0.150110   0.218816
     5     C      -0.004257   0.062097  -0.003430
     6     H       0.023983  -0.033941  -0.049822
     7     H      -0.068222   0.254787   0.390744
     8     H      -0.015633   0.002395   0.004737
     9     H       0.018963   0.039306  -0.052879
    10     O       0.000828  -0.017865   0.063988
    11     H      -0.024778  -0.294187   0.491942
    12     H       0.016633  -0.250364  -0.531886
 
 Mode:    28      Frequency (cm-1):     1552.3486     Intensity (km/mol):       13.9385
 Index  Atom      ---- Displacements (x/y/z) ----
     1     C       0.004794  -0.048157  -0.279032
     2     C      -0.033980   0.011601   0.273909
     3     C       0.016892   0.001829   0.004153
     4     H      -0.017904   0.275017   0.212540
     5     C       0.000134   0.013990   0.005006
     6     H      -0.020266   0.009745   0.004229
     7     H       0.133467  -0.425273  -0.431474
     8     H      -0.013542  -0.001807  -0.003800
     9     H      -0.017002  -0.012824   0.005415
    10     O      -0.000769   0.005245   0.042359
    11     H       0.089293   0.422658  -0.316533
    12     H       0.002949  -0.103846  -0.190682
 
 Mode:    29      Frequency (cm-1):     1681.7235     Intensity (km/mol):      323.8879
 Index  Atom      ---- Displacements (x/y/z) ----
     1     C      -0.001508  -0.002458  -0.054334
     2     C      -0.007774  -0.009663  -0.029079
     3     C       0.005988   0.000860   0.002645
     4     H      -0.005103   0.139559   0.231433
     5     C      -0.005858   0.069946   0.676843
     6     H      -0.002956   0.001958  -0.000097
     7     H       0.016146   0.024984   0.003605
     8     H       0.004051  -0.004182   0.002652
     9     H       0.001001  -0.004139   0.005847
    10     O       0.003167  -0.025027  -0.445782
    11     H       0.022745  -0.033279   0.008745
    12     H       0.022813  -0.426450  -0.274675
 
 Mode:    30      Frequency (cm-1):     2803.8735     Intensity (km/mol):      110.9469
 Index  Atom      ---- Displacements (x/y/z) ----
     1     C       0.000147  -0.001376  -0.002202
     2     C      -0.000227  -0.000153   0.000887
     3     C       0.000030  -0.000092   0.000031
     4     H      -0.000381   0.008860  -0.004967
     5     C      -0.003675   0.072393  -0.037963
     6     H       0.000565   0.000728  -0.000805
     7     H      -0.000194   0.012343   0.000251
     8     H       0.000203  -0.000266   0.000740
     9     H       0.000929   0.000651   0.000426
    10     O       0.000069  -0.000528  -0.003202
    11     H       0.000370  -0.007035   0.003381
    12     H       0.041769  -0.849567   0.519093
 
 Mode:    31      Frequency (cm-1):     3061.7320     Intensity (km/mol):        0.0013
 Index  Atom      ---- Displacements (x/y/z) ----
     1     C       0.000061  -0.000145  -0.000033
     2     C      -0.000348  -0.000257   0.002244
     3     C      -0.012813  -0.001651  -0.007783
     4     H      -0.000165   0.002487  -0.001353
     5     C       0.000018  -0.000198  -0.000088
     6     H       0.101270   0.499093  -0.248655
     7     H       0.001214   0.022319  -0.012715
     8     H      -0.145753  -0.012283   0.583518
     9     H       0.195357  -0.467329  -0.242828
    10     O      -0.000005   0.000029   0.000077
    11     H       0.003877  -0.018950  -0.011362
    12     H       0.000060   0.001012  -0.000437
 
 Mode:    32      Frequency (cm-1):     3102.7911     Intensity (km/mol):        4.5843
 Index  Atom      ---- Displacements (x/y/z) ----
     1     C      -0.000353   0.009722  -0.000955
     2     C       0.010970   0.012958  -0.063246
     3     C      -0.001181  -0.000278   0.000090
     4     H       0.004383  -0.113156   0.067148
     5     C      -0.000089   0.001498   0.000529
     6     H       0.003618   0.020119  -0.010044
     7     H      -0.028348  -0.674962   0.387936
     8     H      -0.004016  -0.000319   0.017704
     9     H       0.007265  -0.017639  -0.009028
    10     O       0.000012  -0.000202  -0.000536
    11     H      -0.095205   0.516019   0.307613
    12     H       0.000814  -0.011415   0.004244
 
 Mode:    33      Frequency (cm-1):     3125.7833     Intensity (km/mol):        3.5220
 Index  Atom      ---- Displacements (x/y/z) ----
     1     C       0.003100  -0.071621   0.045952
     2     C       0.000606   0.013899  -0.011576
     3     C      -0.000345  -0.000213  -0.000204
     4     H      -0.035353   0.839950  -0.504302
     5     C      -0.000071   0.000748   0.002861
     6     H       0.000626   0.001293  -0.000220
     7     H      -0.006864  -0.152382   0.087852
     8     H      -0.000064   0.000208   0.001329
     9     H       0.000236   0.000080   0.000052
    10     O      -0.000002  -0.000014  -0.000770
    11     H       0.002480  -0.013962  -0.008936
    12     H      -0.000198   0.005940  -0.004504
 
 Mode:    34      Frequency (cm-1):     3198.2958     Intensity (km/mol):        3.1220
 Index  Atom      ---- Displacements (x/y/z) ----
     1     C       0.000439  -0.009935   0.006979
     2     C       0.008715  -0.097309  -0.011295
     3     C      -0.000621   0.003076   0.000350
     4     H      -0.004647   0.103542  -0.063496
     5     C      -0.000003   0.000112   0.000203
     6     H      -0.002710  -0.014314   0.007525
     7     H       0.022900   0.502845  -0.306515
     8     H       0.000291   0.000419  -0.002072
     9     H       0.007714  -0.019047  -0.009980
    10     O       0.000013   0.000010   0.000000
    11     H      -0.124994   0.660372   0.418965
    12     H      -0.000328   0.005000   0.000366
 
 Mode:    35      Frequency (cm-1):     3236.0901     Intensity (km/mol):        2.8740
 Index  Atom      ---- Displacements (x/y/z) ----
     1     C      -0.000040   0.000039   0.000091
     2     C      -0.000025  -0.000178  -0.000181
     3     C       0.033375   0.011676  -0.092945
     4     H       0.000172  -0.000672   0.000494
     5     C      -0.000001   0.000026   0.000043
     6     H      -0.089330  -0.434699   0.196044
     7     H      -0.000736  -0.002562   0.000626
     8     H      -0.177937  -0.012939   0.769135
     9     H      -0.127594   0.309204   0.139359
    10     O      -0.000002  -0.000003  -0.000006
    11     H      -0.001171   0.004027   0.001775
    12     H       0.000007   0.000017  -0.000081
 
 Mode:    36      Frequency (cm-1):     3243.5397     Intensity (km/mol):        2.3580
 Index  Atom      ---- Displacements (x/y/z) ----
     1     C       0.000007   0.000115  -0.000174
     2     C      -0.000200   0.002612   0.000275
     3     C      -0.012820   0.098379   0.007754
     4     H      -0.000079  -0.002122   0.001424
     5     C       0.000019   0.000097  -0.000073
     6     H      -0.133050  -0.577484   0.293238
     7     H      -0.001973  -0.015398   0.008760
     8     H       0.013225   0.018929  -0.065185
     9     H       0.271570  -0.609063  -0.320303
    10     O      -0.000004  -0.000011   0.000013
    11     H       0.004967  -0.018661  -0.011358
    12     H       0.000130  -0.001034   0.000560

PES point character: Geometry corresponds to a transition state.
                     (Hint: Very small negative frequencies do not count towards being a
                     transition state, as they usually indicate noise on a very flat PES. See
                     the PESPointCharacter%NegativeFrequenciesTolerance keyword documentation.)




 ============================
 Statistical Thermal Analysis  ***  ideal gas assumed  ***
 ============================
  
 Pressure:                  1.000000 atm.
 Temperature:             298.150000 K



 Moments of Inertia [amu*bohr^2] and principal axis
 ==================================================

         166.9937        868.7769        951.6048
 ------------------------------------------------
           0.3956         -0.9014         -0.1761
           0.3365          0.3207         -0.8854
           0.8545          0.2911          0.4302


 The rotational contribution to the molecular entropy includes
 a term, dependent on the symmetry number sigma. The results 
 reported below were computed using sigma = 1, determined from
 the point group symmetry of the input geometry (NOSYM). 
 If this is not the correct symmetry, try symmetrizing the molecule before
 running the calculation (note: linear molecules should be aligned along one
 of the Cartesian axes).
 Contributions from frequencies below 20 1/cm are not included in vibrational sums.
 Their contributions, if any, are reported separately.


     Temp                                                        Transl      Rotat     Vibrat     Total
     ----                                                        ------      -----     ------     -----

     298.15   Entropy (cal/mol-K):                               38.699     26.426     17.314     82.440
              Nuclear Internal Energy (kcal/mol):                 0.889      0.889     60.465     62.243
              Constant Volume Heat Capacity (cal/mol-K):          2.981      2.981     17.599     23.560
          (c) Constant Volume Heat Capacity (cal/mol-K):          2.981      2.981     15.984     21.946

       Summary of energy terms
                                                   hartree              eV         kcal/mol           kJ/mol
                                      --------------------     -----------       ----------      -----------
      Energy from Engine:               -2.328062762770216        -63.3498         -1460.88         -6112.33
      Nuclear Internal Energy:           0.099190214778351          2.6991            62.24           260.42
  (c) Nuclear Internal Energy:           0.098364049000217          2.6766            61.72           258.25
      Internal Energy U:                -2.228872547991865        -60.6507         -1398.64         -5851.90
      pV/n = RT:                         0.000944186013486          0.0257             0.59             2.48
      Enthalpy H:                       -2.227928361978379        -60.6250         -1398.05         -5849.43
      -T*S:                             -0.039169677438015         -1.0659           -24.58          -102.84
  (c) -T*S:                             -0.038520589310069         -1.0482           -24.17          -101.14
      Gibbs free energy:                -2.267098039416394        -61.6909         -1422.63         -5952.27
 
 
 
  (c) The properties marked with this symbol have been corrected using 'low vibrational frequency free rotor
      interpolation corrections'. For those terms all positive frequencies are used (also ones below 20 1/cm),
      but the contribution to the partition function of small vibrational frequencies is modified as described
      in the following paper:
      S. Grimme, 'Supramolecular Binding Thermodynamics by Dispersion-Corrected Density Functional Theory'
      (Chem. Eur. J. 2012, 18, 9955-9964)
      Configuration: Dampener Frequency          :   100.000 1/cm
                     Dampener Alpha              :     4.000
                     Averaging Moment of Inertia : 1.000E-44 kg m2

--------------
Atomic charges
--------------
  Index   Atom    Charge
      1      C    0.2182
      2      C    0.4253
      3      C    0.5196
      4      H   -0.1769
      5      C    0.6293
      6      H   -0.1537
      7      H   -0.1866
      8      H   -0.1626
      9      H   -0.1506
     10      O   -0.4942
     11      H   -0.1956
     12      H   -0.2721


Dipole moment vector    (Debye):    -0.51543969   -1.10762283   -3.83564729
              magnitude (Debye):     4.02550575


Final PES point is a transition state. Transition state search successful!


AMS application finished. Exiting.
NORMAL TERMINATION
     Total cpu time:   14183.24
  Total system time:      20.36
 Total elapsed time:   14243.79
