
 *******************************************************************************
 *                                                                             *
 *  --------------------------------                                           *
 *   Amsterdam Modeling Suite (AMS)              2021.102                      *
 *  --------------------------------                                           *
 *                                               r95042 2021-06-07             *
 *                                                                             *
 *                                                                             *
 *                              =================                              *
 *                              |               |                              *
 *                              |     A M S     |                              *
 *                              |               |                              *
 *                              =================                              *
 *                                                                             *
 *                                                                             *
 *   Online information and documentation:  https://www.scm.com/support/       *
 *   E-mail:  support@scm.com   info@scm.com                                   *
 *                                                                             *
 *   Scientific publications using AMS results must be properly referenced     *
 *   See the User Manuals (or the web site) for recommended citations          *
 *   The terms and conditions of the End User License Agreement apply to       *
 *   the use of AMS, https://www.scm.com/license-terms/                        *
 *                                                                             *
 **********************  x86_64_linux_intel / intelmpi  ************************
 
 Licensed to: VU/FEW (+ SARA) / ALGEMEEN / Amsterdam / THE NETHERLANDS
 SCM User ID: u7668
  
 AMS 2021.102  RunTime: Jan31-2022 11:22:37  ShM Nodes: 1  Procs: 16

 AMS jobname: 55.achiral_catalyst.H_tBu_I2.TS
 AMS jobid  : 12717813

 Start   directory: /scistor/tc/yhk800/MasterProject/calculations/achiral_catalyst_H_tBu_I2/55.achiral_catalyst.H_tBu_I2.TS/
 Results directory: /scistor/tc/yhk800/MasterProject/calculations/achiral_catalyst_H_tBu_I2/55.achiral_catalyst.H_tBu_I2.TS/
 Scratch directory: /scratch/6205/amstmp_55.achiral_catalyst.H_tBu_I2.TS_kid9.12717813/




                     *************************************************************************
                     *  ADF 2021.102  RunTime: Jan31-2022 11:22:38  ShM Nodes: 1  Procs: 16  *
                     *************************************************************************
  
       *****************************
       *  TRANSITION STATE SEARCH  *
       *****************************

Optimization Method                    Quasi Newton
Optimization Coordinates               Delocalized Coordinates
Optimize lattice                       F
 
 ------------------------------------------------------
 Convergence criteria (Hartree,Angstrom)
 ------------------------------------------------------
 Maximum gradient               0.001000000000
 Maximum rms gradient           0.000666666667
 Maximum step allowed           0.010000000000
 Maximum rms step allowed       0.006666666667
 Maximum energy change allowe   0.000260000000
 Maximum stress energy allowe   0.000500000000
 
Initial model Hessian                  Automatic Hessian
 
------------------------------------
Quasi-Newton Optimizer Parameters
------------------------------------
Hessian Update Method                  Bofill
Maximum number of steps                  250
First GDIIS cycle                          0
Maximum GDIIS vectors                      0
Trust radius (bohr)                        0.200000
Trust radius varies                        F
Constraints converged at all steps         T
Use projector                              T
 
 Rigid motions settings for: old optimizer
 Atomic rotations (x,y,z):     T T T
 Atomic translations (x,y,z):  T T T
 Tolerance:                   1.000000000000000E-006
 
           1  TSRC entries:
    i   type      a1    a2    a3    a4    coef
    1 Distance     2    10               -1.000
 
--------
Geometry
--------
Formula: C8H15I2O
Atoms
  Index Symbol   x (angstrom)   y (angstrom)   z (angstrom)
      1      H     0.19369716    -1.85361092    -0.24516176
      2      C    -0.92057816    -0.12292898     0.28183759
      3      C     0.21368396    -0.77846351    -0.06958517
      4      C     1.52168394    -0.13059856    -0.22805405
      5      O     2.57084417    -0.68022178    -0.54313771
      6      H    -0.93117356     0.95749943     0.37346659
      7      H    -1.16677948    -1.14795174     3.01281369
      8      H    -2.10496465     0.45730942     2.86041604
      9      H    -0.24714630     0.47546451     3.02589233
     10      C    -1.16197426    -0.07675120     2.85297480
     11      C    -2.70617814    -1.13198073    -1.13307527
     12      C    -2.27774025    -0.85018701     0.31024211
     13      C    -3.29814455     0.05623311     1.00544670
     14      C    -2.10857613    -2.16055035     1.08513774
     15      H    -1.77993511    -1.95738108     2.10497923
     16      H    -3.66728922    -1.64847593    -1.15378817
     17      H    -1.96534043    -1.75736397    -1.63248955
     18      H    -2.80193402    -0.19835583    -1.68853426
     19      H    -4.27589769    -0.42685762     1.04485445
     20      H    -3.39798001     0.99804667     0.46472548
     21      H    -2.97770152     0.27467949     2.02473899
     22      H    -3.05288672    -2.70596191     1.12678586
     23      H    -1.36362000    -2.79302204     0.60101043
     24      H     1.51741535     0.92352060    -0.04443873
     25      I     3.93691787     0.31396217    -0.73139533
     26      I     6.16201085     1.93331237    -1.03803377
 
Total System Charge             0.00000
 
 
----------------
ADF Engine Input
----------------
 
 NumericalQuality VeryGood
 SCF
 Converge 1.0e-6
 Iterations 99
 End
 SYMMETRY NOSYM
 SpinPolarization 1.0
 Unrestricted Yes
 XC
 GGA OLYP
 End
 basis
 core None
 type TZ2P
 End
 

 Title: *** (NO TITLE) ***

Bad geometry: could not add a dihedral for atom   26
 Using automatic Hessian for delocalized coordinates.
 *** GOStep1 ***

 Energy gradients wrt nuclear displacements
 ==========================================

     Atom      Cartesian (a.u./angstrom)
                 X         Y         Z
 ----------------------------------------
     1 H    -0.002832 -0.003852 -0.000544
     2 C     0.040542  0.003950 -0.028774
     3 C    -0.115143 -0.002556  0.022806
     4 C     0.283370  0.013066 -0.058198
     5 O     0.330274  0.356024 -0.028579
     6 H    -0.002065 -0.005418  0.003932
     7 H    -0.013686 -0.027087 -0.023709
     8 H    -0.042836 -0.001441 -0.039892
     9 H    -0.003691 -0.000969 -0.002813
    10 C    -0.044219 -0.022502 -0.025953
    11 C     0.000834  0.000395  0.005043
    12 C    -0.019630 -0.017213 -0.013716
    13 C     0.023977  0.004174  0.016703
    14 C     0.013276  0.018162  0.010014
    15 H     0.016946  0.027508  0.029117
    16 H     0.003835  0.001420  0.001200
    17 H     0.000698  0.002018  0.005174
    18 H     0.001712 -0.002013  0.005924
    19 H     0.005861 -0.000414  0.002346
    20 H     0.004391 -0.005675  0.001853
    21 H     0.046047  0.005193  0.043422
    22 H     0.003218  0.004753  0.002457
    23 H     0.003784  0.008367 -0.002744
    24 H    -0.009207 -0.035755 -0.003789
    25 I    -0.481387 -0.286819  0.072500
    26 I    -0.044070 -0.033319  0.006218
 ----------------------------------------
 Mulliken charges used for AMS results%charges...
           Primitive Internal Coordinates (atoms in internal order)
-------------------------------------------------------------------------------
    index    type      i       j       k       l   value(A,deg)     TSRC Vect
-------------------------------------------------------------------------------
       1     bnd       1       3       0       0     1.08957265     0.00000000
       2     bnd       2       6       0       0     1.08435865     0.00000000
       3     bnd       2      12       0       0     1.54000000    -0.00841300
       4     bnd       2       3       0       0     1.35638270    -0.00000000
       5     bnd       3       4       0       0     1.46823204    -0.00000000
       6     bnd       4      24       0       0     1.07000000    -0.00000000
       7     bnd       4       5       0       0     1.22560213    -0.00000000
       8     bnd       5      25       0       0     1.70000000    -0.00000000
       9     bnd       8      10       0       0     1.08374674    -0.00712836
      10     bnd       7      10       0       0     1.08307071    -0.00530995
      11     bnd       9      10       0       0     1.08247534    -0.00000000
      12     bnd      11      17       0       0     1.09057752     0.00000000
      13     bnd      11      12       0       0     1.53170878    -0.00000000
      14     bnd      12      14       0       0     1.53170879    -0.01050536
      15     bnd      12      13       0       0     1.53170878    -0.01362022
      16     bnd      13      19       0       0     1.09129777    -0.00000000
      17     bnd      13      21       0       0     1.09057752    -0.04308487
      18     bnd      14      22       0       0     1.09129777    -0.00000000
      19     bnd      14      15       0       0     1.09057752    -0.03932883
      20     bnd      11      16       0       0     1.09129777    -0.00000000
      21     bnd      11      18       0       0     1.09057752    -0.00000000
      22     bnd      13      20       0       0     1.09057753     0.00000000
      23     bnd      14      23       0       0     1.09057752     0.00000000
      24     bnd      25      26       0       0     2.76900000    -0.00000000
      25     bnd       7      15       0       0     1.36209364    -0.03085990
      26     bnd       8      21       0       0     1.22203906    -0.03287133
      27     ang       6       2      12       0   117.41061246     0.00000000
      28     ang       6       2       3       0   120.77103538    -0.00000000
      29     ang      12       2       3       0   120.89733876    -0.00000000
      30     ang       1       3       2       0   120.21909900     0.00000000
      31     ang       1       3       4       0   115.74474309     0.00000000
      32     ang       2       3       4       0   124.03410402    -0.00000000
      33     ang       3       4      24       0   114.37019779    -0.00000000
      34     ang       3       4       5       0   126.33327002     0.00000000
      35     ang      24       4       5       0   119.29637471    -0.00000000
      36     ang       4       5      25       0   117.00680806    -0.00000000
      37     ang      10       7      15       0   119.43110153     0.01106394
      38     ang      10       8      21       0   122.89272049     0.01286683
      39     ang       8      10       7       0   118.84988012    -0.00411492
      40     ang       8      10       9       0   118.87311123    -0.00658368
      41     ang       7      10       9       0   118.99448321    -0.00549185
      42     ang      17      11      12       0   110.30372147    -0.00000000
      43     ang      17      11      16       0   108.55265565     0.00000000
      44     ang      17      11      18       0   108.50099190     0.00000000
      45     ang      12      11      16       0   110.56689159    -0.00000000
      46     ang      12      11      18       0   110.30372122     0.00000000
      47     ang      16      11      18       0   108.55265584     0.00000000
      48     ang       2      12      11       0   108.42142155     0.04847580
      49     ang       2      12      14       0   108.42142138    -0.02580540
      50     ang       2      12      13       0   108.42142163    -0.02690602
      51     ang      11      12      14       0   110.50030803    -0.02126142
      52     ang      11      12      13       0   110.50030844    -0.02194200
      53     ang      14      12      13       0   110.50030810     0.04727065
      54     ang      12      13      19       0   110.56689169     0.00016065
      55     ang      12      13      21       0   110.30372120    -0.02078036
      56     ang      12      13      20       0   110.30372081     0.00943778
      57     ang      19      13      21       0   108.55265628     0.03169333
      58     ang      19      13      20       0   108.55265560    -0.00196474
      59     ang      21      13      20       0   108.50099212    -0.01826548
      60     ang      12      14      22       0   110.56689120    -0.00205677
      61     ang      12      14      15       0   110.30372073    -0.01984715
      62     ang      12      14      23       0   110.30372111     0.01122531
      63     ang      22      14      15       0   108.55265617     0.03417305
      64     ang      22      14      23       0   108.55265628    -0.00188086
      65     ang      15      14      23       0   108.50099221    -0.02135436
      66     ang      14      15       7       0   150.41554278    -0.08611095
      67     ang      13      21       8       0   151.51189577    -0.09075394
      68     anY       5      25      26       0   179.99999915    -0.00000000
      69     anZ       5      25      26       0   179.99999915     0.00000000
      70     dih       6       2      12      11    97.82854891    -0.00048423
      71     dih       6       2      12      14   217.82854865    -0.01295263
      72     dih       6       2      12      13   -22.17145147     0.01343686
      73     dih       3       2      12      11   -71.27064345    -0.00048423
      74     dih       3       2      12      14    48.72935630    -0.01295263
      75     dih       3       2      12      13   168.72935617     0.01343686
      76     dih       6       2       3       1   185.43025046     0.00000000
      77     dih       6       2       3       4     5.97435318     0.00000000
      78     dih      12       2       3       1    -5.83693582     0.00000000
      79     dih      12       2       3       4   174.70716690    -0.00000000
      80     dih       1       3       4      24   180.37552847     0.00000000
      81     dih       1       3       4       5     0.52197473     0.00000000
      82     dih       2       3       4      24    -0.14644617     0.00000000
      83     dih       2       3       4       5   180.00000148     0.00000000
      84     dih       3       4       5      25   177.13092032     0.00000000
      85     dih      24       4       5      25    -2.71611828     0.00000000
      86     dih      21       8      10       7   -64.89060948    -0.04846506
      87     dih      21       8      10       9   135.76133749     0.00165511
      88     dih      15       7      10       8    64.25404055     0.05398918
      89     dih      15       7      10       9   223.57678807     0.00358044
      90     dih      17      11      12       2    59.92224995     0.00057907
      91     dih      17      11      12      14   -58.77116296     0.01491073
      92     dih      17      11      12      13   178.61566341    -0.01548980
      93     dih      16      11      12       2   180.00000000     0.00057907
      94     dih      16      11      12      14    61.30658712     0.01491073
      95     dih      16      11      12      13   -61.30658651    -0.01548980
      96     dih      18      11      12       2   -59.92224980     0.00057907
      97     dih      18      11      12      14   181.38433729     0.01491073
      98     dih      18      11      12      13    58.77116366    -0.01548980
      99     dih       2      12      14      22   179.99999915    -0.03039783
     100     dih       2      12      14      15    59.92224993    -0.05884902
     101     dih       2      12      14      23   -59.92224967    -0.02679816
     102     dih      11      12      14      22   -61.30658704     0.00047305
     103     dih      11      12      14      15   178.61566296    -0.02797813
     104     dih      11      12      14      23    58.77116335     0.00407272
     105     dih      13      12      14      22    61.30658678    -0.00957018
     106     dih      13      12      14      15   -58.77116322    -0.03802136
     107     dih      13      12      14      23   181.38433718    -0.00597050
     108     dih       2      12      13      19   179.99999915     0.02851118
     109     dih       2      12      13      21   -59.92224944     0.05469386
     110     dih       2      12      13      20    59.92225015     0.02474432
     111     dih      11      12      13      19    61.30658640    -0.00129226
     112     dih      11      12      13      21   181.38433715     0.02489043
     113     dih      11      12      13      20   -58.77116326    -0.00505911
     114     dih      14      12      13      19   -61.30658719     0.00835329
     115     dih      14      12      13      21    58.77116356     0.03453597
     116     dih      14      12      13      20   178.61566315     0.00458643
     117     dih      12      13      21       8    31.37418389     0.00928867
     118     dih      19      13      21       8   152.65821231     0.01683841
     119     dih      20      13      21       8   -89.55318409     0.02193927
     120     dih      12      14      15       7   -23.92743686    -0.01378839
     121     dih      22      14      15       7   214.78853567    -0.02076142
     122     dih      23      14      15       7    96.99993126    -0.02562224
     123     dih      10       7      15      14    27.97958941     0.00097742
     124     dih      10       8      21      13   -35.32547570     0.00079617
     125     bnd       2      10       0       0     2.58285714    -0.61594090
Hessian eigenvector     1(    -0.036) has overlap with TSRC:    0.64765E+00
Hessian eigenvector     1 has the largest overlap with TSRC:  0.64765
           Primitive Internal Coordinates (atoms in internal order)
-------------------------------------------------------------------------------
    index    type      i       j       k       l   value(A,deg)     Max Ovl Vect
-------------------------------------------------------------------------------
       1     bnd       1       3       0       0     1.08957265    -0.00000000
       2     bnd       2       6       0       0     1.08435865    -0.00000000
       3     bnd       2      12       0       0     1.54000000     0.00218219
       4     bnd       2       3       0       0     1.35638270     0.00000000
       5     bnd       3       4       0       0     1.46823204     0.00000000
       6     bnd       4      24       0       0     1.07000000    -0.00000000
       7     bnd       4       5       0       0     1.22560213    -0.00000000
       8     bnd       5      25       0       0     1.70000000     0.00000000
       9     bnd       8      10       0       0     1.08374674     0.00147958
      10     bnd       7      10       0       0     1.08307071     0.00108111
      11     bnd       9      10       0       0     1.08247534    -0.00000000
      12     bnd      11      17       0       0     1.09057752    -0.00000000
      13     bnd      11      12       0       0     1.53170878     0.00000000
      14     bnd      12      14       0       0     1.53170879     0.00289544
      15     bnd      12      13       0       0     1.53170878     0.00396885
      16     bnd      13      19       0       0     1.09129777    -0.00000000
      17     bnd      13      21       0       0     1.09057752     0.01140658
      18     bnd      14      22       0       0     1.09129777     0.00000000
      19     bnd      14      15       0       0     1.09057752     0.00998691
      20     bnd      11      16       0       0     1.09129777     0.00000000
      21     bnd      11      18       0       0     1.09057752     0.00000000
      22     bnd      13      20       0       0     1.09057753    -0.00000000
      23     bnd      14      23       0       0     1.09057752     0.00000000
      24     bnd      25      26       0       0     2.76900000     0.00000000
      25     bnd       7      15       0       0     1.36209364     0.02098893
      26     bnd       8      21       0       0     1.22203906     0.01936461
      27     ang       6       2      12       0   117.41061246     0.00000000
      28     ang       6       2       3       0   120.77103538    -0.00000000
      29     ang      12       2       3       0   120.89733876    -0.00000000
      30     ang       1       3       2       0   120.21909900    -0.00000000
      31     ang       1       3       4       0   115.74474309    -0.00000000
      32     ang       2       3       4       0   124.03410402     0.00000000
      33     ang       3       4      24       0   114.37019779     0.00000000
      34     ang       3       4       5       0   126.33327002    -0.00000000
      35     ang      24       4       5       0   119.29637471     0.00000000
      36     ang       4       5      25       0   117.00680806    -0.00000000
      37     ang      10       7      15       0   119.43110153     0.01426577
      38     ang      10       8      21       0   122.89272049     0.01900162
      39     ang       8      10       7       0   118.84988012     0.01947415
      40     ang       8      10       9       0   118.87311123     0.01049296
      41     ang       7      10       9       0   118.99448321     0.01026597
      42     ang      17      11      12       0   110.30372147     0.00000000
      43     ang      17      11      16       0   108.55265565     0.00000000
      44     ang      17      11      18       0   108.50099190     0.00000000
      45     ang      12      11      16       0   110.56689159    -0.00000000
      46     ang      12      11      18       0   110.30372122    -0.00000000
      47     ang      16      11      18       0   108.55265584    -0.00000000
      48     ang       2      12      11       0   108.42142155    -0.04508239
      49     ang       2      12      14       0   108.42142138     0.02813116
      50     ang       2      12      13       0   108.42142163     0.03104610
      51     ang      11      12      14       0   110.50030803     0.01088552
      52     ang      11      12      13       0   110.50030844     0.01082174
      53     ang      14      12      13       0   110.50030810    -0.03524179
      54     ang      12      13      19       0   110.56689169    -0.01201846
      55     ang      12      13      21       0   110.30372120     0.02852668
      56     ang      12      13      20       0   110.30372081     0.00013409
      57     ang      19      13      21       0   108.55265628    -0.03278900
      58     ang      19      13      20       0   108.55265560    -0.00260057
      59     ang      21      13      20       0   108.50099212     0.01832409
      60     ang      12      14      22       0   110.56689120    -0.00948296
      61     ang      12      14      15       0   110.30372073     0.02270325
      62     ang      12      14      23       0   110.30372111     0.00003664
      63     ang      22      14      15       0   108.55265617    -0.03187712
      64     ang      22      14      23       0   108.55265628    -0.00207001
      65     ang      15      14      23       0   108.50099221     0.02037455
      66     ang      14      15       7       0   150.41554278     0.13283604
      67     ang      13      21       8       0   151.51189577     0.13336886
      68     anY       5      25      26       0   179.99999915     0.00000000
      69     anZ       5      25      26       0   179.99999915    -0.00000000
      70     dih       6       2      12      11    97.82854891     0.00053499
      71     dih       6       2      12      14   217.82854865     0.00383550
      72     dih       6       2      12      13   -22.17145147    -0.00437049
      73     dih       3       2      12      11   -71.27064345     0.00053499
      74     dih       3       2      12      14    48.72935630     0.00383550
      75     dih       3       2      12      13   168.72935617    -0.00437049
      76     dih       6       2       3       1   185.43025046     0.00000000
      77     dih       6       2       3       4     5.97435318     0.00000000
      78     dih      12       2       3       1    -5.83693582    -0.00000000
      79     dih      12       2       3       4   174.70716690    -0.00000000
      80     dih       1       3       4      24   180.37552847    -0.00000000
      81     dih       1       3       4       5     0.52197473     0.00000000
      82     dih       2       3       4      24    -0.14644617    -0.00000000
      83     dih       2       3       4       5   180.00000148     0.00000000
      84     dih       3       4       5      25   177.13092032    -0.00000000
      85     dih      24       4       5      25    -2.71611828    -0.00000000
      86     dih      21       8      10       7   -64.89060948     0.13053161
      87     dih      21       8      10       9   135.76133749     0.00668728
      88     dih      15       7      10       8    64.25404055    -0.13729067
      89     dih      15       7      10       9   223.57678807    -0.01324405
      90     dih      17      11      12       2    59.92224995    -0.00117059
      91     dih      17      11      12      14   -58.77116296    -0.01433480
      92     dih      17      11      12      13   178.61566341     0.01550402
      93     dih      16      11      12       2   180.00000000    -0.00117059
      94     dih      16      11      12      14    61.30658712    -0.01433480
      95     dih      16      11      12      13   -61.30658651     0.01550402
      96     dih      18      11      12       2   -59.92224980    -0.00117059
      97     dih      18      11      12      14   181.38433729    -0.01433480
      98     dih      18      11      12      13    58.77116366     0.01550402
      99     dih       2      12      14      22   179.99999915     0.07022718
     100     dih       2      12      14      15    59.92224993     0.10140501
     101     dih       2      12      14      23   -59.92224967     0.06155300
     102     dih      11      12      14      22   -61.30658704     0.03883854
     103     dih      11      12      14      15   178.61566296     0.07001637
     104     dih      11      12      14      23    58.77116335     0.03016437
     105     dih      13      12      14      22    61.30658678     0.03591653
     106     dih      13      12      14      15   -58.77116322     0.06709436
     107     dih      13      12      14      23   181.38433718     0.02724235
     108     dih       2      12      13      19   179.99999915    -0.06784376
     109     dih       2      12      13      21   -59.92224944    -0.09802146
     110     dih       2      12      13      20    59.92225015    -0.05693570
     111     dih      11      12      13      19    61.30658640    -0.03819168
     112     dih      11      12      13      21   181.38433715    -0.06836939
     113     dih      11      12      13      20   -58.77116326    -0.02728362
     114     dih      14      12      13      19   -61.30658719    -0.03530694
     115     dih      14      12      13      21    58.77116356    -0.06548464
     116     dih      14      12      13      20   178.61566315    -0.02439888
     117     dih      12      13      21       8    31.37418389    -0.02230646
     118     dih      19      13      21       8   152.65821231    -0.04038119
     119     dih      20      13      21       8   -89.55318409    -0.05149937
     120     dih      12      14      15       7   -23.92743686     0.03517736
     121     dih      22      14      15       7   214.78853567     0.05314333
     122     dih      23      14      15       7    96.99993126     0.06198346
     123     dih      10       7      15      14    27.97958941    -0.01374500
     124     dih      10       8      21      13   -35.32547570     0.00535002
     125     bnd       2      10       0       0     2.58285714     0.91592106
 
----------------------------------------------------------------------
Geometry Convergence after Step   1       (Hartree/Angstrom,Angstrom)
----------------------------------------------------------------------
current energy                               -4.54933064 Hartree
energy change                      -4.54933064     0.00026000    F
constrained gradient max            0.48137009     0.00100000    F
constrained gradient rms            0.09318157     0.00066667    F
gradient max                        0.48137009
gradient rms                        0.09318157
cart. step max                      0.10656218     0.01000000    F
cart. step rms                      0.01944754     0.00666667    F
 
 
--------
Geometry
--------
Formula: C8H15I2O
Atoms
  Index Symbol   x (angstrom)   y (angstrom)   z (angstrom)
      1      H     0.21069657    -1.84327157    -0.24103014
      2      C    -0.93507797    -0.12848952     0.28564416
      3      C     0.21173726    -0.76859135    -0.06325685
      4      C     1.50326740    -0.09879594    -0.21525440
      5      O     2.57059469    -0.64040585    -0.53044111
      6      H    -0.95487201     0.95222363     0.37673869
      7      H    -1.15556209    -1.14798574     3.00885178
      8      H    -2.08646784     0.45816309     2.85580302
      9      H    -0.22479807     0.47304648     3.02852978
     10      C    -1.14171678    -0.07551257     2.85319567
     11      C    -2.72208882    -1.14232256    -1.13495510
     12      C    -2.29006839    -0.85955880     0.30854132
     13      C    -3.30844296     0.05183406     1.00145408
     14      C    -2.12275954    -2.17157162     1.08322351
     15      H    -1.78545033    -1.96520644     2.10064583
     16      H    -3.68423766    -1.65762302    -1.15288573
     17      H    -1.98423970    -1.76948206    -1.63704198
     18      H    -2.81875626    -0.20961797    -1.69250025
     19      H    -4.28827174    -0.42737382     1.04641320
     20      H    -3.40782786     0.99271001     0.45810568
     21      H    -2.97761367     0.27348051     2.01819066
     22      H    -3.06881073    -2.71433020     1.12949597
     23      H    -1.38266360    -2.80943513     0.59854530
     24      H     1.48508886     0.95759254    -0.03049619
     25      I     4.00018129     0.33746979    -0.73291744
     26      I     6.26857303     1.90241867    -1.05497120
 
Total System Charge             0.00000
 
 *** GOStep2 ***

 Energy gradients wrt nuclear displacements
 ==========================================

     Atom      Cartesian (a.u./angstrom)
                 X         Y         Z
 ----------------------------------------
     1 H    -0.002363 -0.003318 -0.000743
     2 C     0.036422  0.005159 -0.026404
     3 C    -0.104307 -0.003991  0.020669
     4 C     0.223049  0.018487 -0.043581
     5 O     0.286147  0.279198 -0.027854
     6 H    -0.002148 -0.005107  0.003971
     7 H    -0.014409 -0.026645 -0.022536
     8 H    -0.042550 -0.001533 -0.037612
     9 H    -0.002912 -0.000615 -0.002637
    10 C    -0.038892 -0.020329 -0.022654
    11 C    -0.000304 -0.000166  0.005109
    12 C    -0.019242 -0.016372 -0.012337
    13 C     0.021855  0.004405  0.013476
    14 C     0.012077  0.015746  0.008161
    15 H     0.017553  0.027238  0.028111
    16 H     0.003453  0.001236  0.000797
    17 H     0.000537  0.001924  0.004737
    18 H     0.001587 -0.001800  0.005435
    19 H     0.005010 -0.000444  0.001652
    20 H     0.003983 -0.004951  0.001737
    21 H     0.045665  0.005039  0.041501
    22 H     0.002803  0.004008  0.001833
    23 H     0.003158  0.007494 -0.001977
    24 H    -0.009780 -0.033235 -0.003071
    25 I    -0.387022 -0.223788  0.058435
    26 I    -0.039370 -0.027642  0.005782
 ----------------------------------------
 Mulliken charges used for AMS results%charges...
Hessian eigenvector     1(    -0.038) has overlap with TSRC:    0.64510E+00
Hessian eigenvector     1 has the largest overlap with TSRC:  0.64510
           Primitive Internal Coordinates (atoms in internal order)
-------------------------------------------------------------------------------
    index    type      i       j       k       l   value(A,deg)     Max Ovl Vect
-------------------------------------------------------------------------------
       1     bnd       1       3       0       0     1.08928508     0.00010295
       2     bnd       2       6       0       0     1.08472619    -0.00033033
       3     bnd       2      12       0       0     1.53980052     0.00297701
       4     bnd       2       3       0       0     1.35891407    -0.00100144
       5     bnd       3       4       0       0     1.46279843     0.00435744
       6     bnd       4      24       0       0     1.07257758    -0.00209474
       7     bnd       4       5       0       0     1.23768796     0.00842592
       8     bnd       5      25       0       0     1.74383350     0.00282244
       9     bnd       8      10       0       0     1.08506732     0.00052119
      10     bnd       7      10       0       0     1.08379851     0.00023377
      11     bnd       9      10       0       0     1.08277375     0.00006000
      12     bnd      11      17       0       0     1.09079860    -0.00024533
      13     bnd      11      12       0       0     1.53306193    -0.00092186
      14     bnd      12      14       0       0     1.53280866     0.00281755
      15     bnd      12      13       0       0     1.53227014     0.00355345
      16     bnd      13      19       0       0     1.09166201    -0.00009776
      17     bnd      13      21       0       0     1.09193793     0.01087898
      18     bnd      14      22       0       0     1.09166885    -0.00012679
      19     bnd      14      15       0       0     1.09156415     0.00985136
      20     bnd      11      16       0       0     1.09159812    -0.00017309
      21     bnd      11      18       0       0     1.09093494    -0.00026704
      22     bnd      13      20       0       0     1.09103272    -0.00024949
      23     bnd      14      23       0       0     1.09065339    -0.00027079
      24     bnd      25      26       0       0     2.77459631    -0.00316763
      25     bnd       7      15       0       0     1.37457154     0.00114599
      26     bnd       8      21       0       0     1.23686823    -0.00165855
      27     ang       6       2      12       0   117.11118745     0.00199107
      28     ang       6       2       3       0   120.41490164     0.00319749
      29     ang      12       2       3       0   121.52081719    -0.00319724
      30     ang       1       3       2       0   120.38576238    -0.00140557
      31     ang       1       3       4       0   115.82555043    -0.00105775
      32     ang       2       3       4       0   123.78706911     0.00243798
      33     ang       3       4      24       0   114.71545580    -0.00553030
      34     ang       3       4       5       0   125.97837052     0.00333083
      35     ang      24       4       5       0   119.30608976     0.00219858
      36     ang       4       5      25       0   119.41521378     0.01353607
      37     ang      10       7      15       0   119.95210114    -0.00145605
      38     ang      10       8      21       0   123.52150041     0.00239482
      39     ang       8      10       7       0   118.37426095     0.02115042
      40     ang       8      10       9       0   119.19287283     0.00723346
      41     ang       7      10       9       0   119.26773165     0.00757652
      42     ang      17      11      12       0   110.41568224    -0.00128838
      43     ang      17      11      16       0   108.49611126     0.00050318
      44     ang      17      11      18       0   108.43679820     0.00039031
      45     ang      12      11      16       0   110.54355341     0.00089808
      46     ang      12      11      18       0   110.39506905    -0.00122699
      47     ang      16      11      18       0   108.48738143     0.00077372
      48     ang       2      12      11       0   108.75662364    -0.04709617
      49     ang       2      12      14       0   108.53327451     0.02507648
      50     ang       2      12      13       0   108.00946031     0.03481414
      51     ang      11      12      14       0   110.41134062     0.00923408
      52     ang      11      12      13       0   110.37785451     0.01162767
      53     ang      14      12      13       0   110.67801225    -0.03314756
      54     ang      12      13      19       0   110.73566903    -0.01478677
      55     ang      12      13      21       0   109.90381128     0.03304440
      56     ang      12      13      20       0   110.38164201     0.00003492
      57     ang      19      13      21       0   108.82588380    -0.03585906
      58     ang      19      13      20       0   108.50006231    -0.00276186
      59     ang      21      13      20       0   108.43723131     0.01986602
      60     ang      12      14      22       0   110.63389307    -0.01138822
      61     ang      12      14      15       0   110.05853393     0.02681102
      62     ang      12      14      23       0   110.49174587    -0.00109461
      63     ang      22      14      15       0   108.80097783    -0.03419948
      64     ang      22      14      23       0   108.42881124    -0.00120953
      65     ang      15      14      23       0   108.36592816     0.02073760
      66     ang      14      15       7       0   150.44046742     0.13262950
      67     ang      13      21       8       0   151.54152658     0.13296834
      68     anY       5      25      26       0   180.01919284    -0.00053228
      69     anZ       5      25      26       0   180.22836776     0.00391931
      70     dih       6       2      12      11    97.57830723     0.00981141
      71     dih       6       2      12      14   217.73099819     0.00820363
      72     dih       6       2      12      13   -22.22895769     0.00292552
      73     dih       3       2      12      11   -71.29042720    -0.00221968
      74     dih       3       2      12      14    48.86226376    -0.00382746
      75     dih       3       2      12      13   168.90230788    -0.00910557
      76     dih       6       2       3       1   185.45530205    -0.00138139
      77     dih       6       2       3       4     5.93778666     0.00198167
      78     dih      12       2       3       1    -6.03884584     0.01089092
      79     dih      12       2       3       4   174.44363877     0.01425397
      80     dih       1       3       4      24   180.34706545     0.00170744
      81     dih       1       3       4       5     0.45387485     0.00211732
      82     dih       2       3       4      24    -0.11532589    -0.00152165
      83     dih       2       3       4       5   179.99148350    -0.00111177
      84     dih       3       4       5      25   177.26186036    -0.00477126
      85     dih      24       4       5      25    -2.62687445    -0.00433316
      86     dih      21       8      10       7   -63.94889527     0.09364748
      87     dih      21       8      10       9   136.28909426    -0.01671192
      88     dih      15       7      10       8    63.32363277    -0.09809979
      89     dih      15       7      10       9   223.07019307     0.01232803
      90     dih      17      11      12       2    60.18113622    -0.00569456
      91     dih      17      11      12      14   -58.80102574    -0.01295057
      92     dih      17      11      12      13   178.50489536     0.01481149
      93     dih      16      11      12       2   180.24580634    -0.00532235
      94     dih      16      11      12      14    61.26364438    -0.01257836
      95     dih      16      11      12      13   -61.43043451     0.01518370
      96     dih      18      11      12       2   -59.71378314    -0.00457282
      97     dih      18      11      12      14   181.30405490    -0.01182883
      98     dih      18      11      12      13    58.60997600     0.01593323
      99     dih       2      12      14      22   179.41136770     0.08512445
     100     dih       2      12      14      15    59.13977076     0.11776707
     101     dih       2      12      14      23   -60.50002818     0.07556231
     102     dih      11      12      14      22   -61.47079582     0.04846104
     103     dih      11      12      14      15   178.25760724     0.08110365
     104     dih      11      12      14      23    58.61780830     0.03889889
     105     dih      13      12      14      22    61.04758367     0.04686297
     106     dih      13      12      14      15   -59.22401327     0.07950558
     107     dih      13      12      14      23   181.13618779     0.03730082
     108     dih       2      12      13      19   180.27378455    -0.07685678
     109     dih       2      12      13      21   -59.45877050    -0.10972309
     110     dih       2      12      13      20    60.10177081    -0.06389805
     111     dih      11      12      13      19    61.49369162    -0.04751772
     112     dih      11      12      13      21   181.76113658    -0.08038404
     113     dih      11      12      13      20   -58.67832211    -0.03455899
     114     dih      14      12      13      19   -61.04420894    -0.04452098
     115     dih      14      12      13      21    59.22323601    -0.07738729
     116     dih      14      12      13      20   178.78377732    -0.03156225
     117     dih      12      13      21       8    31.23772345    -0.01708641
     118     dih      19      13      21       8   152.65547791    -0.03773752
     119     dih      20      13      21       8   -89.50235234    -0.04989529
     120     dih      12      14      15       7   -24.01806353     0.03328920
     121     dih      22      14      15       7   214.60927316     0.05254512
     122     dih      23      14      15       7    96.90592589     0.06144698
     123     dih      10       7      15      14    28.07879516    -0.02670736
     124     dih      10       8      21      13   -35.40684793     0.01234298
     125     bnd       2      10       0       0     2.57639805     0.91167905
 
----------------------------------------------------------------------
Geometry Convergence after Step   2       (Hartree/Angstrom,Angstrom)
----------------------------------------------------------------------
current energy                               -4.58345792 Hartree
energy change                      -0.03412728     0.00026000    F
constrained gradient max            0.38702220     0.00100000    F
constrained gradient rms            0.07577432     0.00066667    F
gradient max                        0.38702220
gradient rms                        0.07577432
cart. step max                      0.07186753     0.01000000    F
cart. step rms                      0.02158706     0.00666667    F
 
 
--------
Geometry
--------
Formula: C8H15I2O
Atoms
  Index Symbol   x (angstrom)   y (angstrom)   z (angstrom)
      1      H     0.24081893    -1.85511271    -0.22638665
      2      C    -0.93824540    -0.15081669     0.29063309
      3      C     0.22126043    -0.78023539    -0.05407213
      4      C     1.48542762    -0.08732947    -0.21041009
      5      O     2.56236223    -0.62331054    -0.52628882
      6      H    -0.95951700     0.93170738     0.36984956
      7      H    -1.15011733    -1.14998596     3.02637478
      8      H    -2.05268521     0.46526635     2.86558457
      9      H    -0.18869474     0.46003536     3.10039731
     10      C    -1.10860267    -0.07342864     2.89479911
     11      C    -2.72578351    -1.15007756    -1.14550277
     12      C    -2.29825767    -0.87021065     0.30301809
     13      C    -3.31174586     0.05818077     0.98483347
     14      C    -2.15810213    -2.18549713     1.08186689
     15      H    -1.81240506    -1.97617750     2.09802796
     16      H    -3.69561093    -1.65199990    -1.16633336
     17      H    -1.99633911    -1.78947267    -1.64573915
     18      H    -2.80856938    -0.21863905    -1.70894642
     19      H    -4.29923169    -0.40624448     1.03195902
     20      H    -3.39910741     0.99795219     0.43570418
     21      H    -2.97163699     0.28287177     2.00068569
     22      H    -3.11466613    -2.71065662     1.13031675
     23      H    -1.43173275    -2.84391062     0.60294292
     24      H     1.46189049     0.97680871    -0.03578611
     25      I     4.03396523     0.38731775    -0.74361731
     26      I     6.32573912     1.93232996    -1.08628230
 
Total System Charge             0.00000
 
 *** GOStep3 ***

 Energy gradients wrt nuclear displacements
 ==========================================

     Atom      Cartesian (a.u./angstrom)
                 X         Y         Z
 ----------------------------------------
     1 H    -0.001552 -0.002355 -0.001024
     2 C     0.028227  0.007270 -0.016826
     3 C    -0.077823 -0.005791  0.015023
     4 C     0.174032  0.016160 -0.034523
     5 O     0.222800  0.217614 -0.023512
     6 H    -0.002391 -0.004189  0.002553
     7 H    -0.015366 -0.025203 -0.020262
     8 H    -0.040434 -0.001523 -0.033397
     9 H    -0.001794 -0.000200 -0.001541
    10 C    -0.026429 -0.014418 -0.018529
    11 C    -0.001266 -0.000511  0.005176
    12 C    -0.018012 -0.014394 -0.011222
    13 C     0.016139  0.003595  0.008394
    14 C     0.008779  0.011284  0.005150
    15 H     0.017720  0.025572  0.026248
    16 H     0.002872  0.000870  0.000315
    17 H     0.000471  0.001559  0.003642
    18 H     0.001245 -0.001369  0.004253
    19 H     0.003401 -0.000271  0.000786
    20 H     0.003225 -0.003788  0.001320
    21 H     0.042565  0.004311  0.038192
    22 H     0.002140  0.002560  0.000958
    23 H     0.002377  0.005881 -0.001183
    24 H    -0.007236 -0.025821 -0.002169
    25 I    -0.302138 -0.174453  0.047412
    26 I    -0.031552 -0.022390  0.004766
 ----------------------------------------
 Mulliken charges used for AMS results%charges...
Hessian eigenvector     1(    -0.034) has overlap with TSRC:    0.62224E+00
Hessian eigenvector     1 has the largest overlap with TSRC:  0.62224
           Primitive Internal Coordinates (atoms in internal order)
-------------------------------------------------------------------------------
    index    type      i       j       k       l   value(A,deg)     Max Ovl Vect
-------------------------------------------------------------------------------
       1     bnd       1       3       0       0     1.08877734    -0.00025810
       2     bnd       2       6       0       0     1.08562705     0.00041208
       3     bnd       2      12       0       0     1.53860795    -0.00235144
       4     bnd       2       3       0       0     1.36361408     0.00294656
       5     bnd       3       4       0       0     1.45006167    -0.00735270
       6     bnd       4      24       0       0     1.07862765     0.00344808
       7     bnd       4       5       0       0     1.24372153    -0.01381723
       8     bnd       5      25       0       0     1.79839278    -0.00456721
       9     bnd       8      10       0       0     1.08735350     0.00231976
      10     bnd       7      10       0       0     1.08536228     0.00174709
      11     bnd       9      10       0       0     1.08309051     0.00017955
      12     bnd      11      17       0       0     1.09139896     0.00040206
      13     bnd      11      12       0       0     1.53600667     0.00126540
      14     bnd      12      14       0       0     1.53500083    -0.00357434
      15     bnd      12      13       0       0     1.53425590    -0.00457388
      16     bnd      13      19       0       0     1.09226365     0.00033841
      17     bnd      13      21       0       0     1.09458478    -0.00870526
      18     bnd      14      22       0       0     1.09231614     0.00036265
      19     bnd      14      15       0       0     1.09357418    -0.00872886
      20     bnd      11      16       0       0     1.09221113     0.00022876
      21     bnd      11      18       0       0     1.09174171     0.00044436
      22     bnd      13      20       0       0     1.09194566     0.00045948
      23     bnd      14      23       0       0     1.09109530     0.00025463
      24     bnd      25      26       0       0     2.78508700     0.00524306
      25     bnd       7      15       0       0     1.40820642     0.01782542
      26     bnd       8      21       0       0     1.27506480     0.02052368
      27     ang       6       2      12       0   116.63584264    -0.00697126
      28     ang       6       2       3       0   119.69405086    -0.00789168
      29     ang      12       2       3       0   122.53628864     0.00723758
      30     ang       1       3       2       0   120.72850239     0.00339908
      31     ang       1       3       4       0   116.04145394     0.00195479
      32     ang       2       3       4       0   123.22984205    -0.00525384
      33     ang       3       4      24       0   115.78200262     0.01144849
      34     ang       3       4       5       0   125.19396279    -0.00709676
      35     ang      24       4       5       0   119.02382025    -0.00435402
      36     ang       4       5      25       0   119.80621256    -0.02247826
      37     ang      10       7      15       0   121.33286609     0.03335496
      38     ang      10       8      21       0   124.96701591     0.03132798
      39     ang       8      10       7       0   117.48049984    -0.02109801
      40     ang       8      10       9       0   119.90173700    -0.00295271
      41     ang       7      10       9       0   119.86893910    -0.00409339
      42     ang      17      11      12       0   110.66815049     0.00277398
      43     ang      17      11      16       0   108.39101393    -0.00141133
      44     ang      17      11      18       0   108.29796395    -0.00064095
      45     ang      12      11      16       0   110.41791489    -0.00140882
      46     ang      12      11      18       0   110.63150228     0.00250747
      47     ang      16      11      18       0   108.35448585    -0.00194057
      48     ang       2      12      11       0   108.88250084     0.05041124
      49     ang       2      12      14       0   108.90577693    -0.01906346
      50     ang       2      12      13       0   107.73096981    -0.04256563
      51     ang      11      12      14       0   110.35179474    -0.00559801
      52     ang      11      12      13       0   110.21083627    -0.01116973
      53     ang      14      12      13       0   110.69096523     0.02753963
      54     ang      12      13      19       0   111.04433576     0.01945929
      55     ang      12      13      21       0   109.35320362    -0.04212150
      56     ang      12      13      20       0   110.49634790     0.00010503
      57     ang      19      13      21       0   109.15674336     0.04035193
      58     ang      19      13      20       0   108.37929683     0.00335013
      59     ang      21      13      20       0   108.35535526    -0.02056296
      60     ang      12      14      22       0   110.76317644     0.01461045
      61     ang      12      14      15       0   109.65328379    -0.03461699
      62     ang      12      14      23       0   110.80194388     0.00315102
      63     ang      22      14      15       0   109.12556023     0.03703252
      64     ang      22      14      23       0   108.20016129     0.00004498
      65     ang      15      14      23       0   108.23553622    -0.01980396
      66     ang      14      15       7       0   150.87314181    -0.12522284
      67     ang      13      21       8       0   151.98558662    -0.12319661
      68     anY       5      25      26       0   180.10303892     0.00208518
      69     anZ       5      25      26       0   179.50663667    -0.02201868
      70     dih       6       2      12      11    96.78711320    -0.03216789
      71     dih       6       2      12      14   217.16277310    -0.02080982
      72     dih       6       2      12      13   -22.73081455    -0.02327288
      73     dih       3       2      12      11   -70.98658957     0.01339766
      74     dih       3       2      12      14    49.38907033     0.02475573
      75     dih       3       2      12      13   169.49548268     0.02229266
      76     dih       6       2       3       1   185.56951791     0.00771274
      77     dih       6       2       3       4     5.73942724    -0.00554952
      78     dih      12       2       3       1    -7.01705981    -0.03920790
      79     dih      12       2       3       4   173.15284953    -0.05247017
      80     dih       1       3       4      24   180.18016905    -0.00722990
      81     dih       1       3       4       5     0.35100641    -0.00615886
      82     dih       2       3       4      24     0.01761197     0.00550243
      83     dih       2       3       4       5   180.18844934     0.00657346
      84     dih       3       4       5      25   177.57193592     0.01368951
      85     dih      24       4       5      25    -2.25213971     0.01478783
      86     dih      21       8      10       7   -61.07072113    -0.01427224
      87     dih      21       8      10       9   137.72553357     0.07171747
      88     dih      15       7      10       8    60.30914084     0.01167577
      89     dih      15       7      10       9   221.51930013    -0.07418737
      90     dih      17      11      12       2    60.58657271     0.01409045
      91     dih      17      11      12      14   -58.89319189     0.00988618
      92     dih      17      11      12      13   178.54988746    -0.01356475
      93     dih      16      11      12       2   180.60207113     0.01321831
      94     dih      16      11      12      14    61.12230653     0.00901404
      95     dih      16      11      12      13   -61.43461411    -0.01443689
      96     dih      18      11      12       2   -59.45178442     0.01151319
      97     dih      18      11      12      14   181.06845098     0.00730892
      98     dih      18      11      12      13    58.51153034    -0.01614201
      99     dih       2      12      14      22   178.62532428    -0.11444134
     100     dih       2      12      14      15    58.12983209    -0.14763916
     101     dih       2      12      14      23   -61.28487290    -0.10292192
     102     dih      11      12      14      22   -61.90900756    -0.06795945
     103     dih      11      12      14      15   177.59550025    -0.10115727
     104     dih      11      12      14      23    58.18079525    -0.05644002
     105     dih      13      12      14      22    60.36595715    -0.06712797
     106     dih      13      12      14      15   -60.12953504    -0.10032579
     107     dih      13      12      14      23   180.45575997    -0.05560855
     108     dih       2      12      13      19   180.57424604     0.09466107
     109     dih       2      12      13      21   -58.90822808     0.13026519
     110     dih       2      12      13      20    60.27631020     0.07786455
     111     dih      11      12      13      19    61.90385322     0.06573680
     112     dih      11      12      13      21   182.42137911     0.10134093
     113     dih      11      12      13      20   -58.39408261     0.04894028
     114     dih      14      12      13      19   -60.45345819     0.06164954
     115     dih      14      12      13      21    60.06406769     0.09725366
     116     dih      14      12      13      20   179.24860597     0.04485302
     117     dih      12      13      21       8    30.80192650     0.00608815
     118     dih      19      13      21       8   152.46507515     0.02975254
     119     dih      20      13      21       8   -89.69882369     0.04471820
     120     dih      12      14      15       7   -23.90113735    -0.02832688
     121     dih      22      14      15       7   214.61395711    -0.04853694
     122     dih      23      14      15       7    97.07707405    -0.05814216
     123     dih      10       7      15      14    28.62280052     0.05447099
     124     dih      10       8      21      13   -35.60764891    -0.02642995
     125     bnd       2      10       0       0     2.61087939    -0.87845076
 
----------------------------------------------------------------------
Geometry Convergence after Step   3       (Hartree/Angstrom,Angstrom)
----------------------------------------------------------------------
current energy                               -4.61794740 Hartree
energy change                      -0.03448948     0.00026000    F
constrained gradient max            0.30213761     0.00100000    F
constrained gradient rms            0.05933652     0.00066667    F
gradient max                        0.30213762
gradient rms                        0.05933652
cart. step max                      0.04826116     0.01000000    F
cart. step rms                      0.01631809     0.00666667    F
 
 
--------
Geometry
--------
Formula: C8H15I2O
Atoms
  Index Symbol   x (angstrom)   y (angstrom)   z (angstrom)
      1      H     0.26115983    -1.86737512    -0.21301799
      2      C    -0.93915673    -0.16675335     0.28596917
      3      C     0.22778852    -0.79139633    -0.05243130
      4      C     1.47031052    -0.08485408    -0.21208645
      5      O     2.55585834    -0.62264571    -0.52389194
      6      H    -0.95572397     0.91736384     0.35871577
      7      H    -1.14276234    -1.14411880     3.05063464
      8      H    -2.03476603     0.47198355     2.89262811
      9      H    -0.16702386     0.46245025     3.14468961
     10      C    -1.08990120    -0.06523651     2.93790184
     11      C    -2.72557658    -1.14968014    -1.15375042
     12      C    -2.30249782    -0.87419545     0.30031352
     13      C    -3.32069784     0.05804502     0.97631674
     14      C    -2.18140992    -2.19441377     1.07863025
     15      H    -1.83313980    -1.98830116     2.09563935
     16      H    -3.70046064    -1.64314231    -1.17617267
     17      H    -2.00196856    -1.79622582    -1.65452282
     18      H    -2.80045454    -0.21865488    -1.72046622
     19      H    -4.30992943    -0.40378649     1.01996110
     20      H    -3.40608406     0.99835297     0.42617266
     21      H    -2.98389232     0.28480794     1.99401636
     22      H    -3.14535923    -2.70695225     1.12510383
     23      H    -1.46413759    -2.86589769     0.60258798
     24      H     1.44631991     0.98701885    -0.04944470
     25      I     4.08222639     0.40312725    -0.75731027
     26      I     6.37169204     1.96984480    -1.10855789
 
Total System Charge             0.00000
 
 *** GOStep4 ***

 Energy gradients wrt nuclear displacements
 ==========================================

     Atom      Cartesian (a.u./angstrom)
                 X         Y         Z
 ----------------------------------------
     1 H    -0.001215 -0.001933 -0.000802
     2 C     0.021747  0.007567 -0.009027
     3 C    -0.052622 -0.004578  0.009282
     4 C     0.122175  0.012644 -0.024259
     5 O     0.181818  0.166412 -0.021606
     6 H    -0.002105 -0.003207  0.001467
     7 H    -0.015595 -0.023153 -0.018136
     8 H    -0.037076 -0.002315 -0.029315
     9 H    -0.001031  0.000007 -0.001194
    10 C    -0.017859 -0.009893 -0.017146
    11 C    -0.000645 -0.000191  0.005013
    12 C    -0.015765 -0.011342 -0.009529
    13 C     0.010528  0.002467  0.006054
    14 C     0.006049  0.008339  0.003805
    15 H     0.016704  0.023179  0.023867
    16 H     0.002270  0.000542  0.000273
    17 H     0.000488  0.001117  0.002497
    18 H     0.000904 -0.000982  0.003037
    19 H     0.002241  0.000100  0.000567
    20 H     0.002516 -0.002855  0.000941
    21 H     0.037913  0.003972  0.034409
    22 H     0.001647  0.001600  0.000472
    23 H     0.002218  0.004483 -0.000981
    24 H    -0.005506 -0.018917 -0.001234
    25 I    -0.235454 -0.136497  0.037718
    26 I    -0.024345 -0.016565  0.003828
 ----------------------------------------
 Mulliken charges used for AMS results%charges...
Hessian eigenvector     1(    -0.030) has overlap with TSRC:    0.60510E+00
Hessian eigenvector     1 has the largest overlap with TSRC:  0.60510
           Primitive Internal Coordinates (atoms in internal order)
-------------------------------------------------------------------------------
    index    type      i       j       k       l   value(A,deg)     Max Ovl Vect
-------------------------------------------------------------------------------
       1     bnd       1       3       0       0     1.08840806    -0.00016698
       2     bnd       2       6       0       0     1.08668147     0.00061087
       3     bnd       2      12       0       0     1.53602702    -0.00147356
       4     bnd       2       3       0       0     1.36618262     0.00473230
       5     bnd       3       4       0       0     1.43824637    -0.01209086
       6     bnd       4      24       0       0     1.08440743     0.00494784
       7     bnd       4       5       0       0     1.25094227    -0.01141599
       8     bnd       5      25       0       0     1.85377822    -0.00666557
       9     bnd       8      10       0       0     1.08785323     0.00315639
      10     bnd       7      10       0       0     1.08604327     0.00285981
      11     bnd       9      10       0       0     1.08301296     0.00024117
      12     bnd      11      17       0       0     1.09197201     0.00068178
      13     bnd      11      12       0       0     1.53921713     0.00134747
      14     bnd      12      14       0       0     1.53734044    -0.00381771
      15     bnd      12      13       0       0     1.53713498    -0.00342469
      16     bnd      13      19       0       0     1.09259888     0.00040370
      17     bnd      13      21       0       0     1.09570612    -0.00788509
      18     bnd      14      22       0       0     1.09272767     0.00043521
      19     bnd      14      15       0       0     1.09456932    -0.00826031
      20     bnd      11      16       0       0     1.09288911     0.00034542
      21     bnd      11      18       0       0     1.09251159     0.00068287
      22     bnd      13      20       0       0     1.09276180     0.00059365
      23     bnd      14      23       0       0     1.09178134     0.00066492
      24     bnd      25      26       0       0     2.79636045     0.00810003
      25     bnd       7      15       0       0     1.44957956     0.03444941
      26     bnd       8      21       0       0     1.32037059     0.03458585
      27     ang       6       2      12       0   116.44397150    -0.00698259
      28     ang       6       2       3       0   119.06116692    -0.00964713
      29     ang      12       2       3       0   123.35813537     0.00818490
      30     ang       1       3       2       0   120.97952781     0.00373306
      31     ang       1       3       4       0   116.28114819     0.00290868
      32     ang       2       3       4       0   122.73894926    -0.00656303
      33     ang       3       4      24       0   116.73166343     0.01542222
      34     ang       3       4       5       0   124.48333322    -0.01023216
      35     ang      24       4       5       0   118.78486677    -0.00518726
      36     ang       4       5      25       0   120.53179192    -0.02156980
      37     ang      10       7      15       0   122.23001918     0.04829257
      38     ang      10       8      21       0   125.63834512     0.04199028
      39     ang       8      10       7       0   116.91211883    -0.01839691
      40     ang       8      10       9       0   120.49500635     0.00207215
      41     ang       7      10       9       0   120.37674015     0.00044559
      42     ang      17      11      12       0   110.91921374     0.00442837
      43     ang      17      11      16       0   108.32223601    -0.00197868
      44     ang      17      11      18       0   108.18604400    -0.00063850
      45     ang      12      11      16       0   110.20504363    -0.00322397
      46     ang      12      11      18       0   110.87600280     0.00407744
      47     ang      16      11      18       0   108.24018078    -0.00282459
      48     ang       2      12      11       0   108.51624768     0.04436612
      49     ang       2      12      14       0   109.28927570    -0.01543051
      50     ang       2      12      13       0   108.22290496    -0.03227425
      51     ang      11      12      14       0   110.25606540    -0.00548776
      52     ang      11      12      13       0   109.99424617    -0.01234842
      53     ang      14      12      13       0   110.50862140     0.02104210
      54     ang      12      13      19       0   111.15840122     0.02131804
      55     ang      12      13      21       0   109.29142618    -0.04382675
      56     ang      12      13      20       0   110.62324757     0.00070773
      57     ang      19      13      21       0   109.18883515     0.03977260
      58     ang      19      13      20       0   108.24523786     0.00275422
      59     ang      21      13      20       0   108.27255642    -0.02017063
      60     ang      12      14      22       0   110.78427788     0.01588708
      61     ang      12      14      15       0   109.49665788    -0.03861898
      62     ang      12      14      23       0   111.04928850     0.00426857
      63     ang      22      14      15       0   109.23779738     0.03729352
      64     ang      22      14      23       0   108.03600074    -0.00020443
      65     ang      15      14      23       0   108.17408053    -0.01815431
      66     ang      14      15       7       0   150.84727338    -0.12879855
      67     ang      13      21       8       0   151.93581669    -0.12389364
      68     anY       5      25      26       0   180.02771278     0.00026164
      69     anZ       5      25      26       0   180.48196585     0.01221405
      70     dih       6       2      12      11    96.50476398    -0.03914790
      71     dih       6       2      12      14   216.77284500    -0.02904894
      72     dih       6       2      12      13   -22.82880945    -0.03128629
      73     dih       3       2      12      11   -71.16705062     0.01141306
      74     dih       3       2      12      14    49.10103040     0.02151202
      75     dih       3       2      12      13   169.49937595     0.01927467
      76     dih       6       2       3       1   184.99626528    -0.00641150
      77     dih       6       2       3       4     5.22733030    -0.01685362
      78     dih      12       2       3       1    -7.63678450    -0.05829272
      79     dih      12       2       3       4   172.59428052    -0.06873485
      80     dih       1       3       4      24   180.26423305    -0.00417192
      81     dih       1       3       4       5     0.40073154    -0.00546993
      82     dih       2       3       4      24     0.04329090     0.00585254
      83     dih       2       3       4       5   180.17978939     0.00455453
      84     dih       3       4       5      25   177.88694658     0.02270081
      85     dih      24       4       5      25    -1.97395572     0.02131863
      86     dih      21       8      10       7   -59.40028854     0.01602927
      87     dih      21       8      10       9   137.44830952     0.06397198
      88     dih      15       7      10       8    58.43249544    -0.02849369
      89     dih      15       7      10       9   221.60492684    -0.07616253
      90     dih      17      11      12       2    60.72389657     0.01448084
      91     dih      17      11      12      14   -58.94140127     0.00946927
      92     dih      17      11      12      13   178.93997611    -0.00501648
      93     dih      16      11      12       2   180.67694244     0.01280216
      94     dih      16      11      12      14    61.01164460     0.00779059
      95     dih      16      11      12      13   -61.10697801    -0.00669516
      96     dih      18      11      12       2   -59.50033753     0.00984072
      97     dih      18      11      12      14   180.83436463     0.00482915
      98     dih      18      11      12      13    58.71574202    -0.00965660
      99     dih       2      12      14      22   178.60615879    -0.12249552
     100     dih       2      12      14      15    58.05935647    -0.15424942
     101     dih       2      12      14      23   -61.33333041    -0.10973998
     102     dih      11      12      14      22   -62.19774139    -0.08109574
     103     dih      11      12      14      15   177.25545629    -0.11284964
     104     dih      11      12      14      23    57.86276941    -0.06834020
     105     dih      13      12      14      22    59.61677747    -0.08612142
     106     dih      13      12      14      15   -60.93002485    -0.11787532
     107     dih      13      12      14      23   179.67728827    -0.07336588
     108     dih       2      12      13      19   180.48857324     0.10237256
     109     dih       2      12      13      21   -58.92196285     0.13734773
     110     dih       2      12      13      20    60.19959175     0.08473040
     111     dih      11      12      13      19    62.09163422     0.07523171
     112     dih      11      12      13      21   182.68109813     0.11020688
     113     dih      11      12      13      20   -58.19734727     0.05758955
     114     dih      14      12      13      19   -59.87707335     0.07624843
     115     dih      14      12      13      21    60.71239056     0.11122360
     116     dih      14      12      13      20   179.83394516     0.05860627
     117     dih      12      13      21       8    30.54978147     0.00113883
     118     dih      19      13      21       8   152.33477572     0.02567151
     119     dih      20      13      21       8   -90.01856075     0.03982331
     120     dih      12      14      15       7   -23.68159374    -0.02216326
     121     dih      22      14      15       7   214.83479194    -0.04164122
     122     dih      23      14      15       7    97.46658400    -0.05201075
     123     dih      10       7      15      14    29.21561027     0.07525580
     124     dih      10       8      21      13   -35.64273168    -0.02954537
     125     bnd       2      10       0       0     2.65815282    -0.85292227
 
----------------------------------------------------------------------
Geometry Convergence after Step   4       (Hartree/Angstrom,Angstrom)
----------------------------------------------------------------------
current energy                               -4.64569699 Hartree
energy change                      -0.02774959     0.00026000    F
constrained gradient max            0.23545690     0.00100000    F
constrained gradient rms            0.04614573     0.00066667    F
gradient max                        0.23545690
gradient rms                        0.04614573
cart. step max                      0.07455842     0.01000000    F
cart. step rms                      0.01734462     0.00666667    F
 
 
--------
Geometry
--------
Formula: C8H15I2O
Atoms
  Index Symbol   x (angstrom)   y (angstrom)   z (angstrom)
      1      H     0.27716447    -1.87308490    -0.20714459
      2      C    -0.94639296    -0.18081526     0.27236594
      3      C     0.22825300    -0.79688496    -0.05493290
      4      C     1.45317971    -0.07385005    -0.21118804
      5      O     2.54658979    -0.60574635    -0.51574975
      6      H    -0.96111799     0.90439983     0.34344162
      7      H    -1.12756344    -1.13838305     3.07534395
      8      H    -2.00614383     0.48134782     2.91728137
      9      H    -0.13666005     0.46158057     3.17903793
     10      C    -1.06410216    -0.05882648     2.97596466
     11      C    -2.73508083    -1.15662017    -1.16217517
     12      C    -2.30853133    -0.88167819     0.29447058
     13      C    -3.32527014     0.05749987     0.96738256
     14      C    -2.20115741    -2.20425676     1.07506699
     15      H    -1.84941142    -2.00149523     2.09201384
     16      H    -3.71454269    -1.64245070    -1.18072094
     17      H    -2.01865054    -1.81025981    -1.66476831
     18      H    -2.80526294    -0.22688605    -1.73266284
     19      H    -4.31589475    -0.40163848     1.01179914
     20      H    -3.40956271     0.99706449     0.41449204
     21      H    -2.98985028     0.28804970     1.98503582
     22      H    -3.17164988    -2.70468162     1.12310560
     23      H    -1.49387680    -2.88822813     0.60084924
     24      H     1.42345684     1.00372626    -0.05784247
     25      I     4.11624099     0.44991059    -0.75648302
     26      I     6.44625046     1.97157168    -1.11635498
 
Total System Charge             0.00000
 
 *** GOStep5 ***

 Energy gradients wrt nuclear displacements
 ==========================================

     Atom      Cartesian (a.u./angstrom)
                 X         Y         Z
 ----------------------------------------
     1 H    -0.001124 -0.001413 -0.000659
     2 C     0.015621  0.007409 -0.002958
     3 C    -0.033669 -0.002789  0.005281
     4 C     0.086862  0.008971 -0.016669
     5 O     0.148251  0.129993 -0.018483
     6 H    -0.001626 -0.002334  0.000737
     7 H    -0.015335 -0.020573 -0.016125
     8 H    -0.033190 -0.003025 -0.025616
     9 H    -0.000754 -0.000017 -0.000937
    10 C    -0.011401 -0.006779 -0.016643
    11 C    -0.000295 -0.000103  0.004283
    12 C    -0.013099 -0.009405 -0.007969
    13 C     0.007684  0.002106  0.004388
    14 C     0.004095  0.005907  0.003016
    15 H     0.015404  0.020512  0.021453
    16 H     0.001661  0.000263  0.000130
    17 H     0.000400  0.000868  0.001691
    18 H     0.000644 -0.000675  0.002139
    19 H     0.001742  0.000116  0.000261
    20 H     0.001998 -0.001980  0.000699
    21 H     0.033300  0.003706  0.030397
    22 H     0.001346  0.000986  0.000205
    23 H     0.001890  0.003355 -0.000666
    24 H    -0.003297 -0.013956 -0.000975
    25 I    -0.189626 -0.108652  0.030295
    26 I    -0.017482 -0.012491  0.002724
 ----------------------------------------
 Mulliken charges used for AMS results%charges...
Hessian eigenvector     1(    -0.028) has overlap with TSRC:    0.59740E+00
Hessian eigenvector     1 has the largest overlap with TSRC:  0.59740
           Primitive Internal Coordinates (atoms in internal order)
-------------------------------------------------------------------------------
    index    type      i       j       k       l   value(A,deg)     Max Ovl Vect
-------------------------------------------------------------------------------
       1     bnd       1       3       0       0     1.08801059    -0.00026543
       2     bnd       2       6       0       0     1.08763982     0.00075873
       3     bnd       2      12       0       0     1.53203081    -0.00082627
       4     bnd       2       3       0       0     1.36618430     0.00606319
       5     bnd       3       4       0       0     1.43095793    -0.01779325
       6     bnd       4      24       0       0     1.08883838     0.00545395
       7     bnd       4       5       0       0     1.25348200    -0.01049954
       8     bnd       5      25       0       0     1.90687413    -0.01679411
       9     bnd       8      10       0       0     1.08750840     0.00408699
      10     bnd       7      10       0       0     1.08597697     0.00340137
      11     bnd       9      10       0       0     1.08268698     0.00016061
      12     bnd      11      17       0       0     1.09229895     0.00077818
      13     bnd      11      12       0       0     1.54251561     0.00149608
      14     bnd      12      14       0       0     1.53950447    -0.00325985
      15     bnd      12      13       0       0     1.53903339    -0.00357008
      16     bnd      13      19       0       0     1.09275705     0.00028255
      17     bnd      13      21       0       0     1.09602822    -0.00697763
      18     bnd      14      22       0       0     1.09297228     0.00042631
      19     bnd      14      15       0       0     1.09499698    -0.00772906
      20     bnd      11      16       0       0     1.09349020     0.00052871
      21     bnd      11      18       0       0     1.09306324     0.00086550
      22     bnd      13      20       0       0     1.09342345     0.00080659
      23     bnd      14      23       0       0     1.09222029     0.00078053
      24     bnd      25      26       0       0     2.80604784     0.01072898
      25     bnd       7      15       0       0     1.49431095     0.03527520
      26     bnd       8      21       0       0     1.36898660     0.03391013
      27     ang       6       2      12       0   116.32569632    -0.00613196
      28     ang       6       2       3       0   118.50481657    -0.01015795
      29     ang      12       2       3       0   124.16769476     0.01020446
      30     ang       1       3       2       0   121.21258668     0.00357997
      31     ang       1       3       4       0   116.48968329     0.00398948
      32     ang       2       3       4       0   122.29736830    -0.00749708
      33     ang       3       4      24       0   117.47155424     0.01944534
      34     ang       3       4       5       0   123.97472057    -0.01239013
      35     ang      24       4       5       0   118.55333739    -0.00706085
      36     ang       4       5      25       0   120.91697562    -0.02283748
      37     ang      10       7      15       0   122.83310474     0.05446357
      38     ang      10       8      21       0   126.09041121     0.04953782
      39     ang       8      10       7       0   116.62115682    -0.01767055
      40     ang       8      10       9       0   120.89070688     0.00552077
      41     ang       7      10       9       0   120.71142580     0.00358637
      42     ang      17      11      12       0   111.08781902     0.00541956
      43     ang      17      11      16       0   108.28983285    -0.00240622
      44     ang      17      11      18       0   108.11695367    -0.00085755
      45     ang      12      11      16       0   110.05367670    -0.00363886
      46     ang      12      11      18       0   111.03928875     0.00474215
      47     ang      16      11      18       0   108.15221269    -0.00345768
      48     ang       2      12      11       0   108.28713791     0.04292061
      49     ang       2      12      14       0   109.77434941    -0.00993240
      50     ang       2      12      13       0   108.33154342    -0.03408143
      51     ang      11      12      14       0   110.18039523    -0.00473649
      52     ang      11      12      13       0   109.81452819    -0.01213092
      53     ang      14      12      13       0   110.40378192     0.01791717
      54     ang      12      13      19       0   111.11619211     0.02104300
      55     ang      12      13      21       0   109.39951844    -0.04528118
      56     ang      12      13      20       0   110.74523039     0.00170771
      57     ang      19      13      21       0   109.15176335     0.03996201
      58     ang      19      13      20       0   108.16230627     0.00278000
      59     ang      21      13      20       0   108.19992192    -0.01963081
      60     ang      12      14      22       0   110.71365095     0.01589677
      61     ang      12      14      15       0   109.52558446    -0.03951597
[...]
 
                 === DEBUG
 
                   ALL        =  F
                   B1         =  F
                   DENSITIES  =  F
                   FIT        =  F
                   HESSIAN    =  F
                   NUMBERS    =  F
                   SYMMETRY   =  F
                   U1         =  F
 
                 === CPKS
 
                   MAX_CPKS_ITERATIONS    =    20
                   U1_ACCURACY PARAMETER  =     5.00
                   U1 ACCURACY            =     0.0000100
 

                 Estimated peak private memory usage    182 MB per process
                                 shared memory usage   3997 MB per node

              <><><><><><><><><><><><><><><><><><><><><><><><><>

######## LOOPING OVER NUCLEI ########

==========================
###### NUCLEUS:     1  H  
==========================

====================  solving CPKS equations  ====================

NUCLEUS  COORD.    ITERATION   ACCURACY
-------  ------    ---------   --------
    1       1          1       0.18150442D-01
    1       1          2       0.18336892D-02
    1       1          3       0.63843678D-03
    1       1          4       0.24673431D-03
    1       1          5       0.10914196D-03
    1       1          6       0.68109036D-04
    1       1          7       0.44461439D-04
    1       1          8       0.18623231D-04
    1       1          9       0.69941308D-05
*** CPKS converged.
----------------------------------------------
    1       2          1       0.39925603D-01
    1       2          2       0.56806875D-02
    1       2          3       0.15590809D-02
    1       2          4       0.96044820D-03
    1       2          5       0.21115791D-03
    1       2          6       0.77415206D-04
    1       2          7       0.22527569D-04
    1       2          8       0.19710152D-04
    1       2          9       0.10914065D-04
    1       2         10       0.33128357D-05
*** CPKS converged.
----------------------------------------------
    1       3          1       0.83568161D-02
    1       3          2       0.15087539D-02
    1       3          3       0.43808668D-03
    1       3          4       0.39207466D-03
    1       3          5       0.13264085D-03
    1       3          6       0.36742007D-04
    1       3          7       0.15350720D-04
    1       3          8       0.59263947D-05
*** CPKS converged.
----------------------------------------------

====================  end of solving CPKS equations  ====================

==========================
###### NUCLEUS:     6  H  
==========================

====================  solving CPKS equations  ====================

NUCLEUS  COORD.    ITERATION   ACCURACY
-------  ------    ---------   --------
    6       1          1       0.17764861D-01
    6       1          2       0.13236296D-02
    6       1          3       0.55099217D-03
    6       1          4       0.44721063D-03
    6       1          5       0.24434953D-03
    6       1          6       0.15370652D-03
    6       1          7       0.60616164D-04
    6       1          8       0.19694323D-04
    6       1          9       0.73548552D-05
*** CPKS converged.
----------------------------------------------
    6       2          1       0.33515368D-01
    6       2          2       0.59259978D-02
    6       2          3       0.16678988D-02
    6       2          4       0.87992129D-03
    6       2          5       0.52299443D-03
    6       2          6       0.23516772D-03
    6       2          7       0.20811024D-03
    6       2          8       0.68601559D-04
    6       2          9       0.11729493D-04
    6       2         10       0.59432019D-05
*** CPKS converged.
----------------------------------------------
    6       3          1       0.16420574D-01
    6       3          2       0.38380857D-02
    6       3          3       0.33400259D-02
    6       3          4       0.24359667D-02
    6       3          5       0.63272842D-03
    6       3          6       0.22598015D-03
    6       3          7       0.10780334D-03
    6       3          8       0.64468970D-04
    6       3          9       0.18796134D-04
    6       3         10       0.85141306D-05
*** CPKS converged.
----------------------------------------------

====================  end of solving CPKS equations  ====================

==========================
###### NUCLEUS:     7  H  
==========================

====================  solving CPKS equations  ====================

NUCLEUS  COORD.    ITERATION   ACCURACY
-------  ------    ---------   --------
    7       1          1       0.10646869D-01
    7       1          2       0.18709351D-02
    7       1          3       0.65262174D-03
    7       1          4       0.28996452D-03
    7       1          5       0.16815702D-03
    7       1          6       0.59746421D-04
    7       1          7       0.24245451D-04
    7       1          8       0.84179411D-05
*** CPKS converged.
----------------------------------------------
    7       2          1       0.27786147D-01
    7       2          2       0.44897877D-02
    7       2          3       0.19270697D-02
    7       2          4       0.55884284D-03
    7       2          5       0.44269952D-03
    7       2          6       0.14948180D-03
    7       2          7       0.75398125D-04
    7       2          8       0.27005144D-04
    7       2          9       0.16108499D-04
    7       2         10       0.13309583D-04
    7       2         11       0.38943746D-05
*** CPKS converged.
----------------------------------------------
    7       3          1       0.15157646D-01
    7       3          2       0.39236912D-02
    7       3          3       0.11263716D-02
    7       3          4       0.88912941D-03
    7       3          5       0.27848074D-03
    7       3          6       0.15358865D-03
    7       3          7       0.62588972D-04
    7       3          8       0.72266336D-04
    7       3          9       0.28718248D-04
    7       3         10       0.90810082D-05
*** CPKS converged.
----------------------------------------------

====================  end of solving CPKS equations  ====================

==========================
###### NUCLEUS:     8  H  
==========================

====================  solving CPKS equations  ====================

NUCLEUS  COORD.    ITERATION   ACCURACY
-------  ------    ---------   --------
    8       1          1       0.24706545D-01
    8       1          2       0.38322484D-02
    8       1          3       0.11158775D-02
    8       1          4       0.41297488D-03
    8       1          5       0.24461494D-03
    8       1          6       0.11745288D-03
    8       1          7       0.74401994D-04
    8       1          8       0.18402457D-04
    8       1          9       0.10510252D-04
    8       1         10       0.65578086D-05
*** CPKS converged.
----------------------------------------------
    8       2          1       0.21008742D-01
    8       2          2       0.31537373D-02
    8       2          3       0.11455229D-02
    8       2          4       0.47380377D-03
    8       2          5       0.17595028D-03
    8       2          6       0.81656184D-04
    8       2          7       0.45636959D-04
    8       2          8       0.13171155D-04
    8       2          9       0.48833206D-05
*** CPKS converged.
----------------------------------------------
    8       3          1       0.83934290D-02
    8       3          2       0.30023895D-02
    8       3          3       0.21464342D-02
    8       3          4       0.90479016D-03
    8       3          5       0.17898733D-03
    8       3          6       0.85140409D-04
    8       3          7       0.61209995D-04
    8       3          8       0.29938538D-04
    8       3          9       0.12904586D-04
    8       3         10       0.73084065D-05
*** CPKS converged.
----------------------------------------------

====================  end of solving CPKS equations  ====================

==========================
###### NUCLEUS:     9  H  
==========================

====================  solving CPKS equations  ====================

NUCLEUS  COORD.    ITERATION   ACCURACY
-------  ------    ---------   --------
    9       1          1       0.27282518D-01
    9       1          2       0.32761340D-02
    9       1          3       0.16348370D-02
    9       1          4       0.67638867D-03
    9       1          5       0.15435558D-03
    9       1          6       0.90284364D-04
    9       1          7       0.81289636D-04
    9       1          8       0.40780919D-04
    9       1          9       0.11955197D-04
    9       1         10       0.55804224D-05
*** CPKS converged.
----------------------------------------------
    9       2          1       0.76445839D-02
    9       2          2       0.15956671D-02
    9       2          3       0.53525072D-03
    9       2          4       0.42830758D-03
    9       2          5       0.13083222D-03
    9       2          6       0.39931092D-04
    9       2          7       0.27824627D-04
    9       2          8       0.23000572D-04
    9       2          9       0.80862984D-05
*** CPKS converged.
----------------------------------------------
    9       3          1       0.91814566D-02
    9       3          2       0.34935202D-02
    9       3          3       0.18289071D-02
    9       3          4       0.11761992D-02
    9       3          5       0.29652956D-03
    9       3          6       0.11236204D-03
    9       3          7       0.68894387D-04
    9       3          8       0.40461633D-04
    9       3          9       0.17385165D-04
    9       3         10       0.82112993D-05
*** CPKS converged.
----------------------------------------------

====================  end of solving CPKS equations  ====================

==========================
###### NUCLEUS:    15  H  
==========================

====================  solving CPKS equations  ====================

NUCLEUS  COORD.    ITERATION   ACCURACY
-------  ------    ---------   --------
   15       1          1       0.32835336D-02
   15       1          2       0.14909550D-02
   15       1          3       0.32881019D-03
   15       1          4       0.16624937D-03
   15       1          5       0.91564948D-04
   15       1          6       0.26877748D-04
   15       1          7       0.94058162D-05
*** CPKS converged.
----------------------------------------------
   15       2          1       0.75531120D-02
   15       2          2       0.19687648D-02
   15       2          3       0.65658093D-03
   15       2          4       0.22747127D-03
   15       2          5       0.95254815D-04
   15       2          6       0.60857707D-04
   15       2          7       0.27367696D-04
   15       2          8       0.18122143D-04
   15       2          9       0.80358107D-05
*** CPKS converged.
----------------------------------------------
   15       3          1       0.44440880D-02
   15       3          2       0.28147862D-02
   15       3          3       0.49367850D-03
   15       3          4       0.20624251D-03
   15       3          5       0.13614712D-03
   15       3          6       0.46632487D-04
   15       3          7       0.18174313D-04
   15       3          8       0.34900204D-05
*** CPKS converged.
----------------------------------------------

====================  end of solving CPKS equations  ====================

==========================
###### NUCLEUS:    16  H  
==========================

====================  solving CPKS equations  ====================

NUCLEUS  COORD.    ITERATION   ACCURACY
-------  ------    ---------   --------
   16       1          1       0.58800812D-02
   16       1          2       0.33565208D-02
   16       1          3       0.98939804D-03
   16       1          4       0.45874784D-03
   16       1          5       0.22359215D-03
   16       1          6       0.84707064D-04
   16       1          7       0.56525908D-04
   16       1          8       0.36430487D-04
   16       1          9       0.14621488D-04
   16       1         10       0.31898416D-05
*** CPKS converged.
----------------------------------------------
   16       2          1       0.30179395D-02
   16       2          2       0.23871136D-02
   16       2          3       0.67485363D-03
   16       2          4       0.16024850D-03
   16       2          5       0.15035143D-03
   16       2          6       0.54447536D-04
   16       2          7       0.48309683D-04
   16       2          8       0.31401352D-04
   16       2          9       0.69201022D-05
*** CPKS converged.
----------------------------------------------
   16       3          1       0.77782009D-02
   16       3          2       0.21381394D-02
   16       3          3       0.69398068D-03
   16       3          4       0.33404527D-03
   16       3          5       0.47114551D-03
   16       3          6       0.18403069D-03
   16       3          7       0.81335266D-04
   16       3          8       0.13201488D-04
   16       3          9       0.60517545D-05
*** CPKS converged.
----------------------------------------------

====================  end of solving CPKS equations  ====================

==========================
###### NUCLEUS:    17  H  
==========================

====================  solving CPKS equations  ====================

NUCLEUS  COORD.    ITERATION   ACCURACY
-------  ------    ---------   --------
   17       1          1       0.69809635D-02
   17       1          2       0.25399325D-02
   17       1          3       0.10571907D-02
   17       1          4       0.34254589D-03
   17       1          5       0.92000155D-04
   17       1          6       0.39366666D-04
   17       1          7       0.70667534D-05
*** CPKS converged.
----------------------------------------------
   17       2          1       0.31311664D-02
   17       2          2       0.32669732D-02
   17       2          3       0.67153046D-03
   17       2          4       0.26621122D-03
   17       2          5       0.24580422D-03
   17       2          6       0.10298200D-03
   17       2          7       0.70435896D-04
   17       2          8       0.38741032D-04
   17       2          9       0.72388343D-05
*** CPKS converged.
----------------------------------------------
   17       3          1       0.80391788D-02
   17       3          2       0.37008064D-02
   17       3          3       0.81020802D-03
   17       3          4       0.30092505D-03
   17       3          5       0.36537451D-03
   17       3          6       0.14241592D-03
   17       3          7       0.12702060D-03
   17       3          8       0.30625291D-04
   17       3          9       0.82888165D-05
*** CPKS converged.
----------------------------------------------

====================  end of solving CPKS equations  ====================

==========================
###### NUCLEUS:    18  H  
==========================

====================  solving CPKS equations  ====================

NUCLEUS  COORD.    ITERATION   ACCURACY
-------  ------    ---------   --------
   18       1          1       0.47632079D-02
   18       1          2       0.18335045D-02
   18       1          3       0.52815543D-03
   18       1          4       0.16720578D-03
   18       1          5       0.75960925D-04
   18       1          6       0.33847130D-04
   18       1          7       0.82106626D-05
*** CPKS converged.
----------------------------------------------
   18       2          1       0.56106675D-02
   18       2          2       0.26469409D-02
   18       2          3       0.85964382D-03
   18       2          4       0.23274108D-03
   18       2          5       0.86651896D-04
   18       2          6       0.40487861D-04
   18       2          7       0.27207685D-04
   18       2          8       0.13589163D-04
   18       2          9       0.97584292D-05
*** CPKS converged.
----------------------------------------------
   18       3          1       0.68379941D-02
   18       3          2       0.23919042D-02
   18       3          3       0.71137742D-03
   18       3          4       0.26491538D-03
   18       3          5       0.11318063D-03
   18       3          6       0.56626814D-04
   18       3          7       0.39859162D-04
   18       3          8       0.26568940D-04
   18       3          9       0.86180395D-05
*** CPKS converged.
----------------------------------------------

====================  end of solving CPKS equations  ====================

==========================
###### NUCLEUS:    19  H  
==========================

====================  solving CPKS equations  ====================

NUCLEUS  COORD.    ITERATION   ACCURACY
-------  ------    ---------   --------
   19       1          1       0.81137345D-02
   19       1          2       0.34461587D-02
   19       1          3       0.14936676D-02
   19       1          4       0.54208766D-03
   19       1          5       0.13629389D-03
   19       1          6       0.59250360D-04
   19       1          7       0.19662857D-04
   19       1          8       0.12676758D-04
   19       1          9       0.91824649D-05
*** CPKS converged.
----------------------------------------------
   19       2          1       0.32167306D-02
   19       2          2       0.10479928D-02
   19       2          3       0.43333148D-03
   19       2          4       0.16671004D-03
   19       2          5       0.90589923D-04
   19       2          6       0.12646151D-04
   19       2          7       0.82719039D-05
*** CPKS converged.
----------------------------------------------
   19       3          1       0.52089737D-02
   19       3          2       0.13766421D-02
   19       3          3       0.27342714D-03
   19       3          4       0.15805064D-03
   19       3          5       0.12930689D-03
   19       3          6       0.19671403D-04
   19       3          7       0.32668705D-04
   19       3          8       0.17547707D-04
   19       3          9       0.10410052D-04
   19       3         10       0.21557470D-05
*** CPKS converged.
----------------------------------------------

====================  end of solving CPKS equations  ====================

==========================
###### NUCLEUS:    20  H  
==========================

====================  solving CPKS equations  ====================

NUCLEUS  COORD.    ITERATION   ACCURACY
-------  ------    ---------   --------
   20       1          1       0.66096371D-02
   20       1          2       0.21217930D-02
   20       1          3       0.69601757D-03
   20       1          4       0.18425642D-03
 
 ============
 Timer stack:
 ------------
  1643624556.06  AMS
  1643651522.70  ADFEngine%Solve
  1643651879.47  ENHESS
  1643663350.98  nuc
  1643663375.15  U1
  1643663456.96  CPKS
  1643663600.48  f1u1_ai_gga
  1643663600.48  BasVU1BasSq
  1643663600.56  init
  1643663602.52  CalcFitFunctionEval
  1643663615.46  CalcFit
 ============

Process received SIGTERM
 WARNING: Nr of shared arrays in use at the end:           36
 Names of the Shared Arrays that have not been deleted
 projCoeff
 projCoeff
 projCoeff
 projCoeff
 activefrag%initialMOs%A%_A%eigbas
 activefrag%initialMOs%A%_B%eigbas
 activefrag%initialMOs%A%_A%eigbas
 activefrag%initialMOs%A%_B%eigbas
 grid%coords
 grid%w
 grid%distance2atoms
 grid%neighbors
 projCoeff
 fullGrid
 EIG%eigbas
 NewMMGridFunction%data4
 NewMMGridFunction%data4
 NewMMGridFunction%data4
 NewMMGridFunction%data4
 NewMMGridFunction%data4
 NewMMGridFunction%data4
 NewMMGridFunction%data4
 NewMMGridFunction%data4
 NewMMGridFunction%data4
 NewMMGridFunction%data4
 NewMMGridFunction%data4
 NewMMGridFunction%data4
 NewMMGridFunction%data4
 NewMMGridFunction%data4
 HybridGlobalIterator%shmem
 activefrag%initialMOs%A%_A%eigbas
 activefrag%initialMOs%A%_B%eigbas
 projCoeff
 projCoeff
 fullGrid
 density
