

 Parallel Execution: Process Information
 ==============================================================================
 Rank   Node Name                              NodeID   MyNodeRank  NodeMaster
    0   node117                                   0          0          0
    1   node117                                   0          1         -1
    2   node117                                   0          2         -1
    3   node117                                   0          3         -1
 ==============================================================================


May use up to 122928MB of RAM as shared memory on node 0

 *******************************************************************************
 *                                                                             *
 *  --------------------------------                                           *
 *   Amsterdam Modeling Suite (AMS)              2021.102                      *
 *  --------------------------------                                           *
 *                                               r95042 2021-06-07             *
 *                                                                             *
 *                                                                             *
 *                              =================                              *
 *                              |               |                              *
 *                              |     A M S     |                              *
 *                              |               |                              *
 *                              =================                              *
 *                                                                             *
 *                                                                             *
 *   Online information and documentation:  https://www.scm.com/support/       *
 *   E-mail:  support@scm.com   info@scm.com                                   *
 *                                                                             *
 *   Scientific publications using AMS results must be properly referenced     *
 *   See the User Manuals (or the web site) for recommended citations          *
 *   The terms and conditions of the End User License Agreement apply to       *
 *   the use of AMS, https://www.scm.com/license-terms/                        *
 *                                                                             *
 **********************  x86_64_linux_intel / intelmpi  ************************
 
 Licensed to: VU/FEW (+ SARA) / ALGEMEEN / Amsterdam / THE NETHERLANDS
 SCM User ID: u7668
  
 AMS 2021.102  RunTime: Jan28-2022 14:54:44  ShM Nodes: 1  Procs: 4

 AMS jobname: 14.achiral_catalyst.H_Ph_TiCl4.P1
 AMS jobid  : 1474095728

 Start   directory: /scistor/tc/yhk800/MasterProject/calculations/achiral_catalyst_H_Ph_TiCl4/14.achiral_catalyst.H_Ph_TiCl4.P1/
 Results directory: /scistor/tc/yhk800/MasterProject/calculations/achiral_catalyst_H_Ph_TiCl4/14.achiral_catalyst.H_Ph_TiCl4.P1/
 Scratch directory: /scratch/5296/amstmp_14.achiral_catalyst.H_Ph_TiCl4.P1_kid0.1474095728/


 Communication costs MPI_COMM_WORLD:      2.116 usec per message,   0.0104 usec per 8-byte item
 Communication costs for intra-node:      2.096 usec per message,   0.0488 usec per 8-byte item

 RNG seed: 753517240 -979242846 1699205266 1769029640 -489761613 -902644189 1838024924 1660859582



                      ************************************************************************
                      *  ADF 2021.102  RunTime: Jan28-2022 14:54:45  ShM Nodes: 1  Procs: 4  *
                      ************************************************************************
  
       ***************************
       *  GEOMETRY OPTIMIZATION  *
       ***************************

Optimization Method                    Quasi Newton
Optimization Coordinates               Delocalized Coordinates
Optimize lattice                       F
 
 ------------------------------------------------------
 Convergence criteria (Hartree,Angstrom)
 ------------------------------------------------------
 Maximum gradient               0.001000000000
 Maximum rms gradient           0.000666666667
 Maximum step allowed           0.010000000000
 Maximum rms step allowed       0.006666666667
 Maximum energy change allowe   0.000270000000
 Maximum stress energy allowe   0.000500000000
 
Initial model Hessian                  Automatic Hessian
 
------------------------------------
Quasi-Newton Optimizer Parameters
------------------------------------
Hessian Update Method                  BFGS
Maximum number of steps                  250
First GDIIS cycle                          0
Maximum GDIIS vectors                      0
Trust radius (bohr)                        0.200000
Trust radius varies                        T
Constraints converged at all steps         T
Use projector                              T
 
 Rigid motions settings for: old optimizer
 Atomic rotations (x,y,z):     T T T
 Atomic translations (x,y,z):  T T T
 Tolerance:                   1.000000000000000E-006
 
--------
Geometry
--------
Formula: C10H11Cl4OTi
Atoms
  Index Symbol   x (angstrom)   y (angstrom)   z (angstrom)
      1      H     0.30883566    -1.71322737     0.34845077
      2      C    -0.85933175     0.07325638     0.95361639
      3      C     0.30566658    -0.62207952     0.35697327
      4      C     1.44363467     0.02246096    -0.23005168
      5      O     2.41991567    -0.55928782    -0.73004528
      6      H    -0.69195270     1.15283717     0.94428296
      7      H    -2.09949902     0.10683830     2.73788510
      8      H    -0.38777363    -0.20492454     3.06899219
      9      C    -1.20706757    -0.41125312     2.37345100
     10      H    -1.40849480    -1.48746718     2.39475159
     11      C    -4.29292549    -0.66839322    -1.59666079
     12      C    -3.82114632     0.63831354    -1.41996901
     13      C    -2.71340734     0.87758301    -0.59720381
     14      C    -2.07744753    -0.18985427     0.04886961
     15      C    -2.54922669    -1.49656102    -0.12782217
     16      C    -3.65696567    -1.73583049    -0.95058737
     17      H    -4.30779978     1.45514508    -1.91436167
     18      H    -2.35238932     1.87750995    -0.46199454
     19      H    -2.06257324    -2.31339256     0.36657049
     20      H    -4.01798370    -2.73575744    -1.08579664
     21      H    -5.14059697    -0.85148861    -2.22626272
     22      H     2.13175883    -0.63340533    -0.72119785
     23     Ti     0.50204268     2.58175920     0.33129216
     24     Cl     1.54062743     0.82456511    -0.28082009
     25     Cl    -0.51394717     2.20360230     2.16591276
     26     Cl    -0.91346489     3.12781922    -1.16511271
     27     Cl     1.89495534     4.17105016     0.60518869
 
Total System Charge             0.00000
 
 
----------------
ADF Engine Input
----------------
 
 NumericalQuality VeryGood
 SCF
 Converge 1.0e-6
 Iterations 99
 End
 SYMMETRY NOSYM
 SpinPolarization 1.0
 Unrestricted Yes
 XC
 GGA OLYP
 End
 basis
 core None
 type TZ2P
 End
 

 Title: *** (NO TITLE) ***

 Using automatic Hessian for delocalized coordinates.
 *** GOStep1 ***

 Energy gradients wrt nuclear displacements
 ==========================================

     Atom      Cartesian (a.u./angstrom)
                 X         Y         Z
 ----------------------------------------
     1 H     0.001147  0.002570 -0.002864
     2 C     0.022528  0.113433  0.092665
     3 C    -0.009496  0.207995 -0.008482
     4 C     1.949080 13.065829 -1.167260
     5 O   -29.390991 -7.232175  0.814189
     6 H     0.029410  0.074950  0.034734
     7 H    -0.000449  0.003492  0.001776
     8 H     0.002214  0.005974 -0.000578
     9 C    -0.013258 -0.003284 -0.012572
    10 H    -0.001828 -0.003321  0.005543
    11 C    -0.019679 -0.006518 -0.013068
    12 C    -0.012046  0.026756 -0.014059
    13 C     0.030424  0.036032 -0.002169
    14 C    -0.000643  0.000141  0.004283
    15 C     0.024242 -0.015587  0.021902
    16 C    -0.011707 -0.025049 -0.006582
    17 H     0.009789 -0.016292  0.009069
    18 H     0.016137  0.006039 -0.006027
    19 H    -0.005653  0.016443 -0.006131
    20 H     0.007166  0.019848  0.002430
    21 H     0.016560  0.004121  0.012314
    22 H    28.889623  8.109828 -0.423239
    23 Ti   -0.042573 -0.048526 -0.008355
    24 Cl   -1.458671-14.072409  0.783341
    25 Cl   -0.003090 -0.179024 -0.176059
    26 Cl    0.014138 -0.051643  0.066661
    27 Cl   -0.042373 -0.039621 -0.001461
 ----------------------------------------
 Mulliken charges used for AMS results%charges...
 
----------------------------------------------------------------------
Geometry Convergence after Step   1       (Hartree/Angstrom,Angstrom)
----------------------------------------------------------------------
current energy                                1.47359470 Hartree
energy change                       1.47359470     0.00027000    F
constrained gradient max           29.39092536     0.00100000    F
constrained gradient rms            5.20465992     0.00066667    F
gradient max                       29.39092536
gradient rms                        5.20465992
cart. step max                      0.03424169     0.01000000    F
cart. step rms                      0.00563249     0.00666667    T
 
 
--------
Geometry
--------
Formula: C10H11Cl4OTi
Atoms
  Index Symbol   x (angstrom)   y (angstrom)   z (angstrom)
      1      H     0.30865801    -1.71514162     0.34822436
      2      C    -0.85936014     0.07254036     0.95258615
      3      C     0.30549530    -0.62397638     0.35618080
      4      C     1.43880401     0.01028368    -0.22801836
      5      O     2.45415736    -0.54840055    -0.72954200
      6      H    -0.69080106     1.15369598     0.94392336
      7      H    -2.09916041     0.10681274     2.73711366
      8      H    -0.38761691    -0.20614411     3.06791473
      9      C    -1.20714467    -0.41182437     2.37247561
     10      H    -1.40927236    -1.48789085     2.39364618
     11      C    -4.29447465    -0.66919808    -1.59635806
     12      C    -3.82257606     0.63745396    -1.42021534
     13      C    -2.71447752     0.87695595    -0.59803220
     14      C    -2.07810306    -0.19012365     0.04811850
     15      C    -2.55018357    -1.49686119    -0.12810027
     16      C    -3.65825479    -1.73637150    -0.95026801
     17      H    -4.30948392     1.45424878    -1.91464309
     18      H    -2.35355156     1.87692951    -0.46331926
     19      H    -2.06336823    -2.31369648     0.36631622
     20      H    -4.01937272    -2.73643632    -1.08501124
     21      H    -5.14251727    -0.85247145    -2.22558390
     22      H     2.10412797    -0.63976464    -0.71640364
     23     Ti     0.50432835     2.58320516     0.33185147
     24     Cl     1.54177405     0.83798358    -0.28183069
     25     Cl    -0.51132570     2.20495154     2.16683311
     26     Cl    -0.91131351     3.13107659    -1.16424808
     27     Cl     1.89845634     4.17198127     0.60474061
 
Total System Charge             0.00000
 
 *** GOStep2 ***

 Energy gradients wrt nuclear displacements
 ==========================================

     Atom      Cartesian (a.u./angstrom)
                 X         Y         Z
 ----------------------------------------
     1 H     0.001781  0.002040 -0.003106
     2 C     0.025512  0.110718  0.091693
     3 C    -0.012975  0.201551 -0.007516
     4 C     1.818648 11.508364 -1.098780
     5 O   -17.242473 -4.137007  0.606133
     6 H     0.029699  0.077555  0.034803
     7 H    -0.000503  0.003581  0.001688
     8 H     0.002051  0.005972 -0.000632
     9 C    -0.013230 -0.003631 -0.012292
    10 H    -0.001916 -0.003262  0.005517
    11 C    -0.019567 -0.006573 -0.012898
    12 C    -0.012017  0.026608 -0.013854
    13 C     0.030067  0.035770 -0.002128
    14 C    -0.000975  0.000351  0.003593
    15 C     0.024158 -0.015660  0.021881
    16 C    -0.011849 -0.024764 -0.006551
    17 H     0.009637 -0.016167  0.009035
    18 H     0.015837  0.005842 -0.005992
    19 H    -0.005704  0.016396 -0.006092
    20 H     0.007044  0.019741  0.002414
    21 H     0.016375  0.004104  0.012218
    22 H    16.736100  4.991453 -0.214712
    23 Ti   -0.033882 -0.057471 -0.012875
    24 Cl   -1.329437-12.477421  0.718815
    25 Cl   -0.003622 -0.177858 -0.175135
    26 Cl    0.013938 -0.050916  0.066147
    27 Cl   -0.042697 -0.039317 -0.001369
 ----------------------------------------
 Mulliken charges used for AMS results%charges...

 dE(predicted):    -0.22751E+01, dE(actual):    -0.18341E+01, Trust radius:    0.400000, all in a.u.
 
----------------------------------------------------------------------
Geometry Convergence after Step   2       (Hartree/Angstrom,Angstrom)
----------------------------------------------------------------------
current energy                               -0.36049910 Hartree
energy change                      -1.83409380     0.00027000    F
constrained gradient max           17.24242007     0.00100000    F
constrained gradient rms            3.36086102     0.00066667    F
gradient max                       17.24242007
gradient rms                        3.36086102
cart. step max                      0.05057177     0.01000000    F
cart. step rms                      0.01147955     0.00666667    F
 
 
--------
Geometry
--------
Formula: C10H11Cl4OTi
Atoms
  Index Symbol   x (angstrom)   y (angstrom)   z (angstrom)
      1      H     0.30605869    -1.71691630     0.34638837
      2      C    -0.85841943     0.07265226     0.94984975
      3      C     0.30563403    -0.62570109     0.35352630
      4      C     1.42365994    -0.03154797    -0.22115087
      5      O     2.49925190    -0.54055744    -0.72775652
      6      H    -0.68727902     1.15773756     0.94373747
      7      H    -2.09753221     0.10617024     2.73494995
      8      H    -0.38643016    -0.20947554     3.06493996
      9      C    -1.20629793    -0.41300548     2.36934572
     10      H    -1.40970256    -1.48877866     2.38879740
     11      C    -4.29759873    -0.67305192    -1.59573672
     12      C    -3.82748412     0.63400273    -1.42067310
     13      C    -2.71867347     0.87573847    -0.60024018
     14      C    -2.07901351    -0.18918983     0.04573025
     15      C    -2.55014055    -1.49670685    -0.12974784
     16      C    -3.65878986    -1.73849895    -0.95008553
     17      H    -4.31661931     1.45022492    -1.91486624
     18      H    -2.35993584     1.87642154    -0.46670358
     19      H    -2.06150025    -2.31315781     0.36437158
     20      H    -4.01856643    -2.73969108    -1.08378958
     21      H    -5.14661631    -0.85803883    -2.22394010
     22      H     2.05519796    -0.65792557    -0.70343058
     23     Ti     0.51138926     2.58923923     0.33498124
     24     Cl     1.55185893     0.88855535    -0.28670113
     25     Cl    -0.50477337     2.21085298     2.17086102
     26     Cl    -0.90284786     3.14345869    -1.16229510
     27     Cl     1.90861348     4.17700724     0.60798871
 
Total System Charge             0.00000
 
 *** GOStep3 ***

 Energy gradients wrt nuclear displacements
 ==========================================

     Atom      Cartesian (a.u./angstrom)
                 X         Y         Z
 ----------------------------------------
     1 H     0.003749  0.001613 -0.004494
     2 C     0.033771  0.102713  0.090322
     3 C    -0.009291  0.189884 -0.010463
     4 C     1.380477  7.039009 -0.857534
     5 O    -8.180147 -1.821985  0.437829
     6 H     0.030884  0.083004  0.034328
     7 H    -0.000590  0.003592  0.001524
     8 H     0.001850  0.005791 -0.000882
     9 C    -0.013229 -0.004774 -0.011743
    10 H    -0.001974 -0.003205  0.005528
    11 C    -0.018741 -0.006790 -0.012246
    12 C    -0.011614  0.025762 -0.013198
    13 C     0.028865  0.034466 -0.002081
    14 C    -0.001847  0.001354  0.001797
    15 C     0.023815 -0.015803  0.021529
    16 C    -0.011823 -0.023734 -0.006455
    17 H     0.009321 -0.015749  0.008781
    18 H     0.014849  0.004724 -0.005787
    19 H    -0.005526  0.015976 -0.005880
    20 H     0.006807  0.019114  0.002313
    21 H     0.015889  0.003922  0.011795
    22 H     7.690264  2.620511 -0.053993
    23 Ti   -0.004112 -0.090971 -0.028746
    24 Cl   -0.948102 -7.907346  0.507323
    25 Cl   -0.004151 -0.173908 -0.172828
    26 Cl    0.013927 -0.048498  0.064370
    27 Cl   -0.043318 -0.038672 -0.001112
 ----------------------------------------
 Mulliken charges used for AMS results%charges...

 dE(predicted):    -0.23948E+01, dE(actual):    -0.21403E+01, Trust radius:    0.800000, all in a.u.
 
----------------------------------------------------------------------
Geometry Convergence after Step   3       (Hartree/Angstrom,Angstrom)
----------------------------------------------------------------------
current energy                               -2.50078082 Hartree
energy change                      -2.14028172     0.00027000    F
constrained gradient max            8.18012095     0.00100000    F
constrained gradient rms            1.76544236     0.00066667    F
gradient max                        8.18012095
gradient rms                        1.76544236
cart. step max                      0.12788508     0.01000000    F
cart. step rms                      0.03612195     0.00666667    F
 
 
--------
Geometry
--------
Formula: C10H11Cl4OTi
Atoms
  Index Symbol   x (angstrom)   y (angstrom)   z (angstrom)
      1      H     0.28034893    -1.70721765     0.33076324
      2      C    -0.86039537     0.08625598     0.94034334
      3      C     0.30285467    -0.61608231     0.34473769
      4      C     1.38472701    -0.11814764    -0.19294109
      5      O     2.51635276    -0.60364676    -0.73480318
      6      H    -0.67397218     1.19495582     0.95130616
      7      H    -2.10390225     0.09926147     2.72338150
      8      H    -0.39643684    -0.22998566     3.05488019
      9      C    -1.21398430    -0.41739246     2.35250695
     10      H    -1.42161667    -1.49187208     2.35173730
     11      C    -4.31846633    -0.70787651    -1.59117451
     12      C    -3.87213294     0.60512684    -1.41989756
     13      C    -2.76209274     0.87045618    -0.60934548
     14      C    -2.09041242    -0.17383730     0.03481799
     15      C    -2.54480366    -1.48984097    -0.13937641
     16      C    -3.65345062    -1.75619537    -0.94916231
     17      H    -4.38309133     1.41423989    -1.91143614
     18      H    -2.42894440     1.87925242    -0.48137808
     19      H    -2.03780454    -2.30085584     0.35182467
     20      H    -3.99459707    -2.76835149    -1.07773008
     21      H    -5.17163210    -0.91118145    -2.21410503
     22      H     2.03531704    -0.72222805    -0.69004411
     23     Ti     0.56290115     2.63043194     0.36206699
     24     Cl     1.62871415     1.01644043    -0.29686556
     25     Cl    -0.47612534     2.27238583     2.20031648
     26     Cl    -0.82163417     3.23270541    -1.16074881
     27     Cl     1.98772285     4.20301724     0.65867650
 
Total System Charge             0.00000
 
 *** GOStep4 ***

 Energy gradients wrt nuclear displacements
 ==========================================

     Atom      Cartesian (a.u./angstrom)
                 X         Y         Z
 ----------------------------------------
     1 H     0.008667  0.005075 -0.008190
     2 C     0.049757  0.055917  0.084373
     3 C     0.043852  0.197078 -0.031628
     4 C     0.659768  1.744680 -0.455655
     5 O    -6.145693 -1.326704  0.518749
     6 H     0.032722  0.097507  0.023848
     7 H    -0.001591  0.001799  0.002804
     8 H     0.001599  0.004054 -0.000962
     9 C    -0.017839 -0.004568 -0.010552
    10 H    -0.001280 -0.002322  0.004227
    11 C    -0.013240 -0.006047 -0.008407
    12 C    -0.009254  0.019006 -0.010509
    13 C     0.018749  0.024212 -0.001913
    14 C    -0.005698  0.011445 -0.000020
    15 C     0.018817 -0.013223  0.018088
    16 C    -0.009587 -0.016327 -0.005728
    17 H     0.006838 -0.012253  0.006257
    18 H     0.006814 -0.004004 -0.003453
    19 H    -0.003752  0.013010 -0.004019
    20 H     0.004772  0.014747  0.001485
    21 H     0.012044  0.003139  0.008890
    22 H     5.808599  1.978440 -0.203544
    23 Ti    0.050419 -0.173470 -0.044805
    24 Cl   -0.493934 -2.407990  0.232475
    25 Cl    0.002654 -0.139654 -0.159351
    26 Cl    0.019289 -0.031145  0.052743
    27 Cl   -0.043492 -0.032402 -0.005203
 ----------------------------------------
 Mulliken charges used for AMS results%charges...

 dE(predicted):    -0.14282E+01, dE(actual):    -0.13805E+01, Trust radius:    1.000000, all in a.u.
 
----------------------------------------------------------------------
Geometry Convergence after Step   4       (Hartree/Angstrom,Angstrom)
----------------------------------------------------------------------
current energy                               -3.88132262 Hartree
energy change                      -1.38054180     0.00027000    F
constrained gradient max            6.14569156     0.00100000    F
constrained gradient rms            1.03896106     0.00066667    F
gradient max                        6.14569156
gradient rms                        1.03896106
cart. step max                      0.21153122     0.01000000    F
cart. step rms                      0.04668371     0.00666667    F
 
 
--------
Geometry
--------
Formula: C10H11Cl4OTi
Atoms
  Index Symbol   x (angstrom)   y (angstrom)   z (angstrom)
      1      H     0.25282000    -1.70262052     0.32805438
      2      C    -0.87708870     0.09598266     0.93408561
      3      C     0.29216531    -0.60998133     0.34467971
      4      C     1.36928222    -0.10006158    -0.16646810
      5      O     2.72788398    -0.64873989    -0.77830349
      6      H    -0.67063057     1.24532088     0.96814970
      7      H    -2.11655489     0.08392784     2.71676285
      8      H    -0.41218529    -0.25498625     3.04676612
      9      C    -1.22800087    -0.42748299     2.33931227
     10      H    -1.43587943    -1.50056932     2.31617959
     11      C    -4.35444110    -0.74579640    -1.59027567
     12      C    -3.93108569     0.57022597    -1.41690395
     13      C    -2.82149746     0.85680691    -0.61513604
     14      C    -2.11785319    -0.16673754     0.02493415
     15      C    -2.55853340    -1.49066476    -0.15548652
     16      C    -3.66473229    -1.77824969    -0.95567969
     17      H    -4.46380276     1.37655037    -1.90405601
     18      H    -2.51517561     1.87549981    -0.49052333
     19      H    -2.03502906    -2.30231458     0.32974579
     20      H    -3.98755687    -2.80344402    -1.08321358
     21      H    -5.21324595    -0.96529485    -2.21108475
     22      H     1.97120096    -0.82445619    -0.66479919
     23     Ti     0.62327768     2.69345243     0.39306152
     24     Cl     1.72979723     1.04403980    -0.31388036
     25     Cl    -0.44167000     2.38286804     2.25375814
     26     Cl    -0.74346637     3.33597581    -1.16340249
     27     Cl     2.09544538     4.25056726     0.70207399
 
Total System Charge             0.00000
 
 *** GOStep5 ***

 Energy gradients wrt nuclear displacements
 ==========================================

     Atom      Cartesian (a.u./angstrom)
                 X         Y         Z
 ----------------------------------------
     1 H     0.004723 -0.000149 -0.006755
     2 C     0.048078  0.007098  0.060695
     3 C     0.050533  0.158458 -0.030372
     4 C     0.622394  1.373617 -0.359167
     5 O    -0.746430 -0.038154  0.096863
     6 H     0.037421  0.118116  0.018386
     7 H    -0.000054  0.000141  0.002274
     8 H     0.000628  0.002064  0.000082
     9 C    -0.017045 -0.003418 -0.007731
    10 H    -0.000039 -0.001499  0.000762
    11 C    -0.003628 -0.003087 -0.001961
    12 C    -0.004344  0.007077 -0.005801
    13 C     0.008784  0.013984 -0.002709
    14 C    -0.009259  0.014022  0.001131
    15 C     0.006738 -0.008667  0.008866
    16 C    -0.005226 -0.005219 -0.004244
    17 H     0.002569 -0.006076  0.002202
    18 H     0.001107 -0.008959 -0.001764
    19 H    -0.000872  0.007339 -0.000982
    20 H     0.001405  0.006744  0.000301
    21 H     0.005175  0.001470  0.004070
    22 H     0.560868  0.480311  0.090948
    23 Ti    0.056819 -0.125872 -0.018407
    24 Cl   -0.588212 -1.840967  0.246982
    25 Cl   -0.005809 -0.102514 -0.124489
    26 Cl    0.009784 -0.020107  0.036439
    27 Cl   -0.036107 -0.025751 -0.005619
 ----------------------------------------
 Mulliken charges used for AMS results%charges...

 dE(predicted):    -0.12481E+01, dE(actual):    -0.93298E+00, Trust radius:    1.000000, all in a.u.
 
----------------------------------------------------------------------
Geometry Convergence after Step   5       (Hartree/Angstrom,Angstrom)
----------------------------------------------------------------------
current energy                               -4.81430319 Hartree
energy change                      -0.93298058     0.00027000    F
constrained gradient max            1.84097098     0.00100000    F
constrained gradient rms            0.30270750     0.00066667    F
gradient max                        1.84097098
gradient rms                        0.30270750
cart. step max                      0.21014666     0.01000000    F
cart. step rms                      0.07682433     0.00666667    F
 
 
--------
Geometry
--------
Formula: C10H11Cl4OTi
Atoms
  Index Symbol   x (angstrom)   y (angstrom)   z (angstrom)
      1      H     0.22035107    -1.69560646     0.39834331
      2      C    -0.91169780     0.11851295     0.89670814
      3      C     0.28202922    -0.60376083     0.36993144
      4      C     1.36778172    -0.11848622    -0.08870164
      5      O     2.78603198    -0.78269902    -0.65399349
      6      H    -0.68370261     1.27448228     0.96861871
      7      H    -2.09239067     0.12340591     2.70927367
      8      H    -0.37667616    -0.19977977     3.00108417
      9      C    -1.21013909    -0.38825995     2.31935026
     10      H    -1.41106925    -1.46219960     2.31761453
     11      C    -4.41474005    -0.77011332    -1.58323319
     12      C    -4.05894609     0.55086071    -1.32283440
     13      C    -2.92699554     0.84407842    -0.55770093
     14      C    -2.13856799    -0.17751283    -0.02194971
     15      C    -2.51777132    -1.50821568    -0.28297141
     16      C    -3.63843795    -1.80256235    -1.05691390
     17      H    -4.66084480     1.36321491    -1.71813455
     18      H    -2.68155255     1.87442426    -0.36389919
     19      H    -1.93608530    -2.32966716     0.11959913
     20      H    -3.90668664    -2.83731454    -1.24711812
     21      H    -5.28913930    -0.99450227    -2.18605156
     22      H     1.97860032    -0.94373595    -0.58215847
     23     Ti     0.65872579     2.73611886     0.38392136
     24     Cl     1.88929920     1.05994356    -0.30911989
     25     Cl    -0.44929378     2.52607958     2.25855672
     26     Cl    -0.59451620     3.36973506    -1.29436139
     27     Cl     2.18987708     4.26337737     0.71449107
 
Total System Charge             0.00000
 
 *** GOStep6 ***

 Energy gradients wrt nuclear displacements
 ==========================================

     Atom      Cartesian (a.u./angstrom)
                 X         Y         Z
 ----------------------------------------
     1 H    -0.000324 -0.002582 -0.003439
     2 C     0.032001 -0.007098  0.040094
     3 C     0.080926  0.128990 -0.037945
     4 C     0.377234  0.663598 -0.235481
     5 O    -0.496850  0.000020  0.020853
     6 H     0.039513  0.112115  0.020254
     7 H     0.000999  0.000414 -0.000902
     8 H     0.000262  0.000527  0.001033
     9 C    -0.003660 -0.004516 -0.005869
    10 H     0.001013  0.000291  0.001217
    11 C    -0.000726 -0.001290 -0.000972
    12 C    -0.002378  0.001784  0.000052
    13 C     0.005129  0.005277 -0.004000
    14 C    -0.010028  0.005302 -0.008117
    15 C    -0.000652 -0.006406  0.002154
    16 C    -0.001985 -0.002271 -0.001049
    17 H     0.000812 -0.002344  0.000823
    18 H    -0.001032 -0.006781 -0.001019
    19 H    -0.000262  0.003506 -0.000614
    20 H     0.000035  0.002429  0.000089
    21 H     0.001955  0.000461  0.001115
    22 H     0.394696  0.344688  0.099147
    23 Ti    0.036743 -0.094649 -0.000037
    24 Cl   -0.431784 -1.044458  0.183532
    25 Cl   -0.003828 -0.075663 -0.088334
    26 Cl    0.006787 -0.006872  0.021439
    27 Cl   -0.024598 -0.014471 -0.004025
 ----------------------------------------
 Mulliken charges used for AMS results%charges...

 dE(predicted):    -0.19171E+00, dE(actual):    -0.23619E+00, Trust radius:    1.000000, all in a.u.
 
----------------------------------------------------------------------
Geometry Convergence after Step   6       (Hartree/Angstrom,Angstrom)
----------------------------------------------------------------------
current energy                               -5.05049637 Hartree
energy change                      -0.23619317     0.00027000    F
constrained gradient max            1.04446299     0.00100000    F
constrained gradient rms            0.17737603     0.00066667    F
gradient max                        1.04446299
gradient rms                        0.17737603
cart. step max                      0.15891549     0.01000000    F
cart. step rms                      0.07026835     0.00666667    F
 
 
--------
Geometry
--------
Formula: C10H11Cl4OTi
Atoms
  Index Symbol   x (angstrom)   y (angstrom)   z (angstrom)
      1      H     0.29577472    -1.73088258     0.49092853
      2      C    -0.93163735     0.04848203     0.90999156
      3      C     0.31419840    -0.64239308     0.41157304
      4      C     1.37165110    -0.09912731    -0.05406072
      5      O     2.92781797    -0.81958441    -0.59413741
      6      H    -0.75317240     1.20160161     0.97346307
      7      H    -2.09540750     0.06971326     2.74257960
      8      H    -0.36639360    -0.19779821     3.01514508
      9      C    -1.20340062    -0.42640811     2.35203736
     10      H    -1.37792337    -1.50536052     2.37606987
     11      C    -4.41623781    -0.68885686    -1.59468065
     12      C    -4.02145599     0.60945046    -1.28027049
     13      C    -2.89216169     0.83212227    -0.49055657
     14      C    -2.14167896    -0.24181890     0.00023640
     15      C    -2.55015929    -1.54705013    -0.31650216
     16      C    -3.67430759    -1.76808174    -1.10767286
     17      H    -4.58945584     1.46102736    -1.65020568
     18      H    -2.60295255     1.85439003    -0.26052645
     19      H    -1.99994581    -2.41006820     0.05152533
     20      H    -3.97189323    -2.78806861    -1.34381311
     21      H    -5.29402124    -0.86133010    -2.21414044
     22      H     2.05415000    -1.05816795    -0.55353956
     23     Ti     0.54565041     2.77662870     0.32059027
     24     Cl     2.04821469     1.14897052    -0.41873969
     25     Cl    -0.53085522     2.64571779     2.26128701
     26     Cl    -0.72196952     3.23954835    -1.43644022
     27     Cl     2.05101558     4.38716222     0.59820953
 
Total System Charge             0.00000
 
 *** GOStep7 ***

 Energy gradients wrt nuclear displacements
 ==========================================

     Atom      Cartesian (a.u./angstrom)
                 X         Y         Z
 ----------------------------------------
     1 H    -0.004709 -0.000710 -0.000870
     2 C     0.018852 -0.014413  0.017347
     3 C     0.071401  0.063188 -0.034600
     4 C     0.060561  0.165517 -0.087567
     5 O    -0.165676  0.014851 -0.023177
     6 H     0.023670  0.094605  0.013397
     7 H    -0.000127  0.000216  0.000404
     8 H    -0.000748  0.000375 -0.000053
     9 C    -0.000211 -0.001981 -0.001560
    10 H     0.000509  0.000476  0.000272
    11 C     0.000018  0.001873  0.000358
    12 C     0.000816 -0.001512 -0.000034
    13 C     0.006405  0.000773 -0.001180
    14 C    -0.008740 -0.007165 -0.005972
    15 C    -0.003050 -0.001363 -0.000823
    16 C     0.002956 -0.000052  0.002024
    17 H    -0.000115  0.001150 -0.000089
    18 H     0.004649  0.008484 -0.000190
    19 H    -0.000423 -0.000992 -0.000077
    20 H     0.000003 -0.001140 -0.000067
    21 H    -0.000823  0.000141 -0.000622
    22 H     0.135625  0.198728  0.072097
    23 Ti    0.010274 -0.056994  0.009878
    24 Cl   -0.129406 -0.404911  0.079691
    25 Cl   -0.007210 -0.051713 -0.045330
    26 Cl   -0.006426 -0.005085  0.006586
    27 Cl   -0.008073 -0.002344  0.000158
 ----------------------------------------
 Mulliken charges used for AMS results%charges...
 Rebuilding optimization coordinates

 dE(predicted):    -0.17011E+00, dE(actual):    -0.19626E+00, Trust radius:    1.000000, all in a.u.
 
----------------------------------------------------------------------
Geometry Convergence after Step   7       (Hartree/Angstrom,Angstrom)
----------------------------------------------------------------------
current energy                               -5.24675654 Hartree
energy change                      -0.19626018     0.00027000    F
constrained gradient max            0.40493100     0.00100000    F
constrained gradient rms            0.06542320     0.00066667    F
gradient max                        0.40493100
gradient rms                        0.06542320
cart. step max                      0.20928249     0.01000000    F
cart. step rms                      0.06919640     0.00666667    F
 
 
--------
Geometry
--------
Formula: C10H11Cl4OTi
Atoms
  Index Symbol   x (angstrom)   y (angstrom)   z (angstrom)
      1      H     0.25801144    -1.71727412     0.47674265
      2      C    -0.95237251     0.08552727     0.86336354
      3      C     0.29795605    -0.63033815     0.39257086
      4      C     1.39249440    -0.10256849    -0.03440713
      5      O     2.97176507    -0.90012729    -0.50219264
      6      H    -0.74689165     1.22896855     0.93568140
      7      H    -2.11602754     0.12893057     2.69670680
      8      H    -0.38955330    -0.15878238     2.96932904
      9      C    -1.23013926    -0.37961717     2.30812571
     10      H    -1.41891910    -1.45640057     2.33573078
     11      C    -4.46711311    -0.74672778    -1.56644580
     12      C    -4.14694413     0.55966323    -1.20534237
     13      C    -3.00371803     0.82265672    -0.44855330
     14      C    -2.16189848    -0.21659670    -0.03555620
     15      C    -2.50804598    -1.53091108    -0.38347617
     16      C    -3.64255908    -1.79306959    -1.14759805
     17      H    -4.78699297     1.38596730    -1.50953438
     18      H    -2.79040417     1.84754412    -0.16009504
     19      H    -1.89421628    -2.37183421    -0.06727127
     20      H    -3.88447602    -2.82058983    -1.41325625
     21      H    -5.35520610    -0.95162967    -2.16101606
     22      H     2.07637633    -1.12723876    -0.53374088
     23     Ti     0.63456886     2.80151198     0.33487074
     24     Cl     2.16735318     1.14019241    -0.39059730
     25     Cl    -0.51420513     2.71942394     2.24505671
     26     Cl    -0.51268703     3.31919542    -1.49526020
     27     Cl     2.19728783     4.35394215     0.68451548
 
Total System Charge             0.00000
 
 *** GOStep8 ***

 Energy gradients wrt nuclear displacements
 ==========================================

     Atom      Cartesian (a.u./angstrom)
                 X         Y         Z
 ----------------------------------------
     1 H    -0.006369 -0.000707 -0.000181
     2 C     0.008467 -0.013830  0.011806
     3 C     0.052138  0.036270 -0.021919
     4 C     0.024913  0.113919 -0.063329
     5 O    -0.099032  0.019693 -0.038568
     6 H     0.026803  0.086689  0.015964
     7 H    -0.000164  0.000124  0.000227
     8 H    -0.000521  0.000213 -0.000267
     9 C     0.000836 -0.000882 -0.003414
    10 H     0.000457  0.000052  0.000094
    11 C     0.000616  0.002077  0.000034
    12 C     0.000156 -0.002058 -0.000055
    13 C     0.003438 -0.000483 -0.001895
    14 C    -0.004908 -0.006017 -0.006664
    15 C    -0.003294  0.000433  0.002887
    16 C     0.002441  0.000853  0.001431
    17 H    -0.000722  0.001188 -0.000013
    18 H    -0.000809  0.002422  0.001894
    19 H     0.000710 -0.001382  0.000465
    20 H    -0.000018 -0.001219 -0.000229
    21 H    -0.001141 -0.000088 -0.000505
    22 H     0.095637  0.161869  0.076403
    23 Ti    0.002097 -0.052772  0.012633
    24 Cl   -0.087226 -0.304543  0.048721
    25 Cl   -0.007085 -0.043729 -0.035458
    26 Cl   -0.002440  0.001330 -0.000367
    27 Cl   -0.004983  0.000577  0.000305
 ----------------------------------------
 Mulliken charges used for AMS results%charges...

 dE(predicted):    -0.55917E-01, dE(actual):    -0.33348E-01, Trust radius:    1.000000, all in a.u.
 
----------------------------------------------------------------------
Geometry Convergence after Step   8       (Hartree/Angstrom,Angstrom)
----------------------------------------------------------------------
current energy                               -5.28010421 Hartree
energy change                      -0.03334767     0.00027000    F
constrained gradient max            0.30453296     0.00100000    F
constrained gradient rms            0.04881836     0.00066667    F
gradient max                        0.30453296
gradient rms                        0.04881836
cart. step max                      0.21167089     0.01000000    F
cart. step rms                      0.07761162     0.00666667    F
 
 
--------
Geometry
--------
Formula: C10H11Cl4OTi
Atoms
  Index Symbol   x (angstrom)   y (angstrom)   z (angstrom)
      1      H     0.24882559    -1.71669428     0.52411833
      2      C    -0.98303444     0.09753127     0.84745540
      3      C     0.28075235    -0.63401970     0.40532754
      4      C     1.40418003    -0.10469686    -0.00593572
      5      O     3.01785359    -1.00782908    -0.36024292
      6      H    -0.75913629     1.22306123     0.91459523
      7      H    -2.13742791     0.18651801     2.68772221
      8      H    -0.41326485    -0.12443034     2.95601523
      9      C    -1.26132806    -0.34155775     2.30304492
     10      H    -1.46906612    -1.41473719     2.34632961
     11      C    -4.50391597    -0.77297811    -1.54873217
     12      C    -4.26372418     0.51962165    -1.08896699
     13      C    -3.11585591     0.80210733    -0.34685425
     14      C    -2.18698101    -0.20157524    -0.04346896
     15      C    -2.44965380    -1.50130957    -0.49882435
     16      C    -3.59126194    -1.78422577    -1.24640870
     17      H    -4.96762015     1.32033708    -1.30913945
     18      H    -2.96223290     1.81462166     0.01335663
     19      H    -1.76483963    -2.31809133    -0.27894216
     20      H    -3.76701286    -2.80123926    -1.59253435
     21      H    -5.39285296    -0.99322979    -2.13658185
     22      H     2.10626590    -1.24521234    -0.51548199
     23     Ti     0.67944073     2.83235176     0.30079540
     24     Cl     2.29888593     1.14254375    -0.40346138
     25     Cl    -0.49777547     2.85547429     2.21028673
     26     Cl    -0.37986100     3.31649080    -1.60124349
     27     Cl     2.30408460     4.34098568     0.65612217
 
Total System Charge             0.00000
 
 *** GOStep9 ***

 Energy gradients wrt nuclear displacements
 ==========================================

     Atom      Cartesian (a.u./angstrom)
                 X         Y         Z
 ----------------------------------------
     1 H    -0.008159  0.000086  0.000103
     2 C    -0.005345 -0.012127  0.004051
     3 C     0.018048 -0.004143 -0.008027
     4 C    -0.038858  0.058589 -0.037482
     5 O     0.008162  0.015245 -0.045891
     6 H     0.024766  0.069028  0.014597
     7 H    -0.000223 -0.000203  0.000273
     8 H    -0.000386 -0.000208 -0.000203
     9 C     0.002327  0.001021 -0.002421
    10 H     0.000266 -0.000001 -0.000063
    11 C     0.000709  0.001867  0.000839
    12 C    -0.000639 -0.002373  0.000085
    13 C     0.001168 -0.001343 -0.002126
    14 C    -0.000731 -0.002166 -0.001312
    15 C    -0.001341  0.002677  0.002586
    16 C     0.001249  0.001394  0.001126
    17 H    -0.000910  0.001160 -0.000220
    18 H    -0.001546 -0.000144  0.000917
    19 H     0.001602 -0.001767  0.000580
    20 H    -0.000152 -0.001281 -0.000261
    21 H    -0.000889 -0.000252 -0.000954
    22 H     0.026020  0.112731  0.067870
    23 Ti   -0.008295 -0.046332  0.013607
    24 Cl   -0.007787 -0.168889  0.016748
    25 Cl   -0.007564 -0.030685 -0.018411
    26 Cl   -0.002134  0.004035 -0.007205
    27 Cl    0.000642  0.004083  0.001193
 ----------------------------------------
 Mulliken charges used for AMS results%charges...

 dE(predicted):    -0.28011E-01, dE(actual):    -0.41123E-01, Trust radius:    1.000000, all in a.u.
 
----------------------------------------------------------------------
Geometry Convergence after Step   9       (Hartree/Angstrom,Angstrom)
----------------------------------------------------------------------
current energy                               -5.32122748 Hartree
energy change                      -0.04112328     0.00027000    F
constrained gradient max            0.16888872     0.00100000    F
constrained gradient rms            0.02849498     0.00066667    F
gradient max                        0.16888872
gradient rms                        0.02849498
cart. step max                      0.21323191     0.01000000    F
cart. step rms                      0.07266590     0.00666667    F
 
 
--------
Geometry
--------
Formula: C10H11Cl4OTi
Atoms
  Index Symbol   x (angstrom)   y (angstrom)   z (angstrom)
      1      H     0.32177801    -1.73133790     0.64369697
      2      C    -0.99545185     0.05512304     0.88692617
      3      C     0.29138052    -0.65713664     0.46883380
      4      C     1.40882906    -0.10337659     0.02929487
      5      O     3.02230461    -1.08241613    -0.21834079
      6      H    -0.78100643     1.16346444     0.92822027
      7      H    -2.16288670     0.18287803     2.71810477
      8      H    -0.44237894    -0.13375888     3.00592273
      9      C    -1.28744629    -0.35846103     2.35116285
     10      H    -1.50443245    -1.42931415     2.41119932
     11      C    -4.49310586    -0.72349342    -1.56418876
     12      C    -4.28201315     0.53198388    -0.99696771
     13      C    -3.14322052     0.77636121    -0.22971408
     14      C    -2.18858641    -0.22596176    -0.01234199
     15      C    -2.40896262    -1.48150663    -0.59845748
     16      C    -3.54821088    -1.72915187    -1.36345956
     17      H    -5.00331309     1.33195134    -1.15123980
     18      H    -2.99619772     1.76694853     0.19140634
     19      H    -1.69598162    -2.29178551    -0.46735031
     20      H    -3.69378963    -2.71270096    -1.80576626
     21      H    -5.38075794    -0.91610780    -2.16288790
     22      H     2.14163594    -1.34951801    -0.52623213
     23     Ti     0.62917998     2.86088161     0.20739971
     24     Cl     2.35021275     1.17124308    -0.44934202
     25     Cl    -0.51142148     3.00454959     2.14199026
     26     Cl    -0.45538213     3.19665476    -1.71623327
     27     Cl     2.28266810     4.37380566     0.46671467
 
Total System Charge             0.00000
 
 *** GOStep10 ***

 Energy gradients wrt nuclear displacements
 ==========================================

     Atom      Cartesian (a.u./angstrom)
                 X         Y         Z
 ----------------------------------------
     1 H    -0.006997  0.001020 -0.000288
     2 C    -0.010793 -0.005990  0.000120
     3 C    -0.000482 -0.027925  0.000541
     4 C    -0.092140  0.042703 -0.025123
     5 O     0.081933 -0.004833 -0.039393
     6 H     0.017398  0.047592  0.007788
     7 H    -0.000312 -0.000308  0.000277
     8 H    -0.000494 -0.000343 -0.000106
     9 C     0.001871  0.001113  0.001029
    10 H    -0.000212  0.000050 -0.000053
    11 C     0.000481  0.000601  0.000902
    12 C     0.000768 -0.001066 -0.001144
    13 C     0.000140 -0.001980  0.000702
    14 C     0.002092  0.001371  0.006230
    15 C    -0.000848  0.001494 -0.001114
    16 C     0.000443  0.000372  0.000479
    17 H    -0.000486  0.000748  0.000083
    18 H     0.000598  0.001118 -0.001030
    19 H    -0.000266 -0.001114 -0.000603
    20 H    -0.000176 -0.000823 -0.000346
    21 H    -0.000654 -0.000385 -0.000390
    22 H    -0.017065  0.083869  0.054447
    23 Ti   -0.011452 -0.043190  0.011250
    24 Cl    0.042466 -0.083535 -0.000408
    25 Cl   -0.006512 -0.018995 -0.006014
    26 Cl   -0.003254  0.003455 -0.009409
    27 Cl    0.003952  0.004980  0.001572
 ----------------------------------------
 Mulliken charges used for AMS results%charges...

 dE(predicted):    -0.25090E-01, dE(actual):    -0.29708E-01, Trust radius:    1.000000, all in a.u.
 
----------------------------------------------------------------------
Geometry Convergence after Step  10       (Hartree/Angstrom,Angstrom)
----------------------------------------------------------------------
current energy                               -5.35093584 Hartree
energy change                      -0.02970835     0.00027000    F
constrained gradient max            0.09213927     0.00100000    F
constrained gradient rms            0.02349245     0.00066667    F
gradient max                        0.09213927
gradient rms                        0.02349245
cart. step max                      0.20742972     0.01000000    F
cart. step rms                      0.07121704     0.00666667    F
 
 
--------
Geometry
--------
Formula: C10H11Cl4OTi
Atoms
  Index Symbol   x (angstrom)   y (angstrom)   z (angstrom)
      1      H     0.38480603    -1.72440315     0.73778613
      2      C    -1.01073277     0.03774471     0.91278982
      3      C     0.28863218    -0.66064265     0.52502684
      4      C     1.41041110    -0.10093673     0.06190282
      5      O     2.91038695    -1.21256841    -0.07566224
      6      H    -0.78713544     1.11934526     0.93996643
      7      H    -2.19918808     0.19095625     2.72744567
      8      H    -0.48406474    -0.13576622     3.04001701
      9      C    -1.32443794    -0.36284413     2.37887430
     10      H    -1.55117079    -1.43163266     2.44553397
     11      C    -4.47713031    -0.71421847    -1.58000264
     12      C    -4.32387823     0.50021379    -0.91123565
     13      C    -3.18913797     0.73907254    -0.13854575
     14      C    -2.18583994    -0.23207719    -0.00613388
     15      C    -2.35554582    -1.45007476    -0.67958069
     16      C    -3.48693428    -1.68786567    -1.46104243
     17      H    -5.08470491     1.27234345    -0.99677181
     18      H    -3.09113084     1.69150439     0.37503546
     19      H    -1.60416634    -2.23187913    -0.61147802
     20      H    -3.58992294    -2.63848315    -1.97899102
     21      H    -5.35866817    -0.89965076    -2.18870190
     22      H     2.13921231    -1.48534452    -0.63102983
     23     Ti     0.63200816     2.93679881     0.14502197
     24     Cl     2.40451993     1.20870456    -0.48660982
     25     Cl    -0.48293198     3.21197931     2.08325013
     26     Cl    -0.47258150     3.16471437    -1.78053287
     27     Cl     2.36276962     4.38482803     0.34201866
 
Total System Charge             0.00000
 
 *** GOStep11 ***

 Energy gradients wrt nuclear displacements
 ==========================================

     Atom      Cartesian (a.u./angstrom)
                 X         Y         Z
 ----------------------------------------
     1 H    -0.004005 -0.000441 -0.000738
     2 C    -0.016267  0.008425 -0.003975
     3 C    -0.015778 -0.047992  0.011688
     4 C    -0.133057  0.065456 -0.017167
     5 O     0.147224 -0.039403 -0.002088
     6 H     0.013009  0.017192  0.003700
     7 H    -0.000042  0.000026 -0.000656
     8 H     0.000061 -0.000047  0.000095
     9 C     0.002430  0.000035  0.003108
    10 H    -0.000561 -0.000387 -0.000245
    11 C     0.000419 -0.000055 -0.000387
    12 C    -0.000349 -0.000267  0.001205
    13 C    -0.000065  0.000450 -0.002114
    14 C     0.007255  0.003105  0.005161
    15 C    -0.000758 -0.000569  0.000914
    16 C    -0.000377 -0.000084 -0.000144
    17 H     0.000204  0.000079  0.000067
    18 H    -0.000276 -0.000117  0.000400
    19 H    -0.000709 -0.000172 -0.000686
    20 H     0.000100  0.000105 -0.000051
    21 H     0.000024 -0.000130  0.000052
    22 H    -0.054394  0.051137  0.019134
    23 Ti   -0.013231 -0.042127  0.005107
    24 Cl    0.069801 -0.014649 -0.018837
    25 Cl   -0.004439 -0.007053  0.002835
    26 Cl   -0.002531  0.002994 -0.008440
    27 Cl    0.006313  0.004490  0.002064
 ----------------------------------------
 Mulliken charges used for AMS results%charges...

 dE(predicted):    -0.25486E-01, dE(actual):    -0.33494E-01, Trust radius:    1.000000, all in a.u.
 
----------------------------------------------------------------------
Geometry Convergence after Step  11       (Hartree/Angstrom,Angstrom)
----------------------------------------------------------------------
current energy                               -5.38442999 Hartree
energy change                      -0.03349415     0.00027000    F
constrained gradient max            0.14722927     0.00100000    F
constrained gradient rms            0.02783363     0.00066667    F
gradient max                        0.14722927
gradient rms                        0.02783363
cart. step max                      0.21112762     0.01000000    F
cart. step rms                      0.05285203     0.00666667    F
 
 
--------
Geometry
--------
Formula: C10H11Cl4OTi
Atoms
  Index Symbol   x (angstrom)   y (angstrom)   z (angstrom)
      1      H     0.44515116    -1.71645044     0.78796146
      2      C    -1.01522349     0.01377331     0.95163387
      3      C     0.28648409    -0.66122612     0.57048888
      4      C     1.41385777    -0.10999928     0.08160069
      5      O     2.69925933    -1.32005489    -0.02681350
      6      H    -0.79104452     1.07866361     0.96765110
      7      H    -2.22194321     0.16798905     2.75697274
      8      H    -0.50837517    -0.15308063     3.08282482
      9      C    -1.34387049    -0.38523342     2.41644613
     10      H    -1.56741655    -1.45446696     2.48399691
     11      C    -4.44355127    -0.71064722    -1.60122387
     12      C    -4.30926452     0.48875101    -0.89984716
     13      C    -3.19336359     0.71158240    -0.09682709
     14      C    -2.18231699    -0.25427185     0.01950390
     15      C    -2.32390902    -1.44909521    -0.69844135
     16      C    -3.44519606    -1.67709360    -1.49876005
     17      H    -5.07331458     1.25732755    -0.98087771
     18      H    -3.09962700     1.65613703     0.43189369
     19      H    -1.56032863    -2.21918228    -0.64344329
     20      H    -3.53164413    -2.61215157    -2.04605030
     21      H    -5.31344612    -0.88481055    -2.22872142
     22      H     2.10772642    -1.59989237    -0.79893542
     23     Ti     0.62496645     3.03931181     0.12469506
     24     Cl     2.39169821     1.26407004    -0.51912814
     25     Cl    -0.46408928     3.41611414     2.05528606
     26     Cl    -0.52861436     3.18728231    -1.77047755
     27     Cl     2.42083883     4.41647201     0.26694217
 
Total System Charge             0.00000
 
 *** GOStep12 ***

 Energy gradients wrt nuclear displacements
 ==========================================

     Atom      Cartesian (a.u./angstrom)
                 X         Y         Z
 ----------------------------------------
     1 H     0.002140 -0.001668 -0.001029
     2 C    -0.014852  0.019515 -0.007379
     3 C    -0.021232 -0.059139  0.017801
     4 C    -0.137009  0.110106 -0.007070
     5 O     0.156348 -0.072146  0.052765
     6 H     0.010931 -0.005594  0.000949
     7 H     0.000336  0.000235 -0.000970
     8 H     0.000312  0.000263  0.000017
     9 C     0.001813 -0.001758  0.004305
    10 H    -0.000632 -0.000274 -0.000283
    11 C    -0.000354 -0.001623 -0.000365
    12 C     0.000784  0.001838  0.000229
    13 C    -0.002189  0.000483  0.000829
    14 C     0.006014  0.000492  0.005576
    15 C     0.000981 -0.000366 -0.000943
    16 C    -0.001476 -0.000588 -0.000834
    17 H     0.000706 -0.000546  0.000048
    18 H     0.000893  0.000264 -0.000824
    19 H    -0.000882  0.000812 -0.000386
    20 H     0.000099  0.000740  0.000371
    21 H     0.000641  0.000133  0.000369
    22 H    -0.066256  0.018291 -0.034713
    23 Ti   -0.014108 -0.040048 -0.000458
    24 Cl    0.073274  0.025324 -0.031383
    25 Cl   -0.002087  0.000203  0.005156
    26 Cl   -0.000858  0.002087 -0.004132
    27 Cl    0.006661  0.002963  0.002354
 ----------------------------------------
 Mulliken charges used for AMS results%charges...
 Rebuilding optimization coordinates

 dE(predicted):    -0.27651E-01, dE(actual):    -0.33057E-01, Trust radius:    1.000000, all in a.u.
 
----------------------------------------------------------------------
Geometry Convergence after Step  12       (Hartree/Angstrom,Angstrom)
----------------------------------------------------------------------
current energy                               -5.41748654 Hartree
energy change                      -0.03305656     0.00027000    F
constrained gradient max            0.15635684     0.00100000    F
constrained gradient rms            0.03209104     0.00066667    F
gradient max                        0.15635684
gradient rms                        0.03209104
cart. step max                      0.21513189     0.01000000    F
cart. step rms                      0.04509171     0.00666667    F
 
 
--------
Geometry
--------
Formula: C10H11Cl4OTi
Atoms
  Index Symbol   x (angstrom)   y (angstrom)   z (angstrom)
      1      H     0.47330437    -1.71308177     0.79495733
      2      C    -1.01135605    -0.00224995     0.97902245
      3      C     0.28502812    -0.66046106     0.59433926
      4      C     1.43603003    -0.14150202     0.09659599
      5      O     2.48412744    -1.38913681    -0.03321415
      6      H    -0.78966253     1.05572677     0.99166502
      7      H    -2.24550304     0.14235294     2.77059561
      8      H    -0.53519154    -0.17499346     3.11525543
      9      C    -1.36196202    -0.40667462     2.43732937
     10      H    -1.58182240    -1.47675850     2.49851457
     11      C    -4.41279288    -0.71722884    -1.61724701
     12      C    -4.29066652     0.47703550    -0.90411705
     13      C    -3.18140336     0.69916249    -0.09202660
     14      C    -2.17118668    -0.26698456     0.02975660
     15      C    -2.30423921    -1.45959768    -0.69214279
     16      C    -3.41488686    -1.68326454    -1.50903889
     17      H    -5.05734514     1.24238939    -0.98747770
     18      H    -3.09644831     1.63718728     0.44930829
     19      H    -1.54030101    -2.22814608    -0.62648868
     20      H    -3.49511870    -2.61558973    -2.06146449
     21      H    -5.27632865    -0.88908006    -2.25366688
     22      H     2.09680839    -1.68990757    -0.93756554
     23     Ti     0.63515510     3.14501986     0.12837564
     24     Cl     2.34957621     1.31045373    -0.52018166
     25     Cl    -0.43548707     3.60811549     2.04124091
     26     Cl    -0.56742324     3.23514256    -1.72866709
     27     Cl     2.48253881     4.45188909     0.22469272
 
Total System Charge             0.00000
 
 *** GOStep13 ***

 Energy gradients wrt nuclear displacements
 ==========================================

     Atom      Cartesian (a.u./angstrom)
                 X         Y         Z
 ----------------------------------------
     1 H     0.011684 -0.001525 -0.002259
     2 C    -0.011254  0.019961 -0.008119
     3 C    -0.025878 -0.063399  0.017600
     4 C    -0.094736  0.141875  0.004699
     5 O     0.099075 -0.085526  0.087449
     6 H     0.010377 -0.017275 -0.000629
     7 H     0.000535  0.000332 -0.000783
     8 H     0.000332  0.000354  0.000015
     9 C     0.000589 -0.002595  0.004595
    10 H    -0.000513  0.000062 -0.000365
    11 C    -0.000078 -0.001826 -0.001222
    12 C     0.000064  0.001880  0.001574
    13 C    -0.001703  0.002089 -0.000322
    14 C     0.004252 -0.000900  0.002873
    15 C     0.000980 -0.000812 -0.000067
    16 C    -0.001779 -0.000535 -0.001478
    17 H     0.000887 -0.000881 -0.000057
    18 H     0.000684 -0.000414 -0.000370
    19 H    -0.000666  0.001336 -0.000039
    20 H     0.000090  0.001043  0.000597
    21 H     0.000826  0.000235  0.000706
    22 H    -0.048732 -0.011039 -0.072962
    23 Ti   -0.015021 -0.034898 -0.003529
    24 Cl    0.063362  0.046610 -0.035086
    25 Cl   -0.000079  0.003692  0.003729
    26 Cl    0.001260  0.001062  0.000831
    27 Cl    0.005441  0.001094  0.002621
 ----------------------------------------
 Mulliken charges used for AMS results%charges...

 dE(predicted):    -0.39240E-01, dE(actual):    -0.26609E-01, Trust radius:    1.000000, all in a.u.
 
----------------------------------------------------------------------
Geometry Convergence after Step  13       (Hartree/Angstrom,Angstrom)
----------------------------------------------------------------------
current energy                               -5.44409524 Hartree
energy change                      -0.02660870     0.00027000    F
constrained gradient max            0.14189710     0.00100000    F
constrained gradient rms            0.03081133     0.00066667    F
gradient max                        0.14189710
gradient rms                        0.03081133
cart. step max                      0.18766193     0.01000000    F
cart. step rms                      0.04498987     0.00666667    F
 
 
--------
Geometry
--------
Formula: C10H11Cl4OTi
Atoms
  Index Symbol   x (angstrom)   y (angstrom)   z (angstrom)
      1      H     0.47826349    -1.71888683     0.78214970
      2      C    -1.00141107    -0.02005199     1.00654174
      3      C     0.28449121    -0.66494705     0.60565595
      4      C     1.46943874    -0.19718431     0.09750129
      5      O     2.29646551    -1.41296937    -0.06606530
      6      H    -0.78829428     1.03685333     1.02135161
      7      H    -2.26407744     0.10069571     2.78408224
      8      H    -0.55533001    -0.20485881     3.14588989
      9      C    -1.37183104    -0.43708932     2.45525666
     10      H    -1.58097963    -1.50956695     2.50640770
     11      C    -4.37686808    -0.71373241    -1.63781948
     12      C    -4.25047777     0.48561949    -0.93371769
     13      C    -3.15176683     0.70036209    -0.10518644
     14      C    -2.15766381    -0.27845817     0.04134915
     15      C    -2.29692754    -1.47799485    -0.66725718
     16      C    -3.39658382    -1.69412396    -1.50106821
     17      H    -5.00567971     1.25972004    -1.03797531
     18      H    -3.06261441     1.64075640     0.43102650
     19      H    -1.54801219    -2.25793886    -0.57153320
     20      H    -3.48334094    -2.63207676    -2.04286516
     21      H    -5.23211841    -0.87916398    -2.28690948
     22      H     2.12798791    -1.77155668    -1.02413177
     23     Ti     0.63019957     3.24021058     0.14391750
     24     Cl     2.25219539     1.34536917    -0.52612100
     25     Cl    -0.39260591     3.78238382     2.05076671
     26     Cl    -0.65817886     3.27401533    -1.64428205
     27     Cl     2.50916321     4.49443224     0.16138627
 
Total System Charge             0.00000
 
 *** GOStep14 ***

 Energy gradients wrt nuclear displacements
 ==========================================

     Atom      Cartesian (a.u./angstrom)
                 X         Y         Z
 ----------------------------------------
     1 H     0.024710 -0.000013 -0.005750
     2 C    -0.006106  0.014401 -0.007443
     3 C    -0.031877 -0.062519  0.014173
     4 C    -0.002347  0.134103  0.011171
     5 O    -0.010302 -0.054811  0.098284
     6 H     0.009842 -0.022426 -0.001937
     7 H     0.000661  0.000297 -0.000296
     8 H     0.000345  0.000338 -0.000010
     9 C    -0.001396 -0.002684  0.003854
    10 H    -0.000192  0.000415 -0.000360
    11 C     0.000060 -0.002055 -0.001414
    12 C    -0.000002  0.002163  0.001711
    13 C    -0.001550  0.002655 -0.000344
    14 C     0.001481 -0.001761  0.000261
    15 C     0.001323 -0.000702 -0.000211
    16 C    -0.001922 -0.000424 -0.001728
    17 H     0.000870 -0.001053 -0.000190
    18 H     0.000764 -0.000596 -0.000106
    19 H    -0.000562  0.001469  0.000632
    20 H     0.000081  0.001152  0.000642
    21 H     0.000864  0.000321  0.000848
    22 H    -0.017984 -0.040546 -0.085114
    23 Ti   -0.015041 -0.027256 -0.005019
    24 Cl    0.039827  0.055470 -0.031066
    25 Cl    0.001831  0.004764 -0.000006
    26 Cl    0.003577 -0.000484  0.006328
    27 Cl    0.003046 -0.000218  0.003092
 ----------------------------------------
 Mulliken charges used for AMS results%charges...

 dE(predicted):    -0.13643E-01, dE(actual):    -0.16744E-01, Trust radius:    1.000000, all in a.u.
 
----------------------------------------------------------------------
Geometry Convergence after Step  14       (Hartree/Angstrom,Angstrom)
----------------------------------------------------------------------
current energy                               -5.46083895 Hartree
energy change                      -0.01674371     0.00027000    F
constrained gradient max            0.13411474     0.00100000    F
constrained gradient rms            0.02571484     0.00066667    F
gradient max                        0.13411474
gradient rms                        0.02571484
cart. step max                      0.16679633     0.01000000    F
cart. step rms                      0.05516553     0.00666667    F
 
 
--------
Geometry
--------
Formula: C10H11Cl4OTi
Atoms
  Index Symbol   x (angstrom)   y (angstrom)   z (angstrom)
      1      H     0.36461370    -1.73250995     0.71861422
      2      C    -0.98159195    -0.00307110     1.01691910
      3      C     0.28455209    -0.66126354     0.58196846
      4      C     1.52398520    -0.28165563     0.08876043
      5      O     2.34211660    -1.37493476    -0.15572275
      6      H    -0.79371449     1.07400185     1.05864402
      7      H    -2.26304024     0.06060001     2.78381940
      8      H    -0.55198337    -0.22254058     3.15338443
      9      C    -1.35776714    -0.45231604     2.44958318
     10      H    -1.54611166    -1.52939201     2.47979107
     11      C    -4.35662449    -0.71177850    -1.63923919
     12      C    -4.18965634     0.52214617    -1.00932187
     13      C    -3.10201155     0.73880552    -0.16465816
     14      C    -2.14325493    -0.26137614     0.04470672
     15      C    -2.31444083    -1.49179454    -0.60358747
     16      C    -3.41477760    -1.71843283    -1.43189659
     17      H    -4.91254869     1.31795139    -1.17072507
     18      H    -2.98190760     1.70812759     0.31015689
     19      H    -1.59616871    -2.29265401    -0.45433790
     20      H    -3.53011996    -2.68283895    -1.92077103
     21      H    -5.20661088    -0.88122208    -2.29521634
     22      H     2.18808847    -1.72874461    -1.08441048
     23     Ti     0.60954929     3.22970423     0.19040205
     24     Cl     2.08539906     1.30810526    -0.46301968
     25     Cl    -0.37132777     3.77736131     2.10633396
     26     Cl    -0.75453041     3.25594960    -1.53434082
     27     Cl     2.44332750     4.52359022     0.13251408
 
Total System Charge             0.00000
 
 *** GOStep15 ***

 Energy gradients wrt nuclear displacements
 ==========================================

     Atom      Cartesian (a.u./angstrom)
                 X         Y         Z
 ----------------------------------------
     1 H     0.013623  0.006721 -0.005896
     2 C    -0.002781 -0.007160  0.001960
     3 C    -0.070610 -0.029794  0.017823
     4 C     0.099958  0.086288 -0.012409
     5 O    -0.026547 -0.022093  0.055194
     6 H     0.008536 -0.001560  0.000259
     7 H     0.000218 -0.000191  0.000749
     8 H     0.000001 -0.000165 -0.000110
     9 C    -0.003040 -0.000665 -0.000601
    10 H     0.000280  0.000487 -0.000278
    11 C    -0.000958 -0.001730  0.000903
    12 C     0.002069  0.002478 -0.002199
    13 C    -0.002581  0.000060  0.002891
    14 C    -0.001693 -0.001262 -0.002161
    15 C     0.001690  0.000190 -0.002324
    16 C    -0.001273 -0.000461  0.000167
    17 H     0.000082 -0.000608 -0.000127
    18 H     0.001521  0.000671 -0.001148
    19 H     0.000283  0.000750  0.001151
    20 H     0.000065  0.000506  0.000052
    21 H     0.000509  0.000384  0.000033
    22 H    -0.009286 -0.027745 -0.049839
    23 Ti   -0.007964 -0.023638 -0.003191
    24 Cl   -0.008614  0.018468 -0.007589
    25 Cl    0.004050  0.003054 -0.007476
    26 Cl    0.005203 -0.002154  0.010777
    27 Cl   -0.002740 -0.000832  0.003388
 ----------------------------------------
 Mulliken charges used for AMS results%charges...
 Rebuilding optimization coordinates

 dE(predicted):    -0.17095E-01, dE(actual):    -0.21693E-01, Trust radius:    1.000000, all in a.u.
 
----------------------------------------------------------------------
Geometry Convergence after Step  15       (Hartree/Angstrom,Angstrom)
----------------------------------------------------------------------
current energy                               -5.48253217 Hartree
energy change                      -0.02169321     0.00027000    F
constrained gradient max            0.09995947     0.00100000    F
constrained gradient rms            0.02024306     0.00066667    F
gradient max                        0.09995947
gradient rms                        0.02024306
cart. step max                      0.15778113     0.01000000    F
cart. step rms                      0.04854695     0.00666667    F
 
 
--------
Geometry
--------
Formula: C10H11Cl4OTi
Atoms
  Index Symbol   x (angstrom)   y (angstrom)   z (angstrom)
      1      H     0.27281632    -1.73656797     0.66842049
      2      C    -0.96956839     0.03261989     0.96554393
      3      C     0.28828453    -0.65668981     0.54414006
      4      C     1.52750661    -0.31642440     0.09778429
      5      O     2.42429026    -1.35257894    -0.15885622
      6      H    -0.80182658     1.12092582     1.00865273
      7      H    -2.24905290     0.10077326     2.72818612
      8      H    -0.53570069    -0.16313684     3.10332120
      9      C    -1.33827895    -0.40717377     2.40081089
     10      H    -1.51753313    -1.48573792     2.44321118
     11      C    -4.39856851    -0.74640183    -1.60520909
     12      C    -4.24374662     0.48732433    -0.97443425
     13      C    -3.11898446     0.74037138    -0.18936675
     14      C    -2.14037754    -0.24184903     0.00649262
     15      C    -2.32343917    -1.48911623    -0.60785529
     16      C    -3.43304000    -1.73483191    -1.41677042
     17      H    -4.99260994     1.26522107    -1.10553960
     18      H    -3.02192992     1.70494488     0.29966362
     19      H    -1.59476730    -2.28308271    -0.47051409
     20      H    -3.54876623    -2.70794189    -1.88922776
     21      H    -5.27023722    -0.94062247    -2.22575338
     22      H     2.24721635    -1.65444813    -1.07264793
     23     Ti     0.65506534     3.20242387     0.21476740
     24     Cl     2.08601787     1.26169412    -0.33905094
     25     Cl    -0.43408383     3.70881504     2.08530921
     26     Cl    -0.59674927     3.31167296    -1.59818440
     27     Cl     2.50150665     4.46963511     0.27545702
 
Total System Charge             0.00000
 
 *** GOStep16 ***

 Energy gradients wrt nuclear displacements
 ==========================================

     Atom      Cartesian (a.u./angstrom)
                 X         Y         Z
 ----------------------------------------
     1 H     0.003957  0.002958 -0.002716
     2 C    -0.000951 -0.013147  0.004166
     3 C    -0.042925  0.000022  0.005613
     4 C     0.067259  0.079036 -0.011630
     5 O     0.002956 -0.034461  0.016439
     6 H     0.004807  0.009424  0.003214
     7 H    -0.000181 -0.000040  0.000134
     8 H    -0.000111 -0.000331  0.000007
     9 C    -0.000602 -0.000186 -0.003600
    10 H     0.000251  0.000063 -0.000094
    11 C     0.001139  0.001065 -0.001323
    12 C    -0.001927 -0.001779  0.002976
    13 C     0.002588  0.001656 -0.003546
    14 C    -0.001185  0.002414 -0.004529
    15 C    -0.002402 -0.001995  0.002958
    16 C     0.001295  0.000675 -0.000962
    17 H    -0.000210  0.000024 -0.000231
    18 H    -0.000950 -0.001294  0.001099
    19 H     0.000949  0.000141  0.000362
    20 H    -0.000303 -0.000289  0.000224
    21 H    -0.000393 -0.000084  0.000248
    22 H    -0.009387 -0.003843 -0.013975
    23 Ti   -0.001337 -0.024833 -0.000282
    24 Cl   -0.025480 -0.014157  0.003486
    25 Cl    0.003943  0.001617 -0.008288
    26 Cl    0.003861 -0.000990  0.008039
    27 Cl   -0.004659 -0.001667  0.002210
 ----------------------------------------
 Mulliken charges used for AMS results%charges...

 dE(predicted):    -0.65940E-02, dE(actual):    -0.80610E-02, Trust radius:    1.000000, all in a.u.
 
----------------------------------------------------------------------
Geometry Convergence after Step  16       (Hartree/Angstrom,Angstrom)
----------------------------------------------------------------------
current energy                               -5.49059315 Hartree
energy change                      -0.00806098     0.00027000    F
constrained gradient max            0.07905041     0.00100000    F
constrained gradient rms            0.01434879     0.00066667    F
gradient max                        0.07905041
gradient rms                        0.01434879
cart. step max                      0.04595657     0.01000000    F
cart. step rms                      0.01806617     0.00666667    F
 
 
--------
Geometry
--------
Formula: C10H11Cl4OTi
Atoms
  Index Symbol   x (angstrom)   y (angstrom)   z (angstrom)
      1      H     0.26755870    -1.75314691     0.66459359
      2      C    -0.96882840     0.01827163     0.96089695
      3      C     0.28786434    -0.67236481     0.53606291
      4      C     1.50865072    -0.32329238     0.08889119
      5      O     2.41101858    -1.33977500    -0.15651452
      6      H    -0.81690341     1.10508361     0.99108836
      7      H    -2.22532454     0.10361611     2.74022292
      8      H    -0.50577965    -0.14421070     3.09608577
      9      C    -1.31615587    -0.40404068     2.40820139
     10      H    -1.48873635    -1.48288272     2.46915717
     11      C    -4.41186389    -0.74683311    -1.59573712
     12      C    -4.22993802     0.49619898    -0.99089740
     13      C    -3.12174366     0.72675849    -0.17616771
     14      C    -2.15129741    -0.26366691     0.02046049
     15      C    -2.33498386    -1.50253194    -0.61035103
     16      C    -3.45899883    -1.74608339    -1.40014836
     17      H    -4.95864187     1.28945919    -1.14203234
     18      H    -2.99671999     1.70402909     0.28120137
     19      H    -1.61114582    -2.30179215    -0.47994865
     20      H    -3.58074336    -2.71674809    -1.87609021
     21      H    -5.27816370    -0.92943364    -2.22721477
     22      H     2.29033828    -1.63175901    -1.08547047
     23     Ti     0.63864684     3.22080943     0.21618195
     24     Cl     2.07573587     1.26893862    -0.31056922
     25     Cl    -0.48004040     3.71201203     2.07769508
     26     Cl    -0.57821013     3.34724346    -1.62484168
     27     Cl     2.50784910     4.45595871     0.31359497
 
Total System Charge             0.00000
 
 *** GOStep17 ***

 Energy gradients wrt nuclear displacements
 ==========================================

     Atom      Cartesian (a.u./angstrom)
                 X         Y         Z
 ----------------------------------------
     1 H     0.002989  0.000916 -0.000857
     2 C     0.001759 -0.008088  0.000614
     3 C    -0.015948  0.001280 -0.001926
     4 C     0.049087  0.066602 -0.006201
     5 O    -0.009027 -0.022575  0.022768
     6 H     0.001214  0.005271  0.003240
     7 H    -0.000063 -0.000023 -0.000001
     8 H    -0.000035 -0.000152  0.000094
     9 C    -0.000055 -0.000014 -0.002812
    10 H     0.000153  0.000093 -0.000092
    11 C    -0.001153 -0.000353  0.002078
    12 C     0.002484  0.001047 -0.003878
    13 C    -0.002151 -0.002015  0.004580
    14 C    -0.002705  0.001371 -0.000968
    15 C     0.001400  0.000461 -0.003202
    16 C    -0.000586 -0.000667  0.002026
    17 H    -0.000282  0.000015  0.000047
    18 H     0.000843  0.000329 -0.001371
    19 H     0.000036 -0.000096  0.000567
    20 H     0.000179  0.000044 -0.000542
    21 H     0.000098  0.000203 -0.000507
    22 H    -0.007570 -0.006902 -0.018357
    23 Ti   -0.000634 -0.023606  0.000222
    24 Cl   -0.022034 -0.012410  0.003082
    25 Cl    0.002920  0.001701 -0.006240
    26 Cl    0.002669 -0.000623  0.005782
    27 Cl   -0.003589 -0.001809  0.001854
 ----------------------------------------
 Mulliken charges used for AMS results%charges...

 dE(predicted):    -0.17230E-02, dE(actual):    -0.26532E-02, Trust radius:    1.000000, all in a.u.
 
----------------------------------------------------------------------
Geometry Convergence after Step  17       (Hartree/Angstrom,Angstrom)
----------------------------------------------------------------------
current energy                               -5.49324634 Hartree
energy change                      -0.00265320     0.00027000    F
constrained gradient max            0.06662091     0.00100000    F
constrained gradient rms            0.01123740     0.00066667    F
gradient max                        0.06662091
gradient rms                        0.01123740
cart. step max                      0.16036460     0.01000000    F
cart. step rms                      0.05147869     0.00666667    F
 
 
--------
Geometry
--------
Formula: C10H11Cl4OTi
Atoms
  Index Symbol   x (angstrom)   y (angstrom)   z (angstrom)
      1      H     0.22146197    -1.79329338     0.63115249
      2      C    -0.96854966     0.00138630     0.91973315
      3      C     0.28260347    -0.71080608     0.50398530
      4      C     1.46966049    -0.35282498     0.07371971
      5      O     2.41015344    -1.31180513    -0.13959682
      6      H    -0.85274247     1.08360461     0.90645882
      7      H    -2.19333713     0.15404946     2.72109576
      8      H    -0.46610062    -0.06414056     3.05361305
      9      C    -1.28715927    -0.36215339     2.39436663
     10      H    -1.45112196    -1.43835011     2.50814782
     11      C    -4.45343478    -0.76639734    -1.57607022
     12      C    -4.26761562     0.46637726    -0.95159603
     13      C    -3.13071726     0.69746581    -0.17814986
     14      C    -2.16633672    -0.30159852     0.01230762
     15      C    -2.36672156    -1.53694537    -0.61923000
     16      C    -3.49518594    -1.76534004    -1.40818910
     17      H    -4.99827098     1.26188636    -1.07978062
     18      H    -2.99876860     1.67170561     0.28612615
     19      H    -1.64349051    -2.34012873    -0.51449698
     20      H    -3.62844663    -2.73432766    -1.88442352
     21      H    -5.33511776    -0.94755497    -2.18626271
     22      H     2.44214599    -1.55020097    -1.09250469
     23     Ti     0.65813013     3.27460307     0.21996535
     24     Cl     2.08458217     1.26600956    -0.18758362
     25     Cl    -0.56916538     3.72315805     2.03709188
     26     Cl    -0.41784553     3.47088220    -1.71785403
     27     Cl     2.59483402     4.39455683     0.45632513
 
Total System Charge             0.00000
 
 *** GOStep18 ***

 Energy gradients wrt nuclear displacements
 ==========================================

     Atom      Cartesian (a.u./angstrom)
                 X         Y         Z
 ----------------------------------------
     1 H    -0.001844 -0.002937  0.003666
     2 C     0.006792  0.003593 -0.006627
     3 C     0.053230  0.009620 -0.020561
     4 C    -0.011253  0.033434  0.008244
     5 O    -0.025593  0.001214  0.027240
     6 H    -0.008476 -0.003926  0.003217
     7 H    -0.000010  0.000027 -0.000036
     8 H     0.000006  0.000260  0.000266
     9 C     0.000757  0.000432 -0.000068
    10 H    -0.000140 -0.000021  0.000123
    11 C     0.000350  0.001025 -0.000733
    12 C    -0.001393 -0.001493  0.001747
    13 C     0.002454  0.000302 -0.001482
    14 C    -0.001293  0.000476  0.003685
    15 C    -0.000175 -0.000337  0.000112
    16 C     0.001557  0.000681 -0.001376
    17 H     0.000170  0.000374 -0.000117
    18 H     0.000188  0.000724 -0.000106
    19 H    -0.000291  0.000099 -0.000967
    20 H    -0.000419 -0.000381  0.000556
    21 H    -0.000243 -0.000139  0.000103
    22 H    -0.001433 -0.009361 -0.021241
    23 Ti    0.001638 -0.019956  0.002757
    24 Cl   -0.012443 -0.013834  0.002885
    25 Cl   -0.000504  0.001617 -0.000657
    26 Cl   -0.000918  0.000609 -0.001537
    27 Cl   -0.000711 -0.002102  0.000905
 ----------------------------------------
 Mulliken charges used for AMS results%charges...

 dE(predicted):    -0.36779E-02, dE(actual):    -0.42093E-02, Trust radius:    1.000000, all in a.u.
 
----------------------------------------------------------------------
Geometry Convergence after Step  18       (Hartree/Angstrom,Angstrom)
----------------------------------------------------------------------
current energy                               -5.49745561 Hartree
energy change                      -0.00420927     0.00027000    F
constrained gradient max            0.05323319     0.00100000    F
constrained gradient rms            0.00971400     0.00066667    F
gradient max                        0.05323319
gradient rms                        0.00971400
cart. step max                      0.11913019     0.01000000    F
cart. step rms                      0.03636812     0.00666667    F
 
 
--------
Geometry
--------
Formula: C10H11Cl4OTi
Atoms
  Index Symbol   x (angstrom)   y (angstrom)   z (angstrom)
      1      H     0.18129419    -1.80585174     0.57481058
      2      C    -0.97772688     0.00399656     0.89227001
      3      C     0.26786022    -0.72232306     0.47585830
      4      C     1.45934013    -0.36001219     0.06032496
      5      O     2.43590554    -1.28940175    -0.16062835
      6      H    -0.86696486     1.08582024     0.85927228
      7      H    -2.18867900     0.18104289     2.70323050
      8      H    -0.45902641    -0.03533568     3.02355411
      9      C    -1.28622550    -0.34108992     2.37583722
     10      H    -1.45093524    -1.41551933     2.50517406
     11      C    -4.49078066    -0.80427861    -1.55071086
     12      C    -4.28674697     0.44566027    -0.96684848
     13      C    -3.15582461     0.67898631    -0.18573135
     14      C    -2.18034688    -0.31203405    -0.00237251
     15      C    -2.38797980    -1.55584830    -0.61354790
     16      C    -3.53669538    -1.80400070    -1.36710686
     17      H    -5.01600991     1.24098611    -1.10334861
     18      H    -3.01978974     1.66038646     0.26261954
     19      H    -1.66888639    -2.36131583    -0.49759328
     20      H    -3.67181341    -2.77859058    -1.83108304
     21      H    -5.37490135    -0.99277037    -2.15499736
     22      H     2.52567982    -1.46987393    -1.11948969
     23     Ti     0.70467327     3.31453111     0.24518522
     24     Cl     2.11102510     1.26710936    -0.10539197
     25     Cl    -0.56520297     3.72124080     2.04957031
[...]
     2 C    -0.002278 -0.001585  0.003056
     3 C    -0.003320  0.005880 -0.001905
     4 C    -0.004871 -0.001350  0.011684
     5 O     0.002410  0.006967 -0.002619
     6 H     0.000406 -0.004114 -0.003495
     7 H    -0.000193 -0.000309  0.000325
     8 H    -0.000189 -0.000150  0.000142
     9 C     0.000899  0.000961 -0.002266
    10 H     0.000087 -0.000100 -0.000502
    11 C    -0.000572  0.003116 -0.000369
    12 C    -0.002111 -0.001477 -0.001387
    13 C     0.002337 -0.001517  0.001839
    14 C     0.000928  0.002708  0.000378
    15 C    -0.003231 -0.002376 -0.002520
    16 C     0.003044 -0.001028  0.002299
    17 H     0.000545  0.000353  0.000268
    18 H    -0.000540  0.000723 -0.000339
    19 H     0.000490  0.000663  0.000533
    20 H    -0.000566  0.000288 -0.000488
    21 H     0.000164 -0.000664  0.000064
    22 H     0.002197 -0.003243  0.000688
    23 Ti    0.005410 -0.002130  0.005126
    24 Cl    0.001108  0.000441 -0.012099
    25 Cl   -0.000193  0.001989  0.001846
    26 Cl   -0.000072 -0.000990 -0.001625
    27 Cl   -0.003558 -0.002005 -0.000022
 ----------------------------------------
 Mulliken charges used for AMS results%charges...

 dE(predicted):    -0.15747E-03, dE(actual):    -0.22486E-03, Trust radius:    1.000000, all in a.u.
 
----------------------------------------------------------------------
Geometry Convergence after Step  53       (Hartree/Angstrom,Angstrom)
----------------------------------------------------------------------
current energy                               -5.51149082 Hartree
energy change                      -0.00022486     0.00027000    T
constrained gradient max            0.01210586     0.00100000    F
constrained gradient rms            0.00286156     0.00066667    F
gradient max                        0.01210586
gradient rms                        0.00286156
cart. step max                      0.22070645     0.01000000    F
cart. step rms                      0.06003854     0.00666667    F
 
 
--------
Geometry
--------
Formula: C10H11Cl4OTi
Atoms
  Index Symbol   x (angstrom)   y (angstrom)   z (angstrom)
      1      H     0.11918294    -1.67200519    -0.16986315
      2      C    -1.16257909    -0.26864519     0.98280090
      3      C     0.11659761    -0.69268266     0.31040976
      4      C     1.31151853    -0.11251235     0.24843431
      5      O     2.43266350    -0.67546502    -0.24629905
      6      H    -1.10414213     0.80348950     1.16774031
      7      H    -2.26596613    -0.67907182     2.81612073
      8      H    -0.50205566    -0.70801476     3.01794129
      9      C    -1.32307299    -0.97507385     2.34621232
     10      H    -1.32758180    -2.06332978     2.23802733
     11      C    -4.60207654    -0.83910082    -1.61623871
     12      C    -4.19847533     0.43988401    -1.24241458
     13      C    -3.08724926     0.61107928    -0.41247303
     14      C    -2.36320229    -0.48758782     0.06097523
     15      C    -2.78159898    -1.77179239    -0.32354906
     16      C    -3.88660782    -1.94637420    -1.15230098
     17      H    -4.73924423     1.31464121    -1.59593652
     18      H    -2.78345235     1.61926934    -0.14124052
     19      H    -2.24526952    -2.64927907     0.02960333
     20      H    -4.19556279    -2.94891354    -1.44002417
     21      H    -5.46402508    -0.98141414    -2.26359102
     22      H     2.86379073    -0.10336335    -0.89949186
     23     Ti     1.32211481     3.84976229     0.31574291
     24     Cl     1.71906669     1.52804385     0.99458639
     25     Cl     0.23332697     4.88196153     1.95520215
     26     Cl     0.07864383     3.40735294    -1.52313358
     27     Cl     3.30869967     4.60895989    -0.26889007
 
Total System Charge             0.00000
 
 *** GOStep54 ***

 Energy gradients wrt nuclear displacements
 ==========================================

     Atom      Cartesian (a.u./angstrom)
                 X         Y         Z
 ----------------------------------------
     1 H     0.001179 -0.000761  0.001250
     2 C    -0.002724 -0.001697  0.003133
     3 C    -0.002526  0.004775 -0.002464
     4 C    -0.005856 -0.001249  0.014629
     5 O     0.001645  0.008188 -0.002256
     6 H    -0.000006 -0.004157 -0.003314
     7 H    -0.000162 -0.000368  0.000202
     8 H    -0.000161 -0.000139  0.000066
     9 C     0.000816  0.001133 -0.001983
    10 H     0.000066 -0.000038 -0.000598
    11 C    -0.000611  0.003251 -0.000313
    12 C    -0.002128 -0.001586 -0.001407
    13 C     0.002302 -0.001374  0.001847
    14 C     0.000559  0.002666  0.000163
    15 C    -0.002881 -0.002104 -0.002377
    16 C     0.002892 -0.001135  0.002275
    17 H     0.000624  0.000415  0.000333
    18 H    -0.000612  0.000562 -0.000382
    19 H     0.000456  0.000500  0.000530
    20 H    -0.000577  0.000292 -0.000531
    21 H     0.000202 -0.000829  0.000054
    22 H     0.003085 -0.003254 -0.000002
    23 Ti    0.007314 -0.000588  0.008720
    24 Cl    0.003099  0.000638 -0.015037
    25 Cl   -0.000039  0.001292  0.001267
    26 Cl   -0.000833 -0.001599 -0.003589
    27 Cl   -0.005123 -0.002834 -0.000215
 ----------------------------------------
 Mulliken charges used for AMS results%charges...

 dE(predicted):    -0.32737E-03, dE(actual):    -0.24074E-03, Trust radius:    1.000000, all in a.u.
 
----------------------------------------------------------------------
Geometry Convergence after Step  54       (Hartree/Angstrom,Angstrom)
----------------------------------------------------------------------
current energy                               -5.51173156 Hartree
energy change                      -0.00024074     0.00027000    T
constrained gradient max            0.01503798     0.00100000    F
constrained gradient rms            0.00339419     0.00066667    F
gradient max                        0.01503798
gradient rms                        0.00339419
cart. step max                      0.19094246     0.01000000    F
cart. step rms                      0.05479121     0.00666667    F
 
 
--------
Geometry
--------
Formula: C10H11Cl4OTi
Atoms
  Index Symbol   x (angstrom)   y (angstrom)   z (angstrom)
      1      H     0.12186657    -1.62017966    -0.18301144
      2      C    -1.19006643    -0.28355275     1.00946182
      3      C     0.10219031    -0.65846367     0.33027537
      4      C     1.28430794    -0.04970749     0.28495137
      5      O     2.41293571    -0.57515272    -0.23474266
      6      H    -1.16146203     0.78311795     1.23180249
      7      H    -2.29351800    -0.77538330     2.82221329
      8      H    -0.53024694    -0.77041087     3.03371292
      9      C    -1.34157539    -1.03590407     2.34978155
     10      H    -1.32058635    -2.12011204     2.20881557
     11      C    -4.59906722    -0.85564262    -1.62945278
     12      C    -4.21659674     0.42230604    -1.22982039
     13      C    -3.11474051     0.59429904    -0.38810890
     14      C    -2.37935620    -0.50260748     0.07247517
     15      C    -2.77577591    -1.78521832    -0.33814594
     16      C    -3.87168372    -1.96057825    -1.17954521
     17      H    -4.76688037     1.29544300    -1.57253000
     18      H    -2.82635586     1.60127773    -0.09634211
     19      H    -2.23117768    -2.66216637     0.00369961
     20      H    -4.16332047    -2.96226741    -1.48757788
     21      H    -5.45352108    -0.99864664    -2.28653459
     22      H     2.82402252     0.01749466    -0.88312217
     23     Ti     1.40384942     3.88174369     0.28096952
     24     Cl     1.65086991     1.57554870     1.06883353
     25     Cl     0.39673233     5.07031086     1.86541274
     26     Cl     0.07090456     3.44625245    -1.50304114
     27     Cl     3.44169492     4.41801743    -0.36207907
 
Total System Charge             0.00000
 
 *** GOStep55 ***

 Energy gradients wrt nuclear displacements
 ==========================================

     Atom      Cartesian (a.u./angstrom)
                 X         Y         Z
 ----------------------------------------
     1 H     0.000377 -0.000255  0.000898
     2 C    -0.003005 -0.001575  0.002392
     3 C    -0.001007  0.002729 -0.002838
     4 C    -0.006355 -0.000729  0.017324
     5 O     0.000583  0.008631 -0.001982
     6 H    -0.000782 -0.003903 -0.002544
     7 H    -0.000093 -0.000343  0.000030
     8 H    -0.000146 -0.000104 -0.000045
     9 C     0.000636  0.001085 -0.001271
    10 H    -0.000008  0.000024 -0.000645
    11 C    -0.000621  0.002968 -0.000163
    12 C    -0.001894 -0.001495 -0.001197
    13 C     0.001892 -0.001116  0.001555
    14 C     0.000256  0.002298 -0.000322
    15 C    -0.002077 -0.001460 -0.001785
    16 C     0.002283 -0.001086  0.001908
    17 H     0.000607  0.000431  0.000342
    18 H    -0.000498  0.000418 -0.000353
    19 H     0.000313  0.000227  0.000489
    20 H    -0.000500  0.000256 -0.000516
    21 H     0.000229 -0.000882  0.000006
    22 H     0.003822 -0.003115 -0.000837
    23 Ti    0.010060  0.001440  0.012063
    24 Cl    0.005407  0.001145 -0.017287
    25 Cl   -0.000169  0.000131  0.000290
    26 Cl   -0.002337 -0.002107 -0.005601
    27 Cl   -0.006972 -0.003612  0.000089
 ----------------------------------------
 Mulliken charges used for AMS results%charges...

 dE(predicted):    -0.48708E-03, dE(actual):    -0.29372E-03, Trust radius:    1.000000, all in a.u.
 
----------------------------------------------------------------------
Geometry Convergence after Step  55       (Hartree/Angstrom,Angstrom)
----------------------------------------------------------------------
current energy                               -5.51202528 Hartree
energy change                      -0.00029372     0.00027000    F
constrained gradient max            0.01731925     0.00100000    F
constrained gradient rms            0.00391062     0.00066667    F
gradient max                        0.01731925
gradient rms                        0.00391062
cart. step max                      0.18322223     0.01000000    F
cart. step rms                      0.05075493     0.00666667    F
 
 
--------
Geometry
--------
Formula: C10H11Cl4OTi
Atoms
  Index Symbol   x (angstrom)   y (angstrom)   z (angstrom)
      1      H     0.11932288    -1.57125689    -0.19335911
      2      C    -1.21655575    -0.29425548     1.03255029
      3      C     0.08628144    -0.62660939     0.34902077
      4      C     1.25574192     0.00836145     0.31556182
      5      O     2.38944237    -0.48594664    -0.22502365
      6      H    -1.21629741     0.76603571     1.28724539
      7      H    -2.31692816    -0.85016164     2.82825849
      8      H    -0.55455130    -0.81918684     3.04669402
      9      C    -1.35889350    -1.08326621     2.35407028
     10      H    -1.31820965    -2.16317046     2.18763455
     11      C    -4.59499438    -0.87725963    -1.64313464
     12      C    -4.23700832     0.40024050    -1.21863836
     13      C    -3.14516213     0.57604840    -0.36554408
     14      C    -2.39542688    -0.51669807     0.08291099
     15      C    -2.76655685    -1.79799296    -0.35252541
     16      C    -3.85313666    -1.97717160    -1.20630157
     17      H    -4.79939739     1.26943636    -1.55164575
     18      H    -2.87473455     1.58182834    -0.05340103
     19      H    -2.21140536    -2.67274054    -0.02199271
     20      H    -4.12435875    -2.97853422    -1.53341379
     21      H    -5.44158545    -1.02245008    -2.30987398
     22      H     2.78091791     0.12116569    -0.87281679
     23     Ti     1.48545275     3.90673010     0.24893512
     24     Cl     1.58661445     1.62145940     1.12653775
     25     Cl     0.57802429     5.22623478     1.78861220
     26     Cl     0.06289050     3.51418261    -1.47943911
     27     Cl     3.55395729     4.23479520    -0.43257102
 
Total System Charge             0.00000
 
 *** GOStep56 ***

 Energy gradients wrt nuclear displacements
 ==========================================

     Atom      Cartesian (a.u./angstrom)
                 X         Y         Z
 ----------------------------------------
     1 H    -0.000548  0.000333  0.000398
     2 C    -0.003057 -0.000959  0.000946
     3 C     0.000831  0.000111 -0.003149
     4 C    -0.006867  0.000554  0.019556
     5 O    -0.000258  0.008273 -0.001779
     6 H    -0.001692 -0.003734 -0.001405
     7 H    -0.000011 -0.000235 -0.000146
     8 H    -0.000109 -0.000050 -0.000149
     9 C     0.000393  0.000806 -0.000292
    10 H    -0.000087  0.000082 -0.000609
    11 C    -0.000498  0.002312 -0.000028
    12 C    -0.001431 -0.001258 -0.000793
    13 C     0.001253 -0.000632  0.001067
    14 C    -0.000101  0.001600 -0.000637
    15 C    -0.000986 -0.000610 -0.000941
    16 C     0.001357 -0.000906  0.001296
    17 H     0.000531  0.000400  0.000281
    18 H    -0.000420  0.000066 -0.000247
    19 H     0.000144 -0.000088  0.000366
    20 H    -0.000343  0.000188 -0.000445
    21 H     0.000230 -0.000818 -0.000049
    22 H     0.004352 -0.002887 -0.001698
    23 Ti    0.013150  0.002885  0.014515
    24 Cl    0.007325  0.001590 -0.018582
    25 Cl   -0.000435 -0.000954 -0.000821
    26 Cl   -0.004127 -0.002218 -0.007109
    27 Cl   -0.008594 -0.003849  0.000456
 ----------------------------------------
 Mulliken charges used for AMS results%charges...

 dE(predicted):    -0.85436E-03, dE(actual):    -0.27604E-03, Trust radius:    1.000000, all in a.u.
 
----------------------------------------------------------------------
Geometry Convergence after Step  56       (Hartree/Angstrom,Angstrom)
----------------------------------------------------------------------
current energy                               -5.51230131 Hartree
energy change                      -0.00027604     0.00027000    F
constrained gradient max            0.01955100     0.00100000    F
constrained gradient rms            0.00438191     0.00066667    F
gradient max                        0.01955100
gradient rms                        0.00438191
cart. step max                      0.19293679     0.01000000    F
cart. step rms                      0.04737201     0.00666667    F
 
 
--------
Geometry
--------
Formula: C10H11Cl4OTi
Atoms
  Index Symbol   x (angstrom)   y (angstrom)   z (angstrom)
      1      H     0.06354185    -1.52169984    -0.25316976
      2      C    -1.21045965    -0.29712747     1.06773654
      3      C     0.08998767    -0.63010650     0.36826849
      4      C     1.25822400     0.01134608     0.31835276
      5      O     2.36142905    -0.48885447    -0.28063704
      6      H    -1.23457965     0.75291996     1.37449996
      7      H    -2.30763297    -0.84143666     2.86653516
      8      H    -0.54370401    -0.86489006     3.06970023
      9      C    -1.36197424    -1.10640952     2.38600517
     10      H    -1.35434559    -2.18543158     2.21474946
     11      C    -4.54120377    -0.87002279    -1.67080364
     12      C    -4.15838292     0.41328980    -1.27451005
     13      C    -3.08719274     0.58689919    -0.40100924
     14      C    -2.38059268    -0.51462851     0.10396497
     15      C    -2.77095688    -1.79443512    -0.30323914
     16      C    -3.84285836    -1.97221127    -1.18392601
     17      H    -4.69441426     1.28135685    -1.65165512
     18      H    -2.79125615     1.58912736    -0.10353765
     19      H    -2.25521647    -2.68072628     0.05961276
     20      H    -4.12451479    -2.97945509    -1.48265355
     21      H    -5.37568241    -1.00486936    -2.35499396
     22      H     2.70205463     0.09844406    -0.97558282
     23     Ti     1.43267714     3.89648323     0.19696306
     24     Cl     1.60374416     1.60450996     1.15351944
     25     Cl     0.60066234     5.17446613     1.81122698
     26     Cl    -0.13004629     3.61377562    -1.41757970
     27     Cl     3.52613627     4.21950416    -0.44948665
 
Total System Charge             0.00000
 
 *** GOStep57 ***

 Energy gradients wrt nuclear displacements
 ==========================================

     Atom      Cartesian (a.u./angstrom)
                 X         Y         Z
 ----------------------------------------
     1 H    -0.005761  0.004551 -0.002523
     2 C    -0.000553  0.004652 -0.007873
     3 C     0.010580 -0.016884 -0.004385
     4 C    -0.003791  0.008098  0.020917
     5 O    -0.003219  0.002360 -0.001683
     6 H    -0.006761 -0.001227  0.006568
     7 H     0.000692  0.000743 -0.001054
     8 H    -0.000249  0.000333 -0.000934
     9 C    -0.001276 -0.001977  0.005841
    10 H    -0.000449  0.000392 -0.000197
    11 C     0.000752 -0.003743  0.000591
    12 C     0.002434  0.001686  0.002391
    13 C    -0.003097  0.002490 -0.004137
    14 C    -0.001422 -0.004310 -0.001887
    15 C     0.006151  0.005225  0.005110
    16 C    -0.005084  0.001229 -0.003707
    17 H    -0.000423 -0.000174 -0.000370
    18 H     0.000640 -0.001207  0.000979
    19 H    -0.000890 -0.001774 -0.000745
    20 H     0.000855 -0.000340  0.000443
    21 H    -0.000065  0.000276 -0.000151
    22 H     0.004174 -0.002526 -0.003881
    23 Ti    0.006075  0.002935  0.007176
    24 Cl    0.008999  0.002881 -0.012097
    25 Cl   -0.000038 -0.002050 -0.002109
    26 Cl   -0.005289  0.000637 -0.004148
    27 Cl   -0.002981 -0.002275  0.001867
 ----------------------------------------
 Mulliken charges used for AMS results%charges...

 dE(predicted):    -0.76114E-03, dE(actual):     0.15394E-03, Trust radius:    0.092840, all in a.u.
 
----------------------------------------------------------------------
Geometry Convergence after Step  57       (Hartree/Angstrom,Angstrom)
----------------------------------------------------------------------
current energy                               -5.51214737 Hartree
energy change                       0.00015394     0.00027000    T
constrained gradient max            0.02091478     0.00100000    F
constrained gradient rms            0.00484474     0.00066667    F
gradient max                        0.02091478
gradient rms                        0.00484474
cart. step max                      0.06113508     0.01000000    F
cart. step rms                      0.01461152     0.00666667    F
 
 
--------
Geometry
--------
Formula: C10H11Cl4OTi
Atoms
  Index Symbol   x (angstrom)   y (angstrom)   z (angstrom)
      1      H     0.08213963    -1.53338094    -0.24532899
      2      C    -1.21341929    -0.29844214     1.05195378
      3      C     0.08769349    -0.62779246     0.35863216
      4      C     1.25300332     0.01591788     0.31128161
      5      O     2.37025350    -0.47405907    -0.26912290
      6      H    -1.23305091     0.75467366     1.34149393
      7      H    -2.30184406    -0.84334489     2.85698552
      8      H    -0.53720078    -0.85339616     3.05373587
      9      C    -1.35585683    -1.10072447     2.37199036
     10      H    -1.34088899    -2.18054018     2.20443752
     11      C    -4.56192342    -0.87976574    -1.66239267
     12      C    -4.17468961     0.40325679    -1.27387537
     13      C    -3.09670875     0.57831019    -0.40710313
     14      C    -2.38846139    -0.52121588     0.09622591
     15      C    -2.78468585    -1.80348897    -0.30412058
     16      C    -3.86138318    -1.98239162    -1.17557173
     17      H    -4.71043237     1.27198037    -1.64966570
     18      H    -2.79897566     1.58301349    -0.11881160
     19      H    -2.26475723    -2.68618121     0.06069660
     20      H    -4.14948488    -2.98917218    -1.46979051
     21      H    -5.40109015    -1.01737475    -2.34019724
     22      H     2.71811276     0.12544459    -0.94720133
     23     Ti     1.45989430     3.90617691     0.22407849
     24     Cl     1.58629897     1.61011616     1.14858189
     25     Cl     0.61223178     5.18727817     1.82779852
     26     Cl    -0.06891122     3.61441166    -1.42047967
     27     Cl     3.54758009     4.23050868    -0.43588007
 
Total System Charge             0.00000
 
 *** GOStep58 ***
