
 *******************************************************************************
 *                                                                             *
 *  --------------------------------                                           *
 *   Amsterdam Modeling Suite (AMS)              2021.102                      *
 *  --------------------------------                                           *
 *                                               r95042 2021-06-07             *
 *                                                                             *
 *                                                                             *
 *                              =================                              *
 *                              |               |                              *
 *                              |     A M S     |                              *
 *                              |               |                              *
 *                              =================                              *
 *                                                                             *
 *                                                                             *
 *   Online information and documentation:  https://www.scm.com/support/       *
 *   E-mail:  support@scm.com   info@scm.com                                   *
 *                                                                             *
 *   Scientific publications using AMS results must be properly referenced     *
 *   See the User Manuals (or the web site) for recommended citations          *
 *   The terms and conditions of the End User License Agreement apply to       *
 *   the use of AMS, https://www.scm.com/license-terms/                        *
 *                                                                             *
 **********************  x86_64_linux_intel / intelmpi  ************************
 
 Licensed to: VU/FEW (+ SARA) / ALGEMEEN / Amsterdam / THE NETHERLANDS
 SCM User ID: u7668
  
 AMS 2021.102  RunTime: Jan21-2022 00:36:14  ShM Nodes: 1  Procs: 1

 AMS jobname: 7.no_catalyst_F_F.TS
 AMS jobid  : 1620475

 Start   directory: /scistor/tc/yhk800/MasterProject/calculations/no_catalyst_F_F/7.no_catalyst_F_F.TS/
 Results directory: /scistor/tc/yhk800/MasterProject/calculations/no_catalyst_F_F/7.no_catalyst_F_F.TS/
 Scratch directory: /scratch/3669/amstmp_7.no_catalyst_F_F.TS_kid0.1620475/

 RNG seed: 1590058905 1698787699 1045363904 792919066 415909938 -1428580084 -1196899639 734022852



                      ************************************************************************
                      *  ADF 2021.102  RunTime: Jan21-2022 00:36:14  ShM Nodes: 1  Procs: 1  *
                      ************************************************************************
  
       *****************************
       *  TRANSITION STATE SEARCH  *
       *****************************

Optimization Method                    Quasi Newton
Optimization Coordinates               Delocalized Coordinates
Optimize lattice                       F
 
 ------------------------------------------------------
 Convergence criteria (Hartree,Angstrom)
 ------------------------------------------------------
 Maximum gradient               0.001000000000
 Maximum rms gradient           0.000666666667
 Maximum step allowed           0.010000000000
 Maximum rms step allowed       0.006666666667
 Maximum energy change allowe   0.000120000000
 Maximum stress energy allowe   0.000500000000
 
Initial model Hessian                  Automatic Hessian
 
------------------------------------
Quasi-Newton Optimizer Parameters
------------------------------------
Hessian Update Method                  Bofill
Maximum number of steps                  250
First GDIIS cycle                          0
Maximum GDIIS vectors                      0
Trust radius (bohr)                        0.200000
Trust radius varies                        F
Constraints converged at all steps         T
Use projector                              T
 
 Rigid motions settings for: old optimizer
 Atomic rotations (x,y,z):     T T T
 Atomic translations (x,y,z):  T T T
 Tolerance:                   1.000000000000000E-006
 
           1  TSRC entries:
    i   type      a1    a2    a3    a4    coef
    1 Distance     2     3               -1.000
 
--------
Geometry
--------
Formula: C4H5F2O
Atoms
  Index Symbol   x (angstrom)   y (angstrom)   z (angstrom)
      1      C     0.81668000    -0.23471900     0.88197500
      2      C     0.81678400    -0.23413100    -0.47719300
      3      C    -1.53160000    -0.46998000    -1.30857600
      4      H     0.85636200    -1.16386700     1.44859300
      5      C     0.73893400     1.00063500     1.66014300
      6      H    -1.75224300    -1.42324600    -0.84366900
      7      H     0.86540100     0.70149500    -1.02879400
      8      H    -1.29572100    -0.45322200    -2.36675600
      9      H    -1.93437200     0.42729600    -0.85485600
     10      O     0.73088900     1.05622100     2.88164900
     11      F     1.05157196    -1.41471295    -1.21149598
     12      F     0.67907420     2.18026153     0.89007934
 
Total System Charge             0.00000
 
 
----------------
ADF Engine Input
----------------
 
 NumericalQuality VeryGood
 SCF
 Converge 1.0e-6
 Iterations 99
 End
 SYMMETRY NOSYM
 SpinPolarization 1.0
 Unrestricted Yes
 XC
 GGA OLYP
 End
 basis
 core None
 type TZ2P
 End
 

 Title: *** (NO TITLE) ***

 Using automatic Hessian for delocalized coordinates.
 *** GOStep1 ***

 Energy gradients wrt nuclear displacements
 ==========================================

     Atom      Cartesian (a.u./angstrom)
                 X         Y         Z
 ----------------------------------------
     1 C    -0.000812 -0.001441  0.020712
     2 C    -0.010840  0.045306  0.008948
     3 C     0.013482 -0.005487  0.001980
     4 H    -0.000166 -0.006532  0.000649
     5 C     0.000380  0.000518 -0.063392
     6 H    -0.002149  0.000374 -0.000432
     7 H    -0.001717  0.014259  0.015519
     8 H    -0.001328  0.000324 -0.001004
     9 H     0.001158 -0.000764 -0.000000
    10 O     0.000315 -0.008893  0.076773
    11 F     0.002630 -0.067346 -0.042351
    12 F    -0.000954  0.029683 -0.017402
 ----------------------------------------
 Mulliken charges used for AMS results%charges...
           Primitive Internal Coordinates (atoms in internal order)
-------------------------------------------------------------------------------
    index    type      i       j       k       l   value(A,deg)     TSRC Vect
-------------------------------------------------------------------------------
       1     bnd       1       5       0       0     1.46208392    -0.00000000
       2     bnd       1       2       0       0     1.35916813     0.10315886
       3     bnd       3       9       0       0     1.08313958     0.00000000
       4     bnd       1       4       0       0     1.08901177    -0.00000000
       5     bnd       3       6       0       0     1.08329955     0.00000000
       6     bnd       2       7       0       0     1.08720894     0.00000000
       7     bnd       3       8       0       0     1.08428070    -0.00000000
       8     bnd       5      10       0       0     1.22279656    -0.00000000
       9     bnd       2      11       0       0     1.41000000     0.03676003
      10     bnd       5      12       0       0     1.41000000    -0.00000000
      11     bnd       2       3       0       0     2.50234487    -0.35887021
      12     bnd       3      11       0       0     2.75222133    -0.15957066
      13     bnd       1       3       0       0     3.21998143    -0.19387568
      14     ang       5       1       2       0   122.13193049     0.00530576
      15     ang       5       1       4       0   116.48149708    -0.01751154
      16     ang       5       1       3       0   112.64562536     0.00890526
      17     ang       2       1       4       0   121.37727346     0.01181694
      18     ang       2       1       3       0    47.13980479    -0.06057879
      19     ang       4       1       3       0   108.55407601     0.03621682
      20     ang       1       2       7       0   120.51279539     0.00310371
      21     ang       1       2      11       0   121.36128198    -0.02631792
      22     ang       1       2       3       0   109.39804563     0.03460659
      23     ang       7       2      11       0   116.67222795     0.00714605
      24     ang       7       2       3       0    87.39281970    -0.02244698
      25     ang      11       2       3       0    84.51010433     0.05535709
      26     ang       9       3       6       0   118.25885447    -0.00057754
      27     ang       9       3       8       0   118.48323850     0.00069000
      28     ang       9       3       2       0    97.56929804    -0.00386000
      29     ang       9       3      11       0   128.21390110     0.02572575
      30     ang       9       3       1       0    85.73843521    -0.01649501
      31     ang       6       3       8       0   118.47247906    -0.00035183
      32     ang       6       3       2       0    97.55621160     0.00784235
      33     ang       6       3      11       0    82.75975470    -0.00909544
      34     ang       6       3       1       0    85.46171991    -0.00608310
      35     ang       8       3       2       0    96.81291220    -0.00342000
      36     ang       8       3      11       0    80.53456734    -0.01606283
      37     ang       8       3       1       0   120.27444570     0.02255234
      38     ang      11       3       1       0    46.88964471     0.04580478
      39     ang       1       5      10       0   124.78014579    -0.00000000
      40     ang       1       5      12       0   114.73739867    -0.00000000
      41     ang      10       5      12       0   120.48134630     0.00000000
      42     ang       2      11       3       0    64.82849652    -0.08487942
      43     dih       2       1       5      10   179.74813341    -0.02997891
      44     dih       2       1       5      12    -0.63506953    -0.02997891
      45     dih       4       1       5      10     0.84367616    -0.00719439
      46     dih       4       1       5      12   180.46047323    -0.00719439
      47     dih       3       1       5      10   127.21624574     0.03717330
      48     dih       3       1       5      12   -53.16695720     0.03717330
      49     dih       5       1       2       7     6.57009342     0.02349142
      50     dih       5       1       2      11   172.35502844    -0.05271864
      51     dih       5       1       2       3   267.85385074     0.02752071
      52     dih       4       1       2       7   185.42152053    -0.00071568
      53     dih       4       1       2      11    -8.79354445    -0.07692573
      54     dih       4       1       2       3    86.70527785     0.00331362
      55     dih       3       1       2       7    98.71624268    -0.00402930
      56     dih       3       1       2      11   264.50117770    -0.08023936
      57     dih       1       2      11       3   109.40048400     0.07164399
      58     dih       7       2      11       3   -84.29422319    -0.00209407
      59     dih       1       2       3       9    60.36685908     0.00058381
      60     dih       1       2       3       6   -59.59533627     0.00026548
      61     dih       1       2       3       8   180.39271465    -0.00029465
      62     dih       1       2       3      11   238.63730923     0.00491410
      63     dih       7       2       3       9   -61.15415106     0.00027518
      64     dih       7       2       3       6   178.88365359    -0.00004315
      65     dih       7       2       3       8    58.87170451    -0.00060329
      66     dih       7       2       3      11   117.11629909     0.00460546
      67     dih       7       2       3       1   238.47898986    -0.00030863
      68     dih      11       2       3       9   181.72954985    -0.00433029
      69     dih      11       2       3       6    61.76735450    -0.00464862
      70     dih      11       2       3       8   -58.24459458    -0.00520875
      71     dih      11       2       3       1   121.36269077    -0.00491410
      72     dih       9       3      11       2     2.18228113    -0.00467341
      73     dih       6       3      11       2   241.69106591    -0.00441990
      74     dih       8       3      11       2   121.13490928    -0.01044677
      75     dih       1       3      11       2   -27.75476779    -0.01050167
      76     dih       5       1       3       9    -6.70885435     0.00031044
      77     dih       5       1       3       6   234.46351100    -0.00205957
      78     dih       5       1       3       8   113.97123608    -0.00348105
      79     dih       5       1       3       2   113.51971531    -0.00324925
      80     dih       5       1       3      11   150.13784247     0.00411839
      81     dih       2       1       3       9   239.77143035     0.00355969
      82     dih       2       1       3       6   120.94379569     0.00118967
      83     dih       2       1       3       8     0.45152078    -0.00023181
      84     dih       2       1       3      11    36.61812716     0.00736764
      85     dih       4       1       3       9   123.80841936     0.01411574
      86     dih       4       1       3       6     4.98078471     0.01174572
      87     dih       4       1       3       8   244.48850980     0.01032425
      88     dih       4       1       3       2   244.03698902     0.01055605
      89     dih       4       1       3      11   -79.34488382     0.01792369
Hessian eigenvector     1(     0.006) has overlap with TSRC:    0.71538E-04
Hessian eigenvector     2(     0.009) has overlap with TSRC:    0.43806E-01
Hessian eigenvector     3(     0.010) has overlap with TSRC:    0.46260E-01
Hessian eigenvector     4(     0.012) has overlap with TSRC:    0.78012E-01
Hessian eigenvector     5(     0.012) has overlap with TSRC:    0.19726E-01
Hessian eigenvector     6(     0.014) has overlap with TSRC:    0.34356E+00
Hessian eigenvector     7(     0.024) has overlap with TSRC:    0.11374E+00
Hessian eigenvector     8(     0.039) has overlap with TSRC:    0.11842E+00
Hessian eigenvector     9(     0.051) has overlap with TSRC:    0.61591E-02
Hessian eigenvector    10(     0.062) has overlap with TSRC:    0.90132E-02
Hessian eigenvector    11(     0.072) has overlap with TSRC:    0.25928E-01
Hessian eigenvector    12(     0.080) has overlap with TSRC:    0.26437E-01
Hessian eigenvector    13(     0.084) has overlap with TSRC:    0.18962E-01
Hessian eigenvector    14(     0.086) has overlap with TSRC:    0.21408E-01
Hessian eigenvector    15(     0.093) has overlap with TSRC:    0.14549E-01
Hessian eigenvector    16(     0.104) has overlap with TSRC:    0.21252E+00
Hessian eigenvector    17(     0.121) has overlap with TSRC:    0.16152E+00
Hessian eigenvector    18(     0.161) has overlap with TSRC:    0.12509E+00
Hessian eigenvector    19(     0.232) has overlap with TSRC:    0.12238E-07
Hessian eigenvector    20(     0.253) has overlap with TSRC:    0.32722E-09
Hessian eigenvector    21(     0.457) has overlap with TSRC:    0.30996E-01
Hessian eigenvector    22(     0.466) has overlap with TSRC:    0.88586E-01
Hessian eigenvector    23(     0.500) has overlap with TSRC:    0.49385E-15
Hessian eigenvector    24(     0.501) has overlap with TSRC:    0.76057E-16
Hessian eigenvector    25(     0.503) has overlap with TSRC:    0.24514E-15
Hessian eigenvector    26(     0.503) has overlap with TSRC:    0.11261E-14
Hessian eigenvector    27(     0.503) has overlap with TSRC:    0.58178E-15
Hessian eigenvector    28(     0.526) has overlap with TSRC:    0.32869E-14
Hessian eigenvector    29(     0.528) has overlap with TSRC:    0.20381E-14
Hessian eigenvector    30(     0.601) has overlap with TSRC:    0.46122E-15
Hessian eigenvector     6 has the largest overlap with TSRC:  0.34356
           Primitive Internal Coordinates (atoms in internal order)
-------------------------------------------------------------------------------
    index    type      i       j       k       l   value(A,deg)     Max Ovl Vect
-------------------------------------------------------------------------------
       1     bnd       1       5       0       0     1.46208392     0.00000000
       2     bnd       1       2       0       0     1.35916813     0.01223644
       3     bnd       3       9       0       0     1.08313958    -0.00000000
       4     bnd       1       4       0       0     1.08901177     0.00000000
       5     bnd       3       6       0       0     1.08329955     0.00000000
       6     bnd       2       7       0       0     1.08720894    -0.00000000
       7     bnd       3       8       0       0     1.08428070    -0.00000000
       8     bnd       5      10       0       0     1.22279656     0.00000000
       9     bnd       2      11       0       0     1.41000000     0.00216706
      10     bnd       5      12       0       0     1.41000000     0.00000000
      11     bnd       2       3       0       0     2.50234487    -0.48587083
      12     bnd       3      11       0       0     2.75222133    -0.04044336
      13     bnd       1       3       0       0     3.21998143    -0.07614055
      14     ang       5       1       2       0   122.13193049     0.00319383
      15     ang       5       1       4       0   116.48149708     0.01557848
      16     ang       5       1       3       0   112.64562536     0.01405798
      17     ang       2       1       4       0   121.37727346    -0.01917350
      18     ang       2       1       3       0    47.13980479    -0.17004540
      19     ang       4       1       3       0   108.55407601     0.10070105
      20     ang       1       2       7       0   120.51279539    -0.03013309
      21     ang       1       2      11       0   121.36128198    -0.01808003
      22     ang       1       2       3       0   109.39804563     0.19186979
      23     ang       7       2      11       0   116.67222795    -0.04613789
      24     ang       7       2       3       0    87.39281970     0.03079123
      25     ang      11       2       3       0    84.51010433     0.15616046
      26     ang       9       3       6       0   118.25885447    -0.00020646
      27     ang       9       3       8       0   118.48323850    -0.00122918
      28     ang       9       3       2       0    97.56929804    -0.00512420
      29     ang       9       3      11       0   128.21390110     0.00834285
      30     ang       9       3       1       0    85.73843521    -0.00383242
      31     ang       6       3       8       0   118.47247906     0.00157633
      32     ang       6       3       2       0    97.55621160    -0.00748125
      33     ang       6       3      11       0    82.75975470    -0.00002680
      34     ang       6       3       1       0    85.46171991     0.01307711
      35     ang       8       3       2       0    96.81291220     0.01227357
      36     ang       8       3      11       0    80.53456734    -0.00791925
      37     ang       8       3       1       0   120.27444570    -0.00946001
      38     ang      11       3       1       0    46.88964471     0.00806146
      39     ang       1       5      10       0   124.78014579     0.00007165
      40     ang       1       5      12       0   114.73739867     0.00008236
      41     ang      10       5      12       0   120.48134630     0.00007142
      42     ang       2      11       3       0    64.82849652    -0.17015055
      43     dih       2       1       5      10   179.74813341    -0.18140002
      44     dih       2       1       5      12    -0.63506953    -0.14246150
      45     dih       4       1       5      10     0.84367616    -0.15756240
      46     dih       4       1       5      12   180.46047323    -0.11862388
      47     dih       3       1       5      10   127.21624574     0.01277347
      48     dih       3       1       5      12   -53.16695720     0.05171199
      49     dih       5       1       2       7     6.57009342     0.23253219
      50     dih       5       1       2      11   172.35502844    -0.22747774
      51     dih       5       1       2       3   267.85385074     0.08293770
      52     dih       4       1       2       7   185.42152053     0.20793043
      53     dih       4       1       2      11    -8.79354445    -0.25207950
      54     dih       4       1       2       3    86.70527785     0.05833594
      55     dih       3       1       2       7    98.71624268     0.14959449
      56     dih       3       1       2      11   264.50117770    -0.31041545
      57     dih       1       2      11       3   109.40048400     0.31931779
      58     dih       7       2      11       3   -84.29422319    -0.12186114
      59     dih       1       2       3       9    60.36685908    -0.02911053
      60     dih       1       2       3       6   -59.59533627    -0.02600023
      61     dih       1       2       3       8   180.39271465    -0.02874772
      62     dih       1       2       3      11   238.63730923    -0.05557354
      63     dih       7       2       3       9   -61.15415106    -0.03983578
      64     dih       7       2       3       6   178.88365359    -0.03672548
      65     dih       7       2       3       8    58.87170451    -0.03947296
      66     dih       7       2       3      11   117.11629909    -0.06629879
      67     dih       7       2       3       1   238.47898986    -0.01072525
      68     dih      11       2       3       9   181.72954985     0.02646301
      69     dih      11       2       3       6    61.76735450     0.02957331
      70     dih      11       2       3       8   -58.24459458     0.02682582
      71     dih      11       2       3       1   121.36269077     0.05557354
      72     dih       9       3      11       2     2.18228113     0.03367229
      73     dih       6       3      11       2   241.69106591     0.03132777
      74     dih       8       3      11       2   121.13490928     0.02772833
      75     dih       1       3      11       2   -27.75476779     0.04825680
      76     dih       5       1       3       9    -6.70885435    -0.04276853
      77     dih       5       1       3       6   234.46351100    -0.04138054
      78     dih       5       1       3       8   113.97123608    -0.04911572
      79     dih       5       1       3       2   113.51971531    -0.01600800
      80     dih       5       1       3      11   150.13784247    -0.02925171
      81     dih       2       1       3       9   239.77143035    -0.02676052
      82     dih       2       1       3       6   120.94379569    -0.02537253
      83     dih       2       1       3       8     0.45152078    -0.03310772
      84     dih       2       1       3      11    36.61812716    -0.01324371
      85     dih       4       1       3       9   123.80841936     0.07356355
      86     dih       4       1       3       6     4.98078471     0.07495154
      87     dih       4       1       3       8   244.48850980     0.06721635
      88     dih       4       1       3       2   244.03698902     0.10032407
      89     dih       4       1       3      11   -79.34488382     0.08708036
 
----------------------------------------------------------------------
Geometry Convergence after Step   1       (Hartree/Angstrom,Angstrom)
----------------------------------------------------------------------
current energy                               -2.36448252 Hartree
energy change                      -2.36448252     0.00012000    F
constrained gradient max            0.07676766     0.00100000    F
constrained gradient rms            0.02410082     0.00066667    F
gradient max                        0.07676766
gradient rms                        0.02410082
cart. step max                      0.05016184     0.01000000    F
cart. step rms                      0.01818647     0.00666667    F
 
 
--------
Geometry
--------
Formula: C4H5F2O
Atoms
  Index Symbol   x (angstrom)   y (angstrom)   z (angstrom)
      1      C     0.82368248    -0.23917561     0.87866615
      2      C     0.81307604    -0.23225803    -0.47207676
      3      C    -1.53524435    -0.45570545    -1.30241901
      4      H     0.87606584    -1.16642035     1.44112023
      5      C     0.73631057     0.97962822     1.66628410
      6      H    -1.74925514    -1.40826292    -0.83288792
      7      H     0.87501479     0.67504424    -1.06354356
      8      H    -1.29107542    -0.44333205    -2.35839362
      9      H    -1.94266012     0.44274756    -0.85382997
     10      O     0.72034799     1.07025509     2.85049225
     11      F     1.06534559    -1.38058982    -1.16963988
     12      F     0.65015188     2.13009969     0.88732733
 
Total System Charge             0.00000
 
 *** GOStep2 ***

 Energy gradients wrt nuclear displacements
 ==========================================

     Atom      Cartesian (a.u./angstrom)
                 X         Y         Z
 ----------------------------------------
     1 C     0.000559 -0.000762  0.004811
     2 C    -0.016031  0.023597  0.007807
     3 C     0.013866 -0.005340  0.001420
     4 H    -0.000577 -0.000862  0.001285
     5 C     0.005250  0.002896  0.020983
     6 H    -0.001660  0.000213 -0.000391
     7 H     0.002196  0.005344  0.006427
     8 H    -0.001062  0.000163 -0.000389
     9 H     0.000795 -0.000000  0.000386
    10 O    -0.001469 -0.004104 -0.027765
    11 F    -0.000844 -0.024625 -0.015042
    12 F    -0.001024  0.003480  0.000467
 ----------------------------------------
 Mulliken charges used for AMS results%charges...
Hessian eigenvector     1(     0.006) has overlap with TSRC:    0.90212E-02
Hessian eigenvector     2(     0.007) has overlap with TSRC:    0.47579E-02
Hessian eigenvector     3(     0.009) has overlap with TSRC:    0.13278E-01
Hessian eigenvector     4(     0.011) has overlap with TSRC:    0.13818E+00
Hessian eigenvector     5(     0.012) has overlap with TSRC:    0.11770E-01
Hessian eigenvector     6(     0.017) has overlap with TSRC:    0.33127E+00
Hessian eigenvector     7(     0.026) has overlap with TSRC:    0.56753E-01
Hessian eigenvector     8(     0.040) has overlap with TSRC:    0.12604E+00
Hessian eigenvector     9(     0.050) has overlap with TSRC:    0.40183E-01
Hessian eigenvector    10(     0.054) has overlap with TSRC:    0.54476E-01
Hessian eigenvector    11(     0.062) has overlap with TSRC:    0.23449E-01
Hessian eigenvector    12(     0.080) has overlap with TSRC:    0.27677E-01
Hessian eigenvector    13(     0.082) has overlap with TSRC:    0.36020E-02
Hessian eigenvector    14(     0.087) has overlap with TSRC:    0.27643E-01
Hessian eigenvector    15(     0.093) has overlap with TSRC:    0.13988E-01
Hessian eigenvector    16(     0.104) has overlap with TSRC:    0.20938E+00
Hessian eigenvector    17(     0.119) has overlap with TSRC:    0.17996E+00
Hessian eigenvector    18(     0.152) has overlap with TSRC:    0.11209E+00
Hessian eigenvector    19(     0.227) has overlap with TSRC:    0.13374E-01
Hessian eigenvector    20(     0.252) has overlap with TSRC:    0.73851E-02
Hessian eigenvector    21(     0.403) has overlap with TSRC:    0.24665E-01
Hessian eigenvector    22(     0.466) has overlap with TSRC:    0.87188E-01
Hessian eigenvector    23(     0.500) has overlap with TSRC:    0.13342E-02
Hessian eigenvector    24(     0.501) has overlap with TSRC:    0.87380E-03
Hessian eigenvector    25(     0.503) has overlap with TSRC:    0.11917E-03
Hessian eigenvector    26(     0.503) has overlap with TSRC:    0.18731E-04
Hessian eigenvector    27(     0.503) has overlap with TSRC:    0.15121E-03
Hessian eigenvector    28(     0.526) has overlap with TSRC:    0.15496E-02
Hessian eigenvector    29(     0.527) has overlap with TSRC:    0.39166E-02
Hessian eigenvector    30(     0.652) has overlap with TSRC:    0.90091E-03
Hessian eigenvector     6 has the largest overlap with TSRC:  0.33127
           Primitive Internal Coordinates (atoms in internal order)
-------------------------------------------------------------------------------
    index    type      i       j       k       l   value(A,deg)     Max Ovl Vect
-------------------------------------------------------------------------------
       1     bnd       1       5       0       0     1.45377394     0.00304073
       2     bnd       1       2       0       0     1.35080227     0.01405924
       3     bnd       3       9       0       0     1.08371470     0.00010127
       4     bnd       1       4       0       0     1.08576306    -0.00144573
       5     bnd       3       6       0       0     1.08334011     0.00002750
       6     bnd       2       7       0       0     1.08483491    -0.00117095
       7     bnd       3       8       0       0     1.08390679    -0.00012472
       8     bnd       5      10       0       0     1.18777817     0.03397993
       9     bnd       2      11       0       0     1.36707722    -0.03308365
      10     bnd       5      12       0       0     1.39204223    -0.00141546
      11     bnd       2       3       0       0     2.50080100    -0.47172529
      12     bnd       3      11       0       0     2.76335112    -0.01468066
      13     bnd       1       3       0       0     3.22002383    -0.07753763
      14     ang       5       1       2       0   122.47867158     0.01688497
      15     ang       5       1       4       0   115.99025323     0.01090132
      16     ang       5       1       3       0   112.29153554    -0.01788936
      17     ang       2       1       4       0   121.51730219    -0.02890454
      18     ang       2       1       3       0    46.94275775    -0.16342765
      19     ang       4       1       3       0   109.19608926     0.09930212
      20     ang       1       2       7       0   123.30010868    -0.03856429
      21     ang       1       2      11       0   120.29721984     0.01551531
      22     ang       1       2       3       0   109.81179219     0.18357698
      23     ang       7       2      11       0   114.44317474    -0.04608870
      24     ang       7       2       3       0    86.97994445    -0.07793184
      25     ang      11       2       3       0    85.91741389     0.16801534
      26     ang       9       3       6       0   118.37849842     0.00198309
      27     ang       9       3       8       0   118.58703622    -0.00297575
      28     ang       9       3       2       0    98.13500434     0.00638364
      29     ang       9       3      11       0   127.69015518     0.00948157
      30     ang       9       3       1       0    86.51884115    -0.00256231
      31     ang       6       3       8       0   118.47531294     0.00453105
      32     ang       6       3       2       0    96.90136374    -0.02239100
      33     ang       6       3      11       0    82.57633167    -0.00295277
      34     ang       6       3       1       0    84.85222306     0.00734004
      35     ang       8       3       2       0    96.36845841     0.00777646
      36     ang       8       3      11       0    80.71376805    -0.01265701
      37     ang       8       3       1       0   119.61049746    -0.01220190
      38     ang      11       3       1       0    45.61536417     0.00975674
      39     ang       1       5      10       0   127.22318621     0.00884930
      40     ang       1       5      12       0   113.16860014    -0.01214065
      41     ang      10       5      12       0   119.60422762     0.00477631
      42     ang       2      11       3       0    64.51421537    -0.17190111
      43     dih       2       1       5      10   178.92096357    -0.28339499
      44     dih       2       1       5      12    -0.34249837    -0.02688830
      45     dih       4       1       5      10     0.25299049    -0.21720135
      46     dih       4       1       5      12   180.98952855     0.03930534
      47     dih       3       1       5      10   126.78019123    -0.08258196
      48     dih       3       1       5      12   -52.48327071     0.17392473
      49     dih       5       1       2       7     8.58608019     0.14415156
      50     dih       5       1       2      11   171.76249306    -0.19469866
      51     dih       5       1       2       3   268.81903033     0.13893231
      52     dih       4       1       2       7   187.18155932     0.07521526
      53     dih       4       1       2      11    -9.64202781    -0.26363496
      54     dih       4       1       2       3    87.41450946     0.06999600
      55     dih       3       1       2       7    99.76704986     0.00521925
      56     dih       3       1       2      11   262.94346273    -0.33363097
      57     dih       1       2      11       3   110.59991459     0.32060771
      58     dih       7       2      11       3   -84.80981846    -0.00524039
      59     dih       1       2       3       9    60.77769592    -0.05434057
      60     dih       1       2       3       6   -59.28392816    -0.05271214
      61     dih       1       2       3       8   180.93080069    -0.05430814
      62     dih       1       2       3      11   239.21118879    -0.09470312
      63     dih       7       2       3       9   -63.65029459    -0.01280142
      64     dih       7       2       3       6   176.28808132    -0.01117299
      65     dih       7       2       3       8    56.50281018    -0.01276899
      66     dih       7       2       3      11   114.78319828    -0.05316397
      67     dih       7       2       3       1   235.57200949     0.04153915
      68     dih      11       2       3       9   181.56650713     0.04036255
      69     dih      11       2       3       6    61.50488305     0.04199098
      70     dih      11       2       3       8   -58.28038809     0.04039498
      71     dih      11       2       3       1   120.78881121     0.09470312
      72     dih       9       3      11       2     1.95980935     0.05118925
      73     dih       6       3      11       2   241.62609922     0.04806776
      74     dih       8       3      11       2   121.06212761     0.03943467
      75     dih       1       3      11       2   -28.32130160     0.05961157
      76     dih       5       1       3       9    -5.77310775    -0.02462572
      77     dih       5       1       3       6   235.30732336    -0.02602362
      78     dih       5       1       3       8   115.34566859    -0.03295162
      79     dih       5       1       3       2   114.28164210     0.02955254
      80     dih       5       1       3      11   150.66374780    -0.01526091
      81     dih       2       1       3       9   239.94525014    -0.05417826
      82     dih       2       1       3       6   121.02568126    -0.05557617
      83     dih       2       1       3       8     1.06402649    -0.06250416
      84     dih       2       1       3      11    36.38210570    -0.04481345
      85     dih       4       1       3       9   124.33471676     0.05874764
      86     dih       4       1       3       6     5.41514787     0.05734973
      87     dih       4       1       3       8   245.45349310     0.05042174
      88     dih       4       1       3       2   244.38946661     0.11292590
      89     dih       4       1       3      11   -79.22842769     0.06811245
 
----------------------------------------------------------------------
Geometry Convergence after Step   2       (Hartree/Angstrom,Angstrom)
----------------------------------------------------------------------
current energy                               -2.36980806 Hartree
energy change                      -0.00532555     0.00012000    F
constrained gradient max            0.02777189     0.00100000    F
constrained gradient rms            0.00959868     0.00066667    F
gradient max                        0.02777189
gradient rms                        0.00959868
cart. step max                      0.04678584     0.01000000    F
cart. step rms                      0.01874658     0.00666667    F
 
 
--------
Geometry
--------
Formula: C4H5F2O
Atoms
  Index Symbol   x (angstrom)   y (angstrom)   z (angstrom)
      1      C     0.83877884    -0.23846740     0.87173251
      2      C     0.81003810    -0.24609849    -0.47857412
      3      C    -1.53477333    -0.43573963    -1.29502455
      4      H     0.91780051    -1.16473227     1.43046310
      5      C     0.72063091     0.97157476     1.67028022
      6      H    -1.74657957    -1.38506453    -0.81796227
      7      H     0.87912128     0.63198190    -1.11032940
      8      H    -1.28589053    -0.43196666    -2.34985193
      9      H    -1.93747606     0.46756313    -0.85166532
     10      O     0.70169188     1.07353059     2.86926419
     11      F     1.07394253    -1.37984745    -1.14848592
     12      F     0.60447560     2.10929661     0.88125287
 
Total System Charge             0.00000
 
 *** GOStep3 ***

 Energy gradients wrt nuclear displacements
 ==========================================

     Atom      Cartesian (a.u./angstrom)
                 X         Y         Z
 ----------------------------------------
     1 C     0.003217 -0.004393 -0.008782
     2 C    -0.016213  0.001258  0.004097
     3 C     0.011736 -0.004651  0.000387
     4 H    -0.000209  0.001269  0.000776
     5 C     0.005058 -0.001220 -0.014260
     6 H    -0.000961  0.000026 -0.000282
     7 H     0.005243 -0.002002 -0.000679
     8 H    -0.000635 -0.000009 -0.000130
     9 H     0.000754  0.000313  0.000582
    10 O    -0.002365  0.002422  0.020971
    11 F    -0.004886  0.006488  0.000010
    12 F    -0.000739  0.000499 -0.002692
 ----------------------------------------
 Mulliken charges used for AMS results%charges...
Hessian eigenvector     1(    -0.005) has overlap with TSRC:    0.12091E+00
Hessian eigenvector     1 has the largest overlap with TSRC:  0.12091
           Primitive Internal Coordinates (atoms in internal order)
-------------------------------------------------------------------------------
    index    type      i       j       k       l   value(A,deg)     Max Ovl Vect
-------------------------------------------------------------------------------
       1     bnd       1       5       0       0     1.45459253     0.01027551
       2     bnd       1       2       0       0     1.35063402    -0.01839996
       3     bnd       3       9       0       0     1.08383245     0.00081146
       4     bnd       1       4       0       0     1.08461556    -0.00223530
       5     bnd       3       6       0       0     1.08335961     0.00014820
       6     bnd       2       7       0       0     1.08393376    -0.00293221
       7     bnd       3       8       0       0     1.08379780    -0.00009991
       8     bnd       5      10       0       0     1.20346011     0.05181766
       9     bnd       2      11       0       0     1.34306146    -0.00126716
      10     bnd       5      12       0       0     1.38941254     0.00609371
      11     bnd       2       3       0       0     2.49011962     0.17601474
      12     bnd       3      11       0       0     2.77816695    -0.06949835
      13     bnd       1       3       0       0     3.21986062     0.03141000
      14     ang       5       1       2       0   123.49212867    -0.06609766
      15     ang       5       1       4       0   115.69235176    -0.00866938
      16     ang       5       1       3       0   111.13226856     0.17998521
      17     ang       2       1       4       0   120.77993088     0.07621453
      18     ang       2       1       3       0    46.46445572     0.05823796
      19     ang       4       1       3       0   110.36757227    -0.15688925
      20     ang       1       2       7       0   125.22306341    -0.00317748
      21     ang       1       2      11       0   119.95117690    -0.01426723
      22     ang       1       2       3       0   110.38120091    -0.06242918
      23     ang       7       2      11       0   112.37074769     0.02915968
      24     ang       7       2       3       0    86.02110380     0.11361473
      25     ang      11       2       3       0    87.54682877    -0.09138198
      26     ang       9       3       6       0   118.52512598    -0.00435744
      27     ang       9       3       8       0   118.72158166    -0.00379322
      28     ang       9       3       2       0    98.75893856    -0.02507115
      29     ang       9       3      11       0   127.62869789    -0.02301103
      30     ang       9       3       1       0    86.99390206    -0.00041933
      31     ang       6       3       8       0   118.45906002    -0.00039863
      32     ang       6       3       2       0    96.11091441     0.02918117
      33     ang       6       3      11       0    82.10083465     0.03515726
      34     ang       6       3       1       0    84.34595864    -0.00099417
      35     ang       8       3       2       0    95.88933775     0.01575480
      36     ang       8       3      11       0    80.61235030     0.00696623
      37     ang       8       3       1       0   119.04214582     0.01973412
      38     ang      11       3       1       0    45.01901042    -0.00728249
      39     ang       1       5      10       0   128.22096132     0.01793635
      40     ang       1       5      12       0   112.09934942    -0.02344844
      41     ang      10       5      12       0   119.67539494     0.00592866
      42     ang       2      11       3       0    63.57221685     0.08894879
      43     dih       2       1       5      10   177.96519580     0.07948869
      44     dih       2       1       5      12    -1.26840787     0.15144991
      45     dih       4       1       5      10     0.12434016    -0.00665973
      46     dih       4       1       5      12   180.89073648     0.06530150
      47     dih       3       1       5      10   126.99605945    -0.07128376
      48     dih       3       1       5      12   -52.23754422     0.00067746
      49     dih       5       1       2       7    11.74167990    -0.26289945
      50     dih       5       1       2      11   172.56861923    -0.20250528
      51     dih       5       1       2       3   271.85549615    -0.36218960
      52     dih       4       1       2       7   189.47694039    -0.17359837
      53     dih       4       1       2      11    -9.69612027    -0.11320421
      54     dih       4       1       2       3    89.59075665    -0.27288852
      55     dih       3       1       2       7    99.88618374     0.09929016
      56     dih       3       1       2      11   260.71312308     0.15968432
      57     dih       1       2      11       3   112.18671299    -0.13101171
      58     dih       7       2      11       3   -84.67887460    -0.07694221
      59     dih       1       2       3       9    60.31582852     0.07326587
      60     dih       1       2       3       6   -59.84545456     0.07682609
      61     dih       1       2       3       8   180.62709104     0.06747441
      62     dih       1       2       3      11   238.85694571     0.05389728
      63     dih       7       2       3       9   -65.90682512     0.04306365
      64     dih       7       2       3       6   173.93189179     0.04662386
      65     dih       7       2       3       8    54.40443740     0.03727219
      66     dih       7       2       3      11   112.63429206     0.02369505
      67     dih       7       2       3       1   233.77734635    -0.03020223
      68     dih      11       2       3       9   181.45888281     0.01936859
      69     dih      11       2       3       6    61.29759973     0.02292881
      70     dih      11       2       3       8   -58.22985467     0.01357713
      71     dih      11       2       3       1   121.14305429    -0.05389728
      72     dih       9       3      11       2     1.82068824     0.02387954
      73     dih       6       3      11       2   241.70232122     0.00737731
      74     dih       8       3      11       2   121.00086173     0.01895018
      75     dih       1       3      11       2   -28.41020762    -0.02595627
      76     dih       5       1       3       9    -4.03533653    -0.15943309
      77     dih       5       1       3       6   236.90375589    -0.15520927
      78     dih       5       1       3       8   117.38181403    -0.15907574
      79     dih       5       1       3       2   116.66831593    -0.23673030
      80     dih       5       1       3      11   152.43009943    -0.20420052
      81     dih       2       1       3       9   239.29634754     0.07729720
      82     dih       2       1       3       6   120.23543996     0.08152102
      83     dih       2       1       3       8     0.71349810     0.07765455
      84     dih       2       1       3      11    35.76178350     0.03252978
      85     dih       4       1       3       9   125.70342537    -0.15856368
      86     dih       4       1       3       6     6.64251779    -0.15433986
      87     dih       4       1       3       8   247.12057593    -0.15820633
      88     dih       4       1       3       2   246.40707783    -0.23586088
      89     dih       4       1       3      11   -77.83113867    -0.20333110
 
----------------------------------------------------------------------
Geometry Convergence after Step   3       (Hartree/Angstrom,Angstrom)
----------------------------------------------------------------------
current energy                               -2.37051609 Hartree
energy change                      -0.00070803     0.00012000    F
constrained gradient max            0.02096562     0.00100000    F
constrained gradient rms            0.00610065     0.00066667    F
gradient max                        0.02096562
gradient rms                        0.00610065
cart. step max                      0.03449766     0.01000000    F
cart. step rms                      0.01382500     0.00666667    F
 
 
--------
Geometry
--------
Formula: C4H5F2O
Atoms
  Index Symbol   x (angstrom)   y (angstrom)   z (angstrom)
      1      C     0.83122211    -0.23588409     0.87190477
      2      C     0.84453576    -0.23018918    -0.47725848
      3      C    -1.54935513    -0.44804989    -1.29827780
      4      H     0.88446634    -1.16453299     1.42985571
      5      C     0.71800478     0.97233016     1.67301654
      6      H    -1.75147614    -1.39884163    -0.81994583
      7      H     0.90836342     0.65065593    -1.10585262
      8      H    -1.30308477    -0.44347909    -2.35371707
      9      H    -1.95926679     0.45190837    -0.85475832
     10      O     0.71009282     1.07155275     2.86919666
     11      F     1.07286929    -1.36940733    -1.15201712
     12      F     0.63538847     2.11596755     0.88895293
 
Total System Charge             0.00000
 
 *** GOStep4 ***

 Energy gradients wrt nuclear displacements
 ==========================================

     Atom      Cartesian (a.u./angstrom)
                 X         Y         Z
 ----------------------------------------
     1 C     0.002172 -0.004982 -0.004733
     2 C    -0.011480  0.007050 -0.000581
     3 C     0.015868 -0.004373  0.002945
     4 H    -0.000087  0.001481  0.001750
     5 C    -0.003608 -0.002969 -0.008432
     6 H    -0.001577  0.000028 -0.000583
     7 H     0.003647 -0.001059 -0.000522
     8 H    -0.000848 -0.000151 -0.000157
     9 H     0.000236  0.000108  0.000382
    10 O     0.001424  0.002349  0.012295
    11 F    -0.007119  0.002186 -0.000710
    12 F     0.001371  0.000332 -0.001655
 ----------------------------------------
 Mulliken charges used for AMS results%charges...
Hessian eigenvector     1(    -0.007) has overlap with TSRC:    0.26809E+00
Hessian eigenvector     1 has the largest overlap with TSRC:  0.26809
           Primitive Internal Coordinates (atoms in internal order)
-------------------------------------------------------------------------------
    index    type      i       j       k       l   value(A,deg)     Max Ovl Vect
-------------------------------------------------------------------------------
       1     bnd       1       5       0       0     1.45409076     0.00903758
       2     bnd       1       2       0       0     1.34924095    -0.02948777
       3     bnd       3       9       0       0     1.08381824     0.00040078
       4     bnd       1       4       0       0     1.08468105    -0.00176172
       5     bnd       3       6       0       0     1.08335558     0.00013367
       6     bnd       2       7       0       0     1.08401692    -0.00263226
       7     bnd       3       8       0       0     1.08379982     0.00003015
       8     bnd       5      10       0       0     1.20031438     0.02863735
       9     bnd       2      11       0       0     1.34359719    -0.01838364
      10     bnd       5      12       0       0     1.38905999     0.00215958
      11     bnd       2       3       0       0     2.54012787     0.38193769
      12     bnd       3      11       0       0     2.78322701     0.02865542
      13     bnd       1       3       0       0     3.22828974     0.09131660
      14     ang       5       1       2       0   123.24128497    -0.03528916
      15     ang       5       1       4       0   115.58218187    -0.00399271
      16     ang       5       1       3       0   111.56479643     0.11809271
      17     ang       2       1       4       0   121.16412814     0.04068708
      18     ang       2       1       3       0    48.34478353     0.11903352
      19     ang       4       1       3       0   109.00950747    -0.15250509
      20     ang       1       2       7       0   125.72194441     0.01464643
      21     ang       1       2      11       0   120.01801504     0.00792567
      22     ang       1       2       3       0   108.27267467    -0.12693659
      23     ang       7       2      11       0   112.81459044     0.02246861
      24     ang       7       2       3       0    86.43140585     0.06872051
      25     ang      11       2       3       0    85.70539299    -0.12111474
      26     ang       9       3       6       0   118.52280093     0.00147794
      27     ang       9       3       8       0   118.74743106     0.00090273
      28     ang       9       3       2       0    98.79798981    -0.01031669
      29     ang       9       3      11       0   127.56845342    -0.02459732
      30     ang       9       3       1       0    87.08993882     0.00326359
      31     ang       6       3       8       0   118.42901459     0.00320206
      32     ang       6       3       2       0    96.22255101     0.00093815
      33     ang       6       3      11       0    82.07031380     0.00869403
      34     ang       6       3       1       0    84.17127019    -0.02019007
      35     ang       8       3       2       0    95.75374688    -0.00358350
      36     ang       8       3      11       0    80.70531354     0.00426934
      37     ang       8       3       1       0   119.13112782     0.00417157
      38     ang      11       3       1       0    44.90125232    -0.01752200
      39     ang       1       5      10       0   128.18758924     0.00500422
      40     ang       1       5      12       0   112.19448231    -0.00843290
      41     ang      10       5      12       0   119.60788194     0.00536541
      42     ang       2      11       3       0    65.51821880     0.13537242
      43     dih       2       1       5      10   180.78381853    -0.03604203
      44     dih       2       1       5      12    -0.38892961     0.29850366
      45     dih       4       1       5      10     2.05361279    -0.11928529
      46     dih       4       1       5      12   180.88086465     0.21526039
      47     dih       3       1       5      10   127.32945672    -0.23083339
      48     dih       3       1       5      12   -53.84329142     0.10371230
      49     dih       5       1       2       7     8.72152694    -0.26884488
      50     dih       5       1       2      11   173.98344429    -0.04918510
      51     dih       5       1       2       3   269.70507993    -0.27831669
      52     dih       4       1       2       7   187.38304587    -0.18210851
      53     dih       4       1       2      11    -7.35503678     0.03755128
      54     dih       4       1       2       3    88.36659886    -0.19158032
      55     dih       3       1       2       7    99.01644701     0.00947181
      56     dih       3       1       2      11   264.27836437     0.22913160
      57     dih       1       2      11       3   108.64730483    -0.22260906
      58     dih       7       2      11       3   -84.30076878    -0.01195782
      59     dih       1       2       3       9    60.83002063     0.04917935
      60     dih       1       2       3       6   -59.36420103     0.04980453
      61     dih       1       2       3       8   181.14378893     0.04709708
      62     dih       1       2       3      11   239.76647041     0.04736283
      63     dih       7       2       3       9   -65.71531953     0.02763516
      64     dih       7       2       3       6   174.09045881     0.02826035
      65     dih       7       2       3       8    54.59844878     0.02555289
      66     dih       7       2       3      11   113.22113025     0.02581864
      67     dih       7       2       3       1   233.45465984    -0.02154419
      68     dih      11       2       3       9   181.06355022     0.00181652
      69     dih      11       2       3       6    60.86932857     0.00244170
      70     dih      11       2       3       8   -58.62268147    -0.00026575
      71     dih      11       2       3       1   120.23352959    -0.04736283
      72     dih       9       3      11       2     1.32606098     0.00160671
      73     dih       6       3      11       2   241.25261685     0.00015234
      74     dih       8       3      11       2   120.59833061     0.00019730
      75     dih       1       3      11       2   -29.06177904    -0.03340493
      76     dih       5       1       3       9    -4.29649284    -0.09021620
      77     dih       5       1       3       6   236.63866815    -0.09388074
      78     dih       5       1       3       8   117.23562416    -0.08599071
      79     dih       5       1       3       2   115.93277504    -0.14016307
      80     dih       5       1       3      11   152.03353382    -0.12439235
      81     dih       2       1       3       9   239.77073212     0.04994686
      82     dih       2       1       3       6   120.70589311     0.04628233
      83     dih       2       1       3       8     1.30284912     0.05417236
      84     dih       2       1       3      11    36.10075878     0.01577072
      85     dih       4       1       3       9   124.55064767    -0.12878320
      86     dih       4       1       3       6     5.48580866    -0.13244773
      87     dih       4       1       3       8   246.08276467    -0.12455771
      88     dih       4       1       3       2   244.77991555    -0.17873006
      89     dih       4       1       3      11   -79.11932568    -0.16295935
 
----------------------------------------------------------------------
Geometry Convergence after Step   4       (Hartree/Angstrom,Angstrom)
----------------------------------------------------------------------
current energy                               -2.37100076 Hartree
energy change                      -0.00048467     0.00012000    F
constrained gradient max            0.01586024     0.00100000    F
constrained gradient rms            0.00485758     0.00066667    F
gradient max                        0.01586024
gradient rms                        0.00485758
cart. step max                      0.06171925     0.01000000    F
cart. step rms                      0.02172237     0.00666667    F
 
 
--------
Geometry
--------
Formula: C4H5F2O
Atoms
  Index Symbol   x (angstrom)   y (angstrom)   z (angstrom)
      1      C     0.85444646    -0.23371468     0.86631745
      2      C     0.86286196    -0.24944850    -0.48380555
      3      C    -1.54552380    -0.42511748    -1.28552826
      4      H     0.94081417    -1.16049622     1.42372192
      5      C     0.68890593     0.96745551     1.66668336
      6      H    -1.75458815    -1.37108040    -0.80068848
      7      H     0.91813881     0.61903845    -1.13070364
      8      H    -1.30259597    -0.42952711    -2.34175620
      9      H    -1.94060955     0.48235044    -0.84409506
     10      O     0.67665176     1.06073804     2.85652857
     11      F     1.06958931    -1.40026775    -1.14529648
     12      F     0.57366922     2.11210028     0.88972171
 
Total System Charge             0.00000
 
 *** GOStep5 ***

 Energy gradients wrt nuclear displacements
 ==========================================

     Atom      Cartesian (a.u./angstrom)
                 X         Y         Z
 ----------------------------------------
     1 C     0.002148  0.000934  0.000494
     2 C    -0.007552  0.003363 -0.001478
     3 C     0.015805 -0.003795  0.003182
     4 H     0.001720  0.000973  0.000396
     5 C    -0.010120 -0.002877  0.008853
     6 H    -0.001367 -0.000025 -0.000549
     7 H     0.003917 -0.001369 -0.001234
     8 H    -0.000610 -0.000229 -0.000133
     9 H     0.000174  0.000026  0.000403
    10 O     0.003379  0.001088 -0.008986
    11 F    -0.009904  0.001550 -0.002477
    12 F     0.002410  0.000361  0.001529
 ----------------------------------------
 Mulliken charges used for AMS results%charges...
Hessian eigenvector     1(    -0.002) has overlap with TSRC:    0.35479E+00
Hessian eigenvector     1 has the largest overlap with TSRC:  0.35479
           Primitive Internal Coordinates (atoms in internal order)
-------------------------------------------------------------------------------
    index    type      i       j       k       l   value(A,deg)     Max Ovl Vect
-------------------------------------------------------------------------------
       1     bnd       1       5       0       0     1.45285893     0.00429515
       2     bnd       1       2       0       0     1.35024090    -0.02716408
       3     bnd       3       9       0       0     1.08372231     0.00007907
       4     bnd       1       4       0       0     1.08493463    -0.00104593
       5     bnd       3       6       0       0     1.08333898     0.00009136
       6     bnd       2       7       0       0     1.08434415    -0.00150390
       7     bnd       3       8       0       0     1.08381310     0.00007976
       8     bnd       5      10       0       0     1.19355914    -0.00231605
       9     bnd       2      11       0       0     1.34338803    -0.02009369
      10     bnd       5      12       0       0     1.38822209    -0.00182094
      11     bnd       2       3       0       0     2.54439401     0.50438709
      12     bnd       3      11       0       0     2.79453030     0.07781631
      13     bnd       1       3       0       0     3.22907606     0.11225080
      14     ang       5       1       2       0   124.13787835     0.00526959
      15     ang       5       1       4       0   115.61265667    -0.00715167
      16     ang       5       1       3       0   109.35573491     0.01157115
      17     ang       2       1       4       0   120.21676395     0.00289787
      18     ang       2       1       3       0    48.51706570     0.16196896
      19     ang       4       1       3       0   110.54270537    -0.09936063
      20     ang       1       2       7       0   125.98070122     0.03903883
      21     ang       1       2      11       0   120.21878773     0.01728513
      22     ang       1       2       3       0   108.05750282    -0.17631844
      23     ang       7       2      11       0   112.61388947     0.01733567
      24     ang       7       2       3       0    85.15682576     0.02122516
      25     ang      11       2       3       0    86.06416707    -0.14410563
      26     ang       9       3       6       0   118.58919232     0.00385542
      27     ang       9       3       8       0   118.82160389     0.00497127
      28     ang       9       3       2       0    99.14398943     0.00378029
      29     ang       9       3      11       0   127.80054418    -0.01712204
      30     ang       9       3       1       0    87.12708357     0.00247332
      31     ang       6       3       8       0   118.41495350     0.00222907
      32     ang       6       3       2       0    95.85058745    -0.01043814
      33     ang       6       3      11       0    81.57199500    -0.01486361
      34     ang       6       3       1       0    84.08509796    -0.02244539
      35     ang       8       3       2       0    95.46250926    -0.01901463
      36     ang       8       3      11       0    80.66147226     0.00758594
      37     ang       8       3       1       0   118.88716164    -0.00472698
      38     ang      11       3       1       0    44.90519818    -0.01956416
      39     ang       1       5      10       0   127.94912892    -0.00276621
      40     ang       1       5      12       0   112.50938407     0.00469214
      41     ang      10       5      12       0   119.51460667     0.00013015
      42     ang       2      11       3       0    65.27741725     0.16565755
      43     dih       2       1       5      10   180.35356256    -0.05081562
      44     dih       2       1       5      12    -1.56463190     0.30433333
      45     dih       4       1       5      10     2.43642239    -0.11067105
      46     dih       4       1       5      12   180.51822793     0.24447790
      47     dih       3       1       5      10   127.94750819    -0.24790579
      48     dih       3       1       5      12   -53.97068627     0.10724316
      49     dih       5       1       2       7    11.02045042    -0.17942747
      50     dih       5       1       2      11   177.62120645     0.17711279
      51     dih       5       1       2       3   273.72606300    -0.10861419
      52     dih       4       1       2       7   188.84689558    -0.11678082
      53     dih       4       1       2      11    -4.55234840     0.23975944
      54     dih       4       1       2       3    91.55250816    -0.04596753
      55     dih       3       1       2       7    97.29438742    -0.07081328
      56     dih       3       1       2      11   263.89514344     0.28572697
      57     dih       1       2      11       3   108.63220033    -0.29372974
      58     dih       7       2      11       3   -83.08853172     0.05272276
      59     dih       1       2       3       9    60.05270074     0.01788408
      60     dih       1       2       3       6   -60.19351729     0.01542603
      61     dih       1       2       3       8   180.44443477     0.01959212
      62     dih       1       2       3      11   239.45616209     0.05056812
      63     dih       7       2       3       9   -66.28466458    -0.00350392
      64     dih       7       2       3       6   173.46911740    -0.00596196
      65     dih       7       2       3       8    54.10706945    -0.00179587
      66     dih       7       2       3      11   113.11879677     0.02918013
      67     dih       7       2       3       1   233.66263468    -0.02138799
      68     dih      11       2       3       9   180.59653865    -0.03268404
      69     dih      11       2       3       6    60.35032062    -0.03514209
      70     dih      11       2       3       8   -59.01172732    -0.03097600
      71     dih      11       2       3       1   120.54383791    -0.05056812
      72     dih       9       3      11       2     0.74538311    -0.04177976
      73     dih       6       3      11       2   240.92421525    -0.02895385
      74     dih       8       3      11       2   120.13539253    -0.03340595
      75     dih       1       3      11       2   -29.01356767    -0.04325489
      76     dih       5       1       3       9    -2.16323617     0.02214600
      77     dih       5       1       3       6   238.70024976     0.01568258
      78     dih       5       1       3       8   119.41062710     0.02838720
      79     dih       5       1       3       2   118.90533758     0.00586503
      80     dih       5       1       3      11   154.71504407     0.01536470
      81     dih       2       1       3       9   238.93142625     0.01628096
      82     dih       2       1       3       6   119.79491219     0.00981755
      83     dih       2       1       3       8     0.50528952     0.02252217
      84     dih       2       1       3      11    35.80970650     0.00949966
      85     dih       4       1       3       9   126.22122645    -0.06127257
      86     dih       4       1       3       6     7.08471238    -0.06773598
      87     dih       4       1       3       8   247.79508972    -0.05503136
      88     dih       4       1       3       2   247.28980020    -0.07755353
      89     dih       4       1       3      11   -76.90049330    -0.06805387
 
----------------------------------------------------------------------
Geometry Convergence after Step   5       (Hartree/Angstrom,Angstrom)
----------------------------------------------------------------------
current energy                               -2.37113140 Hartree
energy change                      -0.00013064     0.00012000    F
constrained gradient max            0.01579869     0.00100000    F
constrained gradient rms            0.00463530     0.00066667    F
gradient max                        0.01579869
gradient rms                        0.00463530
cart. step max                      0.04397560     0.01000000    F
cart. step rms                      0.01598976     0.00666667    F
 
 
--------
Geometry
--------
Formula: C4H5F2O
Atoms
  Index Symbol   x (angstrom)   y (angstrom)   z (angstrom)
      1      C     0.86230705    -0.23697374     0.86669299
      2      C     0.83289561    -0.26427426    -0.48502463
      3      C    -1.52961504    -0.40922654    -1.28135029
      4      H     0.98478977    -1.16023796     1.42373911
      5      C     0.67406861     0.96235718     1.66320168
      6      H    -1.74972041    -1.35238387    -0.79599778
      7      H     0.87718943     0.60089416    -1.13764074
      8      H    -1.28322008    -0.41790059    -2.33673559
      9      H    -1.91825550     0.50259011    -0.84330989
     10      O     0.67117509     1.06144745     2.85487736
     11      F     1.07485302    -1.41520835    -1.13652739
     12      F     0.54529260     2.10094699     0.87917452
 
Total System Charge             0.00000
 
 *** GOStep6 ***

 Energy gradients wrt nuclear displacements
 ==========================================

     Atom      Cartesian (a.u./angstrom)
                 X         Y         Z
 ----------------------------------------
     1 C     0.005745  0.002273 -0.000903
     2 C    -0.010026  0.001618  0.001294
     3 C     0.012311 -0.003414  0.001211
     4 H     0.002047  0.000426 -0.000160
     5 C    -0.014046 -0.002711  0.004078
     6 H    -0.000739 -0.000009 -0.000340
     7 H     0.004137 -0.001029 -0.001533
     8 H    -0.000343 -0.000164 -0.000044
     9 H     0.000580  0.000100  0.000525
    10 O     0.004532  0.001011 -0.002740
    11 F    -0.008150  0.001941 -0.001804
    12 F     0.003951 -0.000044  0.000418
 ----------------------------------------
 Mulliken charges used for AMS results%charges...
Hessian eigenvector     1(    -0.001) has overlap with TSRC:    0.18726E+00
Hessian eigenvector     1 has the largest overlap with TSRC:  0.18726
           Primitive Internal Coordinates (atoms in internal order)
-------------------------------------------------------------------------------
    index    type      i       j       k       l   value(A,deg)     Max Ovl Vect
-------------------------------------------------------------------------------
       1     bnd       1       5       0       0     1.45198294    -0.00835166
       2     bnd       1       2       0       0     1.35231316     0.02009925
       3     bnd       3       9       0       0     1.08366527    -0.00051349
       4     bnd       1       4       0       0     1.08522772     0.00192134
       5     bnd       3       6       0       0     1.08330937    -0.00018785
       6     bnd       2       7       0       0     1.08461335     0.00082794
       7     bnd       3       8       0       0     1.08380065     0.00001547
       8     bnd       5      10       0       0     1.19579187     0.00939098
       9     bnd       2      11       0       0     1.34448819     0.00425990
      10     bnd       5      12       0       0     1.38840506     0.00153679
      11     bnd       2       3       0       0     2.49731902    -0.27087336
      12     bnd       3      11       0       0     2.79575158     0.04781941
      13     bnd       1       3       0       0     3.21948011    -0.07186360
      14     ang       5       1       2       0   124.20670623     0.03392205
      15     ang       5       1       4       0   115.83455932     0.01023711
      16     ang       5       1       3       0   108.29319586    -0.16023251
      17     ang       2       1       4       0   119.89105359    -0.04518760
      18     ang       2       1       3       0    46.83146476    -0.08184232
      19     ang       4       1       3       0   112.38374403     0.17469273
      20     ang       1       2       7       0   125.76395272    -0.00200689
      21     ang       1       2      11       0   119.84975859    -0.01631316
      22     ang       1       2       3       0   109.90603048     0.08654673
      23     ang       7       2      11       0   112.57679967     0.00309714
      24     ang       7       2       3       0    83.86143786    -0.14111148
      25     ang      11       2       3       0    88.05407823     0.11570106
      26     ang       9       3       6       0   118.59349154    -0.00070847
      27     ang       9       3       8       0   118.80895891    -0.00073301
      28     ang       9       3       2       0    99.29641547     0.02357228
      29     ang       9       3      11       0   128.01896417     0.02556801
      30     ang       9       3       1       0    87.23344270     0.01488696
      31     ang       6       3       8       0   118.39220439    -0.00510245
      32     ang       6       3       2       0    95.73232811    -0.00571340
      33     ang       6       3      11       0    81.53506323    -0.00556884
      34     ang       6       3       1       0    84.18070558     0.00772396
      35     ang       8       3       2       0    95.50342961    -0.00266993
      36     ang       8       3      11       0    80.54774769    -0.00707122
      37     ang       8       3       1       0   118.76588305    -0.00729838
      38     ang      11       3       1       0    44.97376569     0.00576576
      39     ang       1       5      10       0   127.98377648     0.00387424
      40     ang       1       5      12       0   112.31047853    -0.00445091
      41     ang      10       5      12       0   119.64154678     0.00229039
      42     ang       2      11       3       0    63.21958118    -0.11779057
      43     dih       2       1       5      10   179.05459894    -0.22718914
      44     dih       2       1       5      12    -3.90643178     0.06882561
      45     dih       4       1       5      10     2.05996252    -0.16609219
      46     dih       4       1       5      12   179.09893180     0.12992256
      47     dih       3       1       5      10   129.33715324    -0.05641426
      48     dih       3       1       5      12   -53.62387749     0.23960049
      49     dih       5       1       2       7    13.66475974     0.19757308
      50     dih       5       1       2      11   177.16960574     0.12484305
      51     dih       5       1       2       3   276.73449987     0.31769435
      52     dih       4       1       2       7   190.54460783     0.13417270
      53     dih       4       1       2      11    -5.95054616     0.06144267
      54     dih       4       1       2       3    93.61434796     0.25429397
      55     dih       3       1       2       7    96.93025987    -0.12012127
      56     dih       3       1       2      11   260.43510587    -0.19285130
      57     dih       1       2      11       3   111.91847528     0.17082959
      58     dih       7       2      11       3   -82.53031581     0.10020078
      59     dih       1       2       3       9    59.69436906    -0.02787412
      60     dih       1       2       3       6   -60.55940771    -0.03124285
      61     dih       1       2       3       8   180.11452030    -0.02416121
      62     dih       1       2       3      11   238.84483795    -0.03239188
      63     dih       7       2       3       9   -66.19519871     0.01455873
      64     dih       7       2       3       6   173.55102451     0.01119001
      65     dih       7       2       3       8    54.22495252     0.01827165
      66     dih       7       2       3      11   112.95527018     0.01004098
      67     dih       7       2       3       1   234.11043222     0.04243286
      68     dih      11       2       3       9   180.84953111     0.00451776
      69     dih      11       2       3       6    60.59575433     0.00114903
      70     dih      11       2       3       8   -58.73031766     0.00823067
      71     dih      11       2       3       1   121.15516205     0.03239188
      72     dih       9       3      11       2     1.06420834     0.00634908
      73     dih       6       3      11       2   241.20729791     0.00386584
      74     dih       8       3      11       2   120.40108691     0.00595371
      75     dih       1       3      11       2   -28.56769500     0.01893360
      76     dih       5       1       3       9    -1.34593380     0.14070213
      77     dih       5       1       3       6   239.53949765     0.14437239
      78     dih       5       1       3       8   120.24453624     0.14738351
      79     dih       5       1       3       2   120.11449598     0.17519388
      80     dih       5       1       3      11   155.70163891     0.15912976
      81     dih       2       1       3       9   238.53957022    -0.03449175
      82     dih       2       1       3       6   119.42500167    -0.03082149
      83     dih       2       1       3       8     0.13004026    -0.02781037
      84     dih       2       1       3      11    35.58714292    -0.01606412
      85     dih       4       1       3       9   127.89011024     0.17258324
      86     dih       4       1       3       6     8.77554169     0.17625350
      87     dih       4       1       3       8   249.48058028     0.17926462
      88     dih       4       1       3       2   249.35054002     0.20707499
      89     dih       4       1       3      11   -75.06231706     0.19101087
 
----------------------------------------------------------------------
Geometry Convergence after Step   6       (Hartree/Angstrom,Angstrom)
----------------------------------------------------------------------
current energy                               -2.37080117 Hartree
energy change                       0.00033023     0.00012000    F
constrained gradient max            0.01403310     0.00100000    F
constrained gradient rms            0.00432822     0.00066667    F
gradient max                        0.01403310
gradient rms                        0.00432822
cart. step max                      0.04372530     0.01000000    F
cart. step rms                      0.01319775     0.00666667    F
 
 
--------
Geometry
--------
Formula: C4H5F2O
Atoms
  Index Symbol   x (angstrom)   y (angstrom)   z (angstrom)
      1      C     0.86928637    -0.23393691     0.86284524
      2      C     0.87609889    -0.25619209    -0.48496479
      3      C    -1.54790744    -0.41319317    -1.27952030
      4      H     0.96943447    -1.16096569     1.41805360
      5      C     0.68426314     0.96437807     1.66247931
      6      H    -1.75672911    -1.35601531    -0.78856487
      7      H     0.92091473     0.60700094    -1.14012485
      8      H    -1.30552211    -0.42400650    -2.33581097
      9      H    -1.93500735     0.49872328    -0.84033308
     10      O     0.64775647     1.05526124     2.85536617
     11      F     1.07148150    -1.41159198    -1.13799462
     12      F     0.54769061     2.10256869     0.87966853
 
Total System Charge             0.00000
 
 *** GOStep7 ***

 Energy gradients wrt nuclear displacements
 ==========================================

     Atom      Cartesian (a.u./angstrom)
                 X         Y         Z
 ----------------------------------------
     1 C    -0.000176  0.002243 -0.003517
     2 C    -0.006094  0.001001  0.000786
     3 C     0.015942 -0.003309  0.003471
     4 H     0.002374  0.000496 -0.000250
     5 C    -0.005199 -0.002409  0.000759
     6 H    -0.001200 -0.000089 -0.000534
     7 H     0.003630 -0.001134 -0.001613
     8 H    -0.000475 -0.000282 -0.000115
     9 H     0.000117  0.000034  0.000389
    10 O     0.001114  0.000528  0.002164
    11 F    -0.010902  0.003074 -0.000873
    12 F     0.000868 -0.000154 -0.000667
 ----------------------------------------
 Mulliken charges used for AMS results%charges...
Hessian eigenvector     1(    -0.008) has overlap with TSRC:    0.30415E+00
Hessian eigenvector     1 has the largest overlap with TSRC:  0.30415
           Primitive Internal Coordinates (atoms in internal order)
-------------------------------------------------------------------------------
    index    type      i       j       k       l   value(A,deg)     Max Ovl Vect
-------------------------------------------------------------------------------
       1     bnd       1       5       0       0     1.45244863     0.00815300
       2     bnd       1       2       0       0     1.34801098    -0.02987807
       3     bnd       3       9       0       0     1.08366202     0.00013546
       4     bnd       1       4       0       0     1.08520428    -0.00096032
       5     bnd       3       6       0       0     1.08330850    -0.00007075
       6     bnd       2       7       0       0     1.08459456    -0.00068287
       7     bnd       3       8       0       0     1.08379775    -0.00015092
       8     bnd       5      10       0       0     1.19690080    -0.01546062
       9     bnd       2      11       0       0     1.34148099    -0.01106760
      10     bnd       5      12       0       0     1.38813640    -0.00447341
      11     bnd       2       3       0       0     2.55573365     0.43494796
      12     bnd       3      11       0       0     2.80678253     0.03401589
      13     bnd       1       3       0       0     3.23491713     0.13789311
      14     ang       5       1       2       0   124.38317952    -0.02374665
      15     ang       5       1       4       0   115.77682338    -0.00505465
      16     ang       5       1       3       0   108.36895186     0.11905730
      17     ang       2       1       4       0   119.79977412     0.02991764
      18     ang       2       1       3       0    48.75328234     0.12322517
      19     ang       4       1       3       0   111.12756563    -0.16865259
      20     ang       1       2       7       0   126.23078543     0.02110460
      21     ang       1       2      11       0   120.11125781     0.01770686
      22     ang       1       2       3       0   107.88249921    -0.12788499
      23     ang       7       2      11       0   112.66836627     0.00052692
      24     ang       7       2       3       0    84.27721149     0.10659612
      25     ang      11       2       3       0    86.20936526    -0.13909139
[...]
     5     C      -0.008229   0.001262   0.004701
     6     H       0.619501   0.032648   0.218015
     7     H      -0.056900  -0.046296  -0.010197
     8     H       0.006968  -0.058204  -0.009565
     9     H      -0.682588  -0.080771  -0.251379
    10     O      -0.002401   0.034592   0.002862
    11     F       0.038423  -0.033111  -0.030971
    12     F       0.002676   0.003633   0.025518
 
 Mode:    17      Frequency (cm-1):      497.0825     Intensity (km/mol):        2.7310
 Index  Atom      ---- Displacements (x/y/z) ----
     1     C       0.013294  -0.075489   0.123724
     2     C      -0.037285  -0.057539   0.162058
     3     C       0.045265   0.018925  -0.048770
     4     H       0.112219   0.049137   0.294114
     5     C      -0.006393   0.018278  -0.107681
     6     H       0.427040   0.025133   0.178694
     7     H      -0.180468   0.033585   0.266861
     8     H      -0.578460  -0.059876  -0.172459
     9     H       0.269142   0.005219   0.128700
    10     O       0.022023  -0.146703  -0.100299
    11     F      -0.018067   0.062027   0.011123
    12     F      -0.012498   0.119188  -0.045286
 
 Mode:    18      Frequency (cm-1):      639.6031     Intensity (km/mol):       18.3617
 Index  Atom      ---- Displacements (x/y/z) ----
     1     C      -0.049483   0.315340   0.085925
     2     C      -0.001177  -0.098766   0.021450
     3     C      -0.015770   0.011796  -0.007988
     4     H      -0.121611   0.410786   0.256479
     5     C      -0.021771   0.249167   0.274659
     6     H       0.047436   0.008552   0.016405
     7     H       0.039126  -0.186509  -0.085305
     8     H      -0.057278  -0.005043  -0.018159
     9     H      -0.082600  -0.005877  -0.031414
    10     O       0.030827  -0.283521   0.392409
    11     F       0.042993  -0.107156  -0.185358
    12     F      -0.003955   0.032455  -0.388595
 
 Mode:    19      Frequency (cm-1):      679.3749     Intensity (km/mol):        1.2169
 Index  Atom      ---- Displacements (x/y/z) ----
     1     C      -0.008107   0.018782  -0.022238
     2     C       0.102341   0.006851   0.006620
     3     C       0.030854  -0.001052   0.012184
     4     H       0.755583   0.087654  -0.040391
     5     C      -0.383393  -0.047769   0.006192
     6     H       0.101011  -0.004655   0.027088
     7     H      -0.385524  -0.044691  -0.109416
     8     H       0.191775   0.027329   0.048580
     9     H       0.145895   0.023607   0.055689
    10     O       0.107569   0.016740   0.011060
    11     F      -0.044125  -0.007846  -0.007301
    12     F       0.073814   0.003665  -0.002774
 
 Mode:    20      Frequency (cm-1):      784.1857     Intensity (km/mol):       34.8723
 Index  Atom      ---- Displacements (x/y/z) ----
     1     C      -0.164271   0.010922  -0.034453
     2     C       0.053115  -0.010967   0.016890
     3     C      -0.022726  -0.000072  -0.005750
     4     H       0.422550   0.072506  -0.037855
     5     C       0.154719   0.027956   0.000192
     6     H       0.353257  -0.013098   0.124651
     7     H      -0.540593  -0.065040  -0.108342
     8     H       0.401908   0.046451   0.087035
     9     H       0.332351   0.064954   0.143276
    10     O      -0.042553  -0.002749  -0.002416
    11     F      -0.010839   0.000280  -0.003260
    12     F      -0.017925  -0.021160   0.008824
 
 Mode:    21      Frequency (cm-1):      812.8729     Intensity (km/mol):       89.2213
 Index  Atom      ---- Displacements (x/y/z) ----
     1     C      -0.007577   0.307116   0.048694
     2     C      -0.004553  -0.060142   0.091686
     3     C       0.025081   0.004238   0.002334
     4     H      -0.308515   0.562366   0.470014
     5     C      -0.057163   0.225640  -0.171186
     6     H      -0.071313   0.011603  -0.020851
     7     H      -0.083342  -0.118287   0.006792
     8     H      -0.102889  -0.005829  -0.023981
     9     H      -0.046124  -0.012702  -0.021209
    10     O       0.016071  -0.048670  -0.139088
    11     F       0.005926   0.001989  -0.049628
    12     F       0.040944  -0.285399   0.162921
 
 Mode:    22      Frequency (cm-1):      838.1950     Intensity (km/mol):       12.9249
 Index  Atom      ---- Displacements (x/y/z) ----
     1     C      -0.103932  -0.013287   0.008935
     2     C       0.061680   0.008201   0.002634
     3     C       0.083794   0.004547   0.029183
     4     H       0.579876   0.071119   0.026842
     5     C       0.058154   0.017190  -0.004243
     6     H      -0.439756   0.021643  -0.161322
     7     H       0.120541   0.019328   0.020428
     8     H      -0.433014  -0.051310  -0.084869
     9     H      -0.400277  -0.083791  -0.176390
    10     O      -0.016591  -0.004925  -0.003001
    11     F      -0.013365  -0.001091  -0.002967
    12     F      -0.005261  -0.004059   0.002343
 
 Mode:    23      Frequency (cm-1):      905.5926     Intensity (km/mol):       18.8801
 Index  Atom      ---- Displacements (x/y/z) ----
     1     C       0.024086  -0.007914  -0.022292
     2     C       0.063953  -0.015075   0.011415
     3     C       0.076353   0.011690   0.021643
     4     H      -0.450313  -0.094804  -0.079258
     5     C       0.001917  -0.010602   0.012748
     6     H      -0.175853   0.016581  -0.081983
     7     H      -0.783866  -0.084944  -0.161567
     8     H      -0.190939  -0.022608  -0.038726
     9     H      -0.187757  -0.036858  -0.091296
    10     O       0.001674   0.005001   0.009275
    11     F      -0.007900   0.011154   0.008609
    12     F      -0.003667   0.010280  -0.007249
 
 Mode:    24      Frequency (cm-1):     1119.8596     Intensity (km/mol):      176.7580
 Index  Atom      ---- Displacements (x/y/z) ----
     1     C      -0.006680  -0.050471   0.190547
     2     C      -0.059924   0.499773   0.090401
     3     C      -0.007208  -0.002037  -0.000416
     4     H       0.000874  -0.277437  -0.166833
     5     C      -0.007280   0.065811  -0.029599
     6     H      -0.037131  -0.004436  -0.032328
     7     H      -0.404504   0.544698   0.102749
     8     H      -0.004526  -0.010052  -0.000898
     9     H       0.023061   0.011277   0.006030
    10     O       0.004462  -0.027813  -0.059064
    11     F       0.068824  -0.304248  -0.116029
    12     F       0.001038  -0.010418   0.012100
 
 Mode:    25      Frequency (cm-1):     1182.5254     Intensity (km/mol):      162.1064
 Index  Atom      ---- Displacements (x/y/z) ----
     1     C      -0.032481   0.215251   0.030115
     2     C       0.005670   0.039675   0.017752
     3     C      -0.001899   0.000780   0.001160
     4     H      -0.092595   0.603271   0.618904
     5     C       0.051569  -0.396268   0.055980
     6     H      -0.011596  -0.006687  -0.023586
     7     H      -0.067738   0.085627   0.070620
     8     H      -0.025391  -0.006575  -0.005485
     9     H      -0.026494   0.005185  -0.021039
    10     O      -0.004716   0.044057  -0.060750
    11     F       0.008467  -0.040826  -0.029255
    12     F      -0.007062   0.056401  -0.019845
 
 Mode:    26      Frequency (cm-1):     1231.1573     Intensity (km/mol):       13.5000
 Index  Atom      ---- Displacements (x/y/z) ----
     1     C       0.013877  -0.148938  -0.004050
     2     C       0.021981   0.050015  -0.159679
     3     C      -0.007936  -0.001466  -0.001253
     4     H      -0.057017   0.394017   0.856387
     5     C      -0.007480   0.064579  -0.013022
     6     H       0.008347  -0.001720   0.003794
     7     H      -0.128622   0.172970  -0.042827
     8     H       0.029206   0.005638   0.006530
     9     H       0.016357   0.005015   0.006433
    10     O      -0.000430  -0.002011   0.045744
    11     F      -0.006726   0.003957   0.029269
    12     F       0.001163  -0.010196   0.000605
 
 Mode:    27      Frequency (cm-1):     1277.2682     Intensity (km/mol):       19.1120
 Index  Atom      ---- Displacements (x/y/z) ----
     1     C       0.004806   0.017058  -0.131789
     2     C       0.006689  -0.042968   0.017014
     3     C       0.006576   0.001224  -0.000201
     4     H      -0.014861   0.061898  -0.071273
     5     C      -0.004453   0.016256   0.005203
     6     H      -0.014917   0.012268   0.025210
     7     H      -0.141596   0.567408   0.790859
     8     H      -0.009898   0.006713  -0.001605
     9     H      -0.015231  -0.017400   0.011323
    10     O      -0.000437   0.005518   0.021217
    11     F       0.001030  -0.025837   0.013067
    12     F       0.001161  -0.006951  -0.001619
 
 Mode:    28      Frequency (cm-1):     1381.6324     Intensity (km/mol):        2.0998
 Index  Atom      ---- Displacements (x/y/z) ----
     1     C      -0.000055   0.001265   0.007158
     2     C       0.000770   0.002710  -0.002594
     3     C       0.027689  -0.049657  -0.069981
     4     H      -0.002936  -0.004184   0.000203
     5     C       0.000715  -0.003326   0.000225
     6     H      -0.232146   0.238659   0.703101
     7     H      -0.006517  -0.010471  -0.020751
     8     H       0.020210   0.564521   0.051185
     9     H      -0.115014  -0.211451   0.079535
    10     O      -0.000001   0.000038  -0.001175
    11     F      -0.000223  -0.000514  -0.000648
    12     F      -0.000323   0.000824  -0.000327
 
 Mode:    29      Frequency (cm-1):     1382.6194     Intensity (km/mol):        3.3182
 Index  Atom      ---- Displacements (x/y/z) ----
     1     C       0.000057   0.000704   0.003013
     2     C       0.000007   0.000787  -0.001555
     3     C       0.009705   0.074841  -0.049264
     4     H      -0.000570   0.000497   0.002836
     5     C      -0.000241  -0.002106  -0.000422
     6     H      -0.157297   0.132417   0.109751
     7     H       0.000907  -0.007542  -0.012806
     8     H       0.168648  -0.543750  -0.113641
     9     H      -0.125395  -0.480422   0.594776
    10     O       0.000108   0.000152  -0.000044
    11     F       0.000001   0.000153  -0.000066
    12     F      -0.000078   0.000514  -0.000251
 
 Mode:    30      Frequency (cm-1):     1552.1967     Intensity (km/mol):      144.5683
 Index  Atom      ---- Displacements (x/y/z) ----
     1     C       0.021815  -0.115860  -0.370918
     2     C      -0.072217   0.126791   0.348230
     3     C       0.025042  -0.000319   0.005540
     4     H      -0.043362   0.385426   0.348687
     5     C      -0.004845   0.010586  -0.005858
     6     H      -0.038054   0.011882   0.010441
     7     H       0.223817  -0.506882  -0.343070
     8     H      -0.026047   0.007114  -0.000935
     9     H      -0.020107  -0.016983  -0.000808
    10     O      -0.002287   0.017007   0.057901
    11     F       0.015890  -0.023013  -0.028336
    12     F       0.000008   0.001641  -0.006639
 
 Mode:    31      Frequency (cm-1):     1793.9097     Intensity (km/mol):      489.0217
 Index  Atom      ---- Displacements (x/y/z) ----
     1     C       0.009426  -0.070282  -0.088191
     2     C      -0.007847  -0.013385  -0.015383
     3     C       0.005935   0.000948   0.002338
     4     H      -0.006542   0.083772   0.200410
     5     C      -0.033189   0.186358   0.788645
     6     H      -0.000802   0.003638   0.004841
     7     H       0.036336  -0.018933  -0.009187
     8     H       0.006175  -0.002932   0.002750
     9     H      -0.001633  -0.008384   0.005434
    10     O       0.015427  -0.074310  -0.522974
    11     F      -0.000633   0.008488   0.006102
    12     F       0.002084  -0.014421  -0.010830
 
 Mode:    32      Frequency (cm-1):     3058.1558     Intensity (km/mol):        0.0586
 Index  Atom      ---- Displacements (x/y/z) ----
     1     C       0.000047   0.000164   0.000007
     2     C      -0.000159  -0.000864   0.000506
     3     C      -0.014527  -0.001332  -0.008176
     4     H       0.000103  -0.001207   0.000914
     5     C       0.000067  -0.000180  -0.000130
     6     H       0.079219   0.535833  -0.171552
     7     H       0.001082   0.009574  -0.007151
     8     H      -0.116221  -0.103329   0.581162
     9     H       0.208188  -0.416547  -0.312990
    10     O      -0.000013   0.000035   0.000079
    11     F       0.000063   0.000039   0.000055
    12     F       0.000008   0.000038   0.000006
 
 Mode:    33      Frequency (cm-1):     3171.9484     Intensity (km/mol):        1.4688
 Index  Atom      ---- Displacements (x/y/z) ----
     1     C       0.007082  -0.065128   0.046715
     2     C       0.002847   0.025149  -0.026894
     3     C      -0.000939  -0.000475   0.000962
     4     H      -0.079889   0.762764  -0.497863
     5     C      -0.000277   0.001430   0.001861
     6     H       0.001285   0.009164  -0.002552
     7     H      -0.026051  -0.309891   0.243267
     8     H       0.000818   0.000915  -0.006029
     9     H       0.003718  -0.006439  -0.004416
    10     O       0.000034  -0.000186  -0.000580
    11     F      -0.000163   0.000239   0.000398
    12     F      -0.000058   0.000350  -0.000016
 
 Mode:    34      Frequency (cm-1):     3175.7593     Intensity (km/mol):        2.3012
 Index  Atom      ---- Displacements (x/y/z) ----
     1     C      -0.002918   0.028450  -0.014475
     2     C       0.005414   0.060471  -0.051307
     3     C      -0.001339  -0.001809   0.002996
     4     H       0.035799  -0.331790   0.219100
     5     C      -0.000074   0.000037  -0.001319
     6     H       0.002770   0.025922  -0.007971
     7     H      -0.058828  -0.714289   0.564111
     8     H       0.002769   0.002750  -0.020182
     9     H       0.005944  -0.011132  -0.007139
    10     O       0.000042  -0.000120   0.000035
    11     F      -0.000112  -0.000152   0.000361
    12     F       0.000004  -0.000232   0.000425
 
 Mode:    35      Frequency (cm-1):     3230.9071     Intensity (km/mol):        1.8536
 Index  Atom      ---- Displacements (x/y/z) ----
     1     C      -0.000073   0.000076   0.000209
     2     C       0.000251   0.002460  -0.002271
     3     C       0.028624   0.030168  -0.089983
     4     H       0.000318  -0.002165   0.001673
     5     C      -0.000002   0.000103   0.000009
     6     H      -0.075227  -0.485069   0.135799
     7     H      -0.003314  -0.029939   0.023584
     8     H      -0.137540  -0.130544   0.763119
     9     H      -0.125955   0.257206   0.170205
    10     O       0.000004  -0.000019  -0.000016
    11     F      -0.000056   0.000031   0.000078
    12     F      -0.000011  -0.000022   0.000013
 
 Mode:    36      Frequency (cm-1):     3240.9939     Intensity (km/mol):        1.1644
 Index  Atom      ---- Displacements (x/y/z) ----
     1     C      -0.000038  -0.000123   0.000148
     2     C       0.000143  -0.000419   0.000121
     3     C       0.017269  -0.094546  -0.026298
     4     H      -0.000427   0.002281  -0.001579
     5     C       0.000021  -0.000059   0.000110
     6     H       0.104182   0.601401  -0.196981
     7     H       0.000952   0.003223  -0.002644
     8     H      -0.014630  -0.033181   0.090617
     9     H      -0.294449   0.554050   0.418937
    10     O       0.000003   0.000008  -0.000033
    11     F      -0.000113   0.000233   0.000088
    12     F      -0.000035   0.000032  -0.000046

PES point character: Geometry corresponds to a transition state.
                     (Hint: Very small negative frequencies do not count towards being a
                     transition state, as they usually indicate noise on a very flat PES. See
                     the PESPointCharacter%NegativeFrequenciesTolerance keyword documentation.)




 ============================
 Statistical Thermal Analysis  ***  ideal gas assumed  ***
 ============================
  
 Pressure:                  1.000000 atm.
 Temperature:             298.150000 K



 Moments of Inertia [amu*bohr^2] and principal axis
 ==================================================

         452.5683       1241.8388       1422.9341
 ------------------------------------------------
           0.0911         -0.7816         -0.6171
           0.6147          0.5317         -0.5827
           0.7835         -0.3263          0.5288


 The rotational contribution to the molecular entropy includes
 a term, dependent on the symmetry number sigma. The results 
 reported below were computed using sigma = 1, determined from
 the point group symmetry of the input geometry (NOSYM). 
 If this is not the correct symmetry, try symmetrizing the molecule before
 running the calculation (note: linear molecules should be aligned along one
 of the Cartesian axes).
 Contributions from frequencies below 20 1/cm are not included in vibrational sums.
 Their contributions, if any, are reported separately.


     Temp                                                        Transl      Rotat     Vibrat     Total
     ----                                                        ------      -----     ------     -----

     298.15   Entropy (cal/mol-K):                               39.921     28.172     22.318     90.410
              Nuclear Internal Energy (kcal/mol):                 0.889      0.889     52.406     54.184
              Constant Volume Heat Capacity (cal/mol-K):          2.981      2.981     21.952     27.913
          (c) Constant Volume Heat Capacity (cal/mol-K):          2.981      2.981     19.749     25.711

       Summary of energy terms
                                                   hartree              eV         kcal/mol           kJ/mol
                                      --------------------     -----------       ----------      -----------
      Energy from Engine:               -2.370955258784834        -64.5170         -1487.80         -6224.94
      Nuclear Internal Energy:           0.086347083720929          2.3496            54.18           226.70
  (c) Nuclear Internal Energy:           0.085223521238698          2.3191            53.48           223.75
      Internal Energy U:                -2.284608175063906        -62.1674         -1433.61         -5998.24
      pV/n = RT:                         0.000944186013486          0.0257             0.59             2.48
      Enthalpy H:                       -2.283663989050420        -62.1417         -1433.02         -5995.76
      -T*S:                             -0.042956551101671         -1.1689           -26.96          -112.78
  (c) -T*S:                             -0.042073861502726         -1.1449           -26.40          -110.46
      Gibbs free energy:                -2.326620540152091        -63.3106         -1459.98         -6108.54
 
 
 
  (c) The properties marked with this symbol have been corrected using 'low vibrational frequency free rotor
      interpolation corrections'. For those terms all positive frequencies are used (also ones below 20 1/cm),
      but the contribution to the partition function of small vibrational frequencies is modified as described
      in the following paper:
      S. Grimme, 'Supramolecular Binding Thermodynamics by Dispersion-Corrected Density Functional Theory'
      (Chem. Eur. J. 2012, 18, 9955-9964)
      Configuration: Dampener Frequency          :   100.000 1/cm
                     Dampener Alpha              :     4.000
                     Averaging Moment of Inertia : 1.000E-44 kg m2

--------------
Atomic charges
--------------
  Index   Atom    Charge
      1      C    0.0911
      2      C    0.6829
      3      C    0.5137
      4      H   -0.1462
      5      C    0.8060
      6      H   -0.1423
      7      H   -0.1681
      8      H   -0.1598
      9      H   -0.1475
     10      O   -0.4959
     11      F   -0.4003
     12      F   -0.4335


Dipole moment vector    (Debye):    -0.67502768   -1.56639150   -2.78741385
              magnitude (Debye):     3.26786179


Final PES point is a transition state. Transition state search successful!


AMS application finished. Exiting.
NORMAL TERMINATION
     Total cpu time:   25372.61
  Total system time:      37.18
 Total elapsed time:   25480.36
