
 *******************************************************************************
 *                                                                             *
 *  --------------------------------                                           *
 *   Amsterdam Modeling Suite (AMS)              2021.102                      *
 *  --------------------------------                                           *
 *                                               r95042 2021-06-07             *
 *                                                                             *
 *                                                                             *
 *                              =================                              *
 *                              |               |                              *
 *                              |     A M S     |                              *
 *                              |               |                              *
 *                              =================                              *
 *                                                                             *
 *                                                                             *
 *   Online information and documentation:  https://www.scm.com/support/       *
 *   E-mail:  support@scm.com   info@scm.com                                   *
 *                                                                             *
 *   Scientific publications using AMS results must be properly referenced     *
 *   See the User Manuals (or the web site) for recommended citations          *
 *   The terms and conditions of the End User License Agreement apply to       *
 *   the use of AMS, https://www.scm.com/license-terms/                        *
 *                                                                             *
 **********************  x86_64_linux_intel / intelmpi  ************************
 
 Licensed to: VU/FEW (+ SARA) / ALGEMEEN / Amsterdam / THE NETHERLANDS
 SCM User ID: u7668
  
 AMS 2021.102  RunTime: Jan20-2022 02:55:07  ShM Nodes: 1  Procs: 1

 AMS jobname: 7.no_catalyst_F_F.TS
 AMS jobid  : 1850677441

 Start   directory: /scistor/tc/yhk800/MasterProject/calculations/no_catalyst_F_F/7.no_catalyst_F_F.TS/
 Results directory: /scistor/tc/yhk800/MasterProject/calculations/no_catalyst_F_F/7.no_catalyst_F_F.TS/
 Scratch directory: /scratch/3466/amstmp_7.no_catalyst_F_F.TS_kid0.1850677441/

 RNG seed: 267499929 -1933929723 1317239081 1320704546 -1990988220 -193618400 -1566077367 -359634233



                      ************************************************************************
                      *  ADF 2021.102  RunTime: Jan20-2022 02:55:07  ShM Nodes: 1  Procs: 1  *
                      ************************************************************************
  
       *****************************
       *  TRANSITION STATE SEARCH  *
       *****************************

Optimization Method                    Quasi Newton
Optimization Coordinates               Delocalized Coordinates
Optimize lattice                       F
 
 ------------------------------------------------------
 Convergence criteria (Hartree,Angstrom)
 ------------------------------------------------------
 Maximum gradient               0.001000000000
 Maximum rms gradient           0.000666666667
 Maximum step allowed           0.010000000000
 Maximum rms step allowed       0.006666666667
 Maximum energy change allowe   0.000120000000
 Maximum stress energy allowe   0.000500000000
 
Initial model Hessian                  Automatic Hessian
 
------------------------------------
Quasi-Newton Optimizer Parameters
------------------------------------
Hessian Update Method                  Bofill
Maximum number of steps                  250
First GDIIS cycle                          0
Maximum GDIIS vectors                      0
Trust radius (bohr)                        0.200000
Trust radius varies                        F
Constraints converged at all steps         T
Use projector                              T
 
 Rigid motions settings for: old optimizer
 Atomic rotations (x,y,z):     T T T
 Atomic translations (x,y,z):  T T T
 Tolerance:                   1.000000000000000E-006
 
           1  TSRC entries:
    i   type      a1    a2    a3    a4    coef
    1 Distance     1     2               -1.000
 
--------
Geometry
--------
Formula: C4H5F2O
Atoms
  Index Symbol   x (angstrom)   y (angstrom)   z (angstrom)
      1      C     0.81668000    -0.23471900     0.88197500
      2      C     0.81678400    -0.23413100    -0.47719300
      3      C    -1.53160000    -0.46998000    -1.30857600
      4      H     0.85636200    -1.16386700     1.44859300
      5      C     0.73893400     1.00063500     1.66014300
      6      H    -1.75224300    -1.42324600    -0.84366900
      7      H     0.86540100     0.70149500    -1.02879400
      8      H    -1.29572100    -0.45322200    -2.36675600
      9      H    -1.93437200     0.42729600    -0.85485600
     10      O     0.73088900     1.05622100     2.88164900
     11      F     1.05157196    -1.41471295    -1.21149598
     12      F     0.67907420     2.18026153     0.89007934
 
Total System Charge             0.00000
 
 
----------------
ADF Engine Input
----------------
 
 NumericalQuality VeryGood
 SCF
 Converge 1.0e-6
 Iterations 99
 End
 SYMMETRY NOSYM
 SpinPolarization 1.0
 Unrestricted Yes
 XC
 GGA OLYP
 End
 basis
 core None
 type TZ2P
 End
 

 Title: *** (NO TITLE) ***

 Using automatic Hessian for delocalized coordinates.
 *** GOStep1 ***

 Energy gradients wrt nuclear displacements
 ==========================================

     Atom      Cartesian (a.u./angstrom)
                 X         Y         Z
 ----------------------------------------
     1 C    -0.000812 -0.001441  0.020712
     2 C    -0.010840  0.045306  0.008948
     3 C     0.013482 -0.005487  0.001980
     4 H    -0.000166 -0.006532  0.000649
     5 C     0.000380  0.000518 -0.063392
     6 H    -0.002149  0.000374 -0.000432
     7 H    -0.001717  0.014259  0.015519
     8 H    -0.001328  0.000324 -0.001004
     9 H     0.001158 -0.000764 -0.000000
    10 O     0.000315 -0.008893  0.076773
    11 F     0.002630 -0.067346 -0.042351
    12 F    -0.000954  0.029683 -0.017402
 ----------------------------------------
 Mulliken charges used for AMS results%charges...
           Primitive Internal Coordinates (atoms in internal order)
-------------------------------------------------------------------------------
    index    type      i       j       k       l   value(A,deg)     TSRC Vect
-------------------------------------------------------------------------------
       1     bnd       1       5       0       0     1.46208392     0.00000000
       2     bnd       1       2       0       0     1.35916813    -0.56672640
       3     bnd       3       9       0       0     1.08313958    -0.00000000
       4     bnd       1       4       0       0     1.08901177     0.00000000
       5     bnd       3       6       0       0     1.08329955    -0.00000000
       6     bnd       2       7       0       0     1.08720894     0.00000000
       7     bnd       3       8       0       0     1.08428070     0.00000000
       8     bnd       5      10       0       0     1.22279656     0.00000000
       9     bnd       2      11       0       0     1.41000000     0.00164704
      10     bnd       5      12       0       0     1.41000000     0.00000000
      11     bnd       2       3       0       0     2.50234487     0.10315886
      12     bnd       3      11       0       0     2.75222133     0.00351382
      13     bnd       1       3       0       0     3.21998143    -0.14314763
      14     ang       5       1       2       0   122.13193049    -0.01144595
      15     ang       5       1       4       0   116.48149708     0.00538528
      16     ang       5       1       3       0   112.64562536    -0.00881245
      17     ang       2       1       4       0   121.37727346     0.00617336
      18     ang       2       1       3       0    47.13980479     0.01908868
      19     ang       4       1       3       0   108.55407601    -0.00546108
      20     ang       1       2       7       0   120.51279539    -0.00793462
      21     ang       1       2      11       0   121.36128198     0.00764336
      22     ang       1       2       3       0   109.39804563     0.07845908
      23     ang       7       2      11       0   116.67222795    -0.00621981
      24     ang       7       2       3       0    87.39281970    -0.02001955
      25     ang      11       2       3       0    84.51010433    -0.03563093
      26     ang       9       3       6       0   118.25885447     0.00319855
      27     ang       9       3       8       0   118.48323850    -0.00066097
      28     ang       9       3       2       0    97.56929804    -0.01771313
      29     ang       9       3      11       0   128.21390110    -0.01981675
      30     ang       9       3       1       0    85.73843521     0.03206282
      31     ang       6       3       8       0   118.47247906    -0.00202416
      32     ang       6       3       2       0    97.55621160    -0.01542363
      33     ang       6       3      11       0    82.75975470    -0.00981694
      34     ang       6       3       1       0    85.46171991     0.03464122
      35     ang       8       3       2       0    96.81291220     0.03190387
      36     ang       8       3      11       0    80.53456734     0.02758839
      37     ang       8       3       1       0   120.27444570    -0.06564524
      38     ang      11       3       1       0    46.88964471    -0.07928009
      39     ang       1       5      10       0   124.78014579     0.00000000
      40     ang       1       5      12       0   114.73739867    -0.00000000
      41     ang      10       5      12       0   120.48134630    -0.00000000
      42     ang       2      11       3       0    64.82849652     0.03769522
      43     dih       2       1       5      10   179.74813341     0.00820409
      44     dih       2       1       5      12    -0.63506953     0.00820409
      45     dih       4       1       5      10     0.84367616     0.00148680
      46     dih       4       1       5      12   180.46047323     0.00148680
      47     dih       3       1       5      10   127.21624574    -0.00969090
      48     dih       3       1       5      12   -53.16695720    -0.00969090
      49     dih       5       1       2       7     6.57009342     0.01399192
      50     dih       5       1       2      11   172.35502844    -0.01819451
      51     dih       5       1       2       3   267.85385074    -0.00858177
      52     dih       4       1       2       7   185.42152053     0.02101275
      53     dih       4       1       2      11    -8.79354445    -0.01117368
      54     dih       4       1       2       3    86.70527785    -0.00156093
      55     dih       3       1       2       7    98.71624268     0.02257369
      56     dih       3       1       2      11   264.50117770    -0.00961275
      57     dih       1       2      11       3   109.40048400     0.07135197
      58     dih       7       2      11       3   -84.29422319     0.04001261
      59     dih       1       2       3       9    60.36685908    -0.00126551
      60     dih       1       2       3       6   -59.59533627     0.00303936
      61     dih       1       2       3       8   180.39271465     0.00134770
      62     dih       1       2       3      11   238.63730923    -0.00354272
      63     dih       7       2       3       9   -61.15415106     0.00220262
      64     dih       7       2       3       6   178.88365359     0.00650750
      65     dih       7       2       3       8    58.87170451     0.00481583
      66     dih       7       2       3      11   117.11629909    -0.00007458
      67     dih       7       2       3       1   238.47898986     0.00346813
      68     dih      11       2       3       9   181.72954985     0.00227721
      69     dih      11       2       3       6    61.76735450     0.00658208
      70     dih      11       2       3       8   -58.24459458     0.00489042
      71     dih      11       2       3       1   121.36269077     0.00354272
      72     dih       9       3      11       2     2.18228113     0.00236897
      73     dih       6       3      11       2   241.69106591     0.01267482
      74     dih       8       3      11       2   121.13490928     0.01893510
      75     dih       1       3      11       2   -27.75476779     0.08035233
      76     dih       5       1       3       9    -6.70885435    -0.00862771
      77     dih       5       1       3       6   234.46351100    -0.00318292
      78     dih       5       1       3       8   113.97123608    -0.00611400
      79     dih       5       1       3       2   113.51971531    -0.00733148
      80     dih       5       1       3      11   150.13784247     0.04363015
      81     dih       2       1       3       9   239.77143035    -0.00129623
      82     dih       2       1       3       6   120.94379569     0.00414856
      83     dih       2       1       3       8     0.45152078     0.00121748
      84     dih       2       1       3      11    36.61812716     0.05096163
      85     dih       4       1       3       9   123.80841936    -0.01297691
      86     dih       4       1       3       6     4.98078471    -0.00753212
      87     dih       4       1       3       8   244.48850980    -0.01046320
      88     dih       4       1       3       2   244.03698902    -0.01168069
      89     dih       4       1       3      11   -79.34488382     0.03928095
Hessian eigenvector     1(    -0.029) has overlap with TSRC:    0.61859E+00
Hessian eigenvector     1 has the largest overlap with TSRC:  0.61859
           Primitive Internal Coordinates (atoms in internal order)
-------------------------------------------------------------------------------
    index    type      i       j       k       l   value(A,deg)     Max Ovl Vect
-------------------------------------------------------------------------------
       1     bnd       1       5       0       0     1.46208392     0.00000000
       2     bnd       1       2       0       0     1.35916813     0.87482075
       3     bnd       3       9       0       0     1.08313958     0.00000000
       4     bnd       1       4       0       0     1.08901177     0.00000000
       5     bnd       3       6       0       0     1.08329955    -0.00000000
       6     bnd       2       7       0       0     1.08720894     0.00000000
       7     bnd       3       8       0       0     1.08428070    -0.00000000
       8     bnd       5      10       0       0     1.22279656    -0.00000000
       9     bnd       2      11       0       0     1.41000000    -0.00427354
      10     bnd       5      12       0       0     1.41000000     0.00000000
      11     bnd       2       3       0       0     2.50234487    -0.09198474
      12     bnd       3      11       0       0     2.75222133     0.00837649
      13     bnd       1       3       0       0     3.21998143     0.15584299
      14     ang       5       1       2       0   122.13193049     0.00468849
      15     ang       5       1       4       0   116.48149708     0.00098164
      16     ang       5       1       3       0   112.64562536    -0.00598862
      17     ang       2       1       4       0   121.37727346    -0.00548589
      18     ang       2       1       3       0    47.13980479     0.02295423
      19     ang       4       1       3       0   108.55407601    -0.00634529
      20     ang       1       2       7       0   120.51279539     0.01600184
      21     ang       1       2      11       0   121.36128198     0.00299871
      22     ang       1       2       3       0   109.39804563    -0.18847254
      23     ang       7       2      11       0   116.67222795     0.00911279
      24     ang       7       2       3       0    87.39281970     0.04304435
      25     ang      11       2       3       0    84.51010433     0.03703898
      26     ang       9       3       6       0   118.25885447     0.00184251
      27     ang       9       3       8       0   118.48323850    -0.00201943
      28     ang       9       3       2       0    97.56929804     0.02312837
      29     ang       9       3      11       0   128.21390110     0.02332066
      30     ang       9       3       1       0    85.73843521    -0.06048873
      31     ang       6       3       8       0   118.47247906     0.00034501
      32     ang       6       3       2       0    97.55621160     0.02544342
      33     ang       6       3      11       0    82.75975470     0.01690276
      34     ang       6       3       1       0    85.46171991    -0.05790265
      35     ang       8       3       2       0    96.81291220    -0.04894695
      36     ang       8       3      11       0    80.53456734    -0.04075179
      37     ang       8       3       1       0   120.27444570     0.11658110
      38     ang      11       3       1       0    46.88964471     0.13233324
      39     ang       1       5      10       0   124.78014579     0.00000019
      40     ang       1       5      12       0   114.73739867     0.00000021
      41     ang      10       5      12       0   120.48134630     0.00000018
      42     ang       2      11       3       0    64.82849652    -0.03724376
      43     dih       2       1       5      10   179.74813341     0.01069413
      44     dih       2       1       5      12    -0.63506953     0.01079408
      45     dih       4       1       5      10     0.84367616    -0.00009385
      46     dih       4       1       5      12   180.46047323     0.00000609
      47     dih       3       1       5      10   127.21624574    -0.01381448
      48     dih       3       1       5      12   -53.16695720    -0.01371453
      49     dih       5       1       2       7     6.57009342    -0.06234309
      50     dih       5       1       2      11   172.35502844     0.07408987
      51     dih       5       1       2       3   267.85385074    -0.00047537
      52     dih       4       1       2       7   185.42152053    -0.05095589
      53     dih       4       1       2      11    -8.79354445     0.08547707
      54     dih       4       1       2       3    86.70527785     0.01091183
      55     dih       3       1       2       7    98.71624268    -0.06186772
      56     dih       3       1       2      11   264.50117770     0.07456523
      57     dih       1       2      11       3   109.40048400    -0.19872170
      58     dih       7       2      11       3   -84.29422319    -0.06629968
      59     dih       1       2       3       9    60.36685908     0.00334460
      60     dih       1       2       3       6   -59.59533627    -0.00972286
      61     dih       1       2       3       8   180.39271465    -0.00466263
      62     dih       1       2       3      11   238.63730923     0.00293806
      63     dih       7       2       3       9   -61.15415106     0.00023748
      64     dih       7       2       3       6   178.88365359    -0.01282998
      65     dih       7       2       3       8    58.87170451    -0.00776975
      66     dih       7       2       3      11   117.11629909    -0.00016907
      67     dih       7       2       3       1   238.47898986    -0.00310712
      68     dih      11       2       3       9   181.72954985     0.00040654
      69     dih      11       2       3       6    61.76735450    -0.01266092
      70     dih      11       2       3       8   -58.24459458    -0.00760068
      71     dih      11       2       3       1   121.36269077    -0.00293806
      72     dih       9       3      11       2     2.18228113     0.00109560
      73     dih       6       3      11       2   241.69106591    -0.02287307
      74     dih       8       3      11       2   121.13490928    -0.02871594
      75     dih       1       3      11       2   -27.75476779    -0.13643370
      76     dih       5       1       3       9    -6.70885435     0.01827374
      77     dih       5       1       3       6   234.46351100     0.00099457
      78     dih       5       1       3       8   113.97123608     0.00776909
      79     dih       5       1       3       2   113.51971531     0.01254754
      80     dih       5       1       3      11   150.13784247    -0.07792727
      81     dih       2       1       3       9   239.77143035     0.00572620
      82     dih       2       1       3       6   120.94379569    -0.01155297
      83     dih       2       1       3       8     0.45152078    -0.00477845
      84     dih       2       1       3      11    36.61812716    -0.09047481
      85     dih       4       1       3       9   123.80841936     0.00951319
      86     dih       4       1       3       6     4.98078471    -0.00776598
      87     dih       4       1       3       8   244.48850980    -0.00099145
      88     dih       4       1       3       2   244.03698902     0.00378699
      89     dih       4       1       3      11   -79.34488382    -0.08668781
 
----------------------------------------------------------------------
Geometry Convergence after Step   1       (Hartree/Angstrom,Angstrom)
----------------------------------------------------------------------
current energy                               -2.36448252 Hartree
energy change                      -2.36448252     0.00012000    F
constrained gradient max            0.07676766     0.00100000    F
constrained gradient rms            0.02410082     0.00066667    F
gradient max                        0.07676766
gradient rms                        0.02410082
cart. step max                      0.08133350     0.01000000    F
cart. step rms                      0.02255838     0.00666667    F
 
 
--------
Geometry
--------
Formula: C4H5F2O
Atoms
  Index Symbol   x (angstrom)   y (angstrom)   z (angstrom)
      1      C     0.82373250    -0.23623158     0.90382707
      2      C     0.83612034    -0.23725665    -0.52406734
      3      C    -1.53049095    -0.45736313    -1.29590394
      4      H     0.86127905    -1.16237655     1.47176087
      5      C     0.72913039     0.99047775     1.68445339
      6      H    -1.74495831    -1.40691198    -0.82056050
      7      H     0.89241004     0.67504357    -1.11012750
      8      H    -1.30555460    -0.44977388    -2.35633973
      9      H    -1.92354145     0.44537727    -0.84367576
     10      O     0.70397472     1.07027090     2.88338890
     11      F     1.05825676    -1.40865050    -1.22701067
     12      F     0.64140167     2.14942535     0.90535455
 
Total System Charge             0.00000
 
 *** GOStep2 ***

 Energy gradients wrt nuclear displacements
 ==========================================

     Atom      Cartesian (a.u./angstrom)
                 X         Y         Z
 ----------------------------------------
     1 C    -0.004799 -0.005342  0.108904
     2 C     0.002906  0.041372 -0.088448
     3 C     0.008564 -0.006972 -0.000499
     4 H    -0.000328 -0.002037  0.004628
     5 C     0.005025  0.004834 -0.005855
     6 H    -0.001853  0.000133 -0.000472
     7 H    -0.002322  0.007584  0.006135
     8 H    -0.000951  0.000208 -0.000476
     9 H     0.001397 -0.000022  0.000409
    10 O    -0.001737 -0.004712  0.014195
    11 F    -0.003735 -0.048598 -0.032364
    12 F    -0.002166  0.013549 -0.006157
 ----------------------------------------
 Mulliken charges used for AMS results%charges...
Hessian eigenvector     1(    -0.012) has overlap with TSRC:    0.66095E-01
Hessian eigenvector     1 has the largest overlap with TSRC:  0.06610
           Primitive Internal Coordinates (atoms in internal order)
-------------------------------------------------------------------------------
    index    type      i       j       k       l   value(A,deg)     Max Ovl Vect
-------------------------------------------------------------------------------
       1     bnd       1       5       0       0     1.45710082     0.01055013
       2     bnd       1       2       0       0     1.42794852     0.09301756
       3     bnd       3       9       0       0     1.08348477    -0.00030802
       4     bnd       1       4       0       0     1.08706166     0.00374011
       5     bnd       3       6       0       0     1.08332389     0.00004216
       6     bnd       2       7       0       0     1.08578393     0.00264907
       7     bnd       3       8       0       0     1.08405628     0.00023040
       8     bnd       5      10       0       0     1.20185112     0.00669982
       9     bnd       2      11       0       0     1.38406555     0.05319187
      10     bnd       5      12       0       0     1.39923225     0.01212632
      11     bnd       2       3       0       0     2.49900533    -0.03751668
      12     bnd       3      11       0       0     2.75886003    -0.02945552
      13     bnd       1       3       0       0     3.22956402     0.06064009
      14     ang       5       1       2       0   122.47195358    -0.04292902
      15     ang       5       1       4       0   116.07878373     0.02199661
      16     ang       5       1       3       0   112.03800442     0.12861476
      17     ang       2       1       4       0   121.43409933     0.02284267
      18     ang       2       1       3       0    47.55962211    -0.02569471
      19     ang       4       1       3       0   108.82595071    -0.03798616
      20     ang       1       2       7       0   122.65530805    -0.14043428
      21     ang       1       2      11       0   120.65474685     0.06599382
      22     ang       1       2       3       0   107.49925418     0.01688164
      23     ang       7       2      11       0   115.38268579     0.08810905
      24     ang       7       2       3       0    87.50068279    -0.04335228
      25     ang      11       2       3       0    85.44508203    -0.00821396
      26     ang       9       3       6       0   118.38140509    -0.00958093
      27     ang       9       3       8       0   118.53710241    -0.01058438
      28     ang       9       3       2       0    98.12016668    -0.01050410
      29     ang       9       3      11       0   128.11670143     0.00226490
      30     ang       9       3       1       0    85.58978386    -0.00357141
      31     ang       6       3       8       0   118.45290104     0.01041761
      32     ang       6       3       2       0    97.42125025     0.01094495
      33     ang       6       3      11       0    82.67918514     0.05219333
      34     ang       6       3       1       0    84.57540682    -0.00824445
      35     ang       8       3       2       0    96.02768253     0.02223834
      36     ang       8       3      11       0    80.33661862    -0.02781278
      37     ang       8       3       1       0   120.96719585     0.03097909
      38     ang      11       3       1       0    47.35831361     0.03651567
      39     ang       1       5      10       0   126.27723350    -0.03570511
      40     ang       1       5      12       0   113.77079034     0.02703625
      41     ang      10       5      12       0   119.94383205     0.00682525
      42     ang       2      11       3       0    64.54858188    -0.00651061
      43     dih       2       1       5      10   179.46324121     0.08712888
      44     dih       2       1       5      12     0.51018166    -0.23126391
      45     dih       4       1       5      10     0.86197999    -0.02568216
      46     dih       4       1       5      12   181.90892045    -0.34407495
      47     dih       3       1       5      10   126.71540284     0.05874037
      48     dih       3       1       5      12   -52.23765670    -0.25965242
      49     dih       5       1       2       7     7.30788779    -0.32061126
      50     dih       5       1       2      11   173.64341256    -0.24288273
      51     dih       5       1       2       3   268.81109462    -0.21495529
      52     dih       4       1       2       7   185.83544576    -0.20239774
      53     dih       4       1       2      11    -7.82902946    -0.12466920
      54     dih       4       1       2       3    87.33865259    -0.09674177
      55     dih       3       1       2       7    98.49679317    -0.10565597
      56     dih       3       1       2      11   264.83231795    -0.02792743
      57     dih       1       2      11       3   107.66372885     0.02227191
      58     dih       7       2      11       3   -85.05389347     0.06608868
      59     dih       1       2       3       9    60.59344146     0.03115317
      60     dih       1       2       3       6   -59.59154811     0.04096300
      61     dih       1       2       3       8   180.61426745     0.02292891
      62     dih       1       2       3      11   239.25747505    -0.06910591
      63     dih       7       2       3       9   -62.94826350     0.19573142
      64     dih       7       2       3       6   176.86674693     0.20554125
      65     dih       7       2       3       8    57.07256249     0.18750715
      66     dih       7       2       3      11   115.71577009     0.09547233
      67     dih       7       2       3       1   236.45829504     0.16457825
      68     dih      11       2       3       9   181.33596641     0.10025908
      69     dih      11       2       3       6    61.15097684     0.11006892
      70     dih      11       2       3       8   -58.64320759     0.09203482
      71     dih      11       2       3       1   120.74252495     0.06910591
      72     dih       9       3      11       2     1.68113547     0.12664705
      73     dih       6       3      11       2   241.12740260     0.09471263
      74     dih       8       3      11       2   120.52074647     0.09102376
      75     dih       1       3      11       2   -29.51785131     0.02946817
      76     dih       5       1       3       9    -5.61870375    -0.13346466
      77     dih       5       1       3       6   235.28893065    -0.12530623
      78     dih       5       1       3       8   115.21277680    -0.14024620
      79     dih       5       1       3       2   114.50035415    -0.16673026
      80     dih       5       1       3      11   150.25440689    -0.20497809
      81     dih       2       1       3       9   239.88094210     0.03326560
      82     dih       2       1       3       6   120.78857651     0.04142403
      83     dih       2       1       3       8     0.71242265     0.02648406
      84     dih       2       1       3      11    35.75405274    -0.03824783
      85     dih       4       1       3       9   124.10399643    -0.03296481
      86     dih       4       1       3       6     5.01163083    -0.02480638
      87     dih       4       1       3       8   244.93547697    -0.03974635
      88     dih       4       1       3       2   244.22305433    -0.06623041
      89     dih       4       1       3      11   -80.02289293    -0.10447824
 
----------------------------------------------------------------------
Geometry Convergence after Step   2       (Hartree/Angstrom,Angstrom)
----------------------------------------------------------------------
current energy                               -2.36388977 Hartree
energy change                       0.00059275     0.00012000    F
constrained gradient max            0.10889839     0.00100000    F
constrained gradient rms            0.02670260     0.00066667    F
gradient max                        0.10889839
gradient rms                        0.02670260
cart. step max                      0.10388932     0.01000000    F
cart. step rms                      0.02462833     0.00666667    F
 
 
--------
Geometry
--------
Formula: C4H5F2O
Atoms
  Index Symbol   x (angstrom)   y (angstrom)   z (angstrom)
      1      C     0.80258825    -0.23391519     0.90309248
      2      C     0.81672314    -0.22077520    -0.50740165
      3      C    -1.53658389    -0.47771227    -1.30937818
      4      H     0.83666980    -1.16239068     1.46700138
      5      C     0.73173574     0.99102151     1.68808284
      6      H    -1.74350300    -1.42448802    -0.82522002
      7      H     0.84780945     0.70205981    -1.07834204
      8      H    -1.30318774    -0.47861695    -2.36797180
      9      H    -1.94476998     0.42514161    -0.87084402
     10      O     0.71727937     1.06978216     2.88284776
     11      F     1.07170804    -1.37299343    -1.22547103
     12      F     0.74529099     2.15491723     0.91470365
 
Total System Charge             0.00000
 
 *** GOStep3 ***

 Energy gradients wrt nuclear displacements
 ==========================================

     Atom      Cartesian (a.u./angstrom)
                 X         Y         Z
 ----------------------------------------
     1 C    -0.001711 -0.004466  0.091543
     2 C    -0.001666  0.038112 -0.070733
     3 C     0.010328 -0.006308  0.000116
     4 H    -0.000437 -0.001929  0.004041
     5 C    -0.008542  0.004394  0.002034
     6 H    -0.001733  0.000085 -0.000444
     7 H    -0.003568  0.007947  0.007337
     8 H    -0.001149  0.000228 -0.000505
     9 H     0.001361  0.000049  0.000231
    10 O     0.003636 -0.004671  0.001332
    11 F    -0.000464 -0.044629 -0.030614
    12 F     0.003945  0.011186 -0.004338
 ----------------------------------------
 Mulliken charges used for AMS results%charges...
Hessian eigenvector     1(    -0.005) has overlap with TSRC:    0.11573E-01
Hessian eigenvector     1 has the largest overlap with TSRC:  0.01157
           Primitive Internal Coordinates (atoms in internal order)
-------------------------------------------------------------------------------
    index    type      i       j       k       l   value(A,deg)     Max Ovl Vect
-------------------------------------------------------------------------------
       1     bnd       1       5       0       0     1.45660560     0.00771201
       2     bnd       1       2       0       0     1.41062615    -0.01674014
       3     bnd       3       9       0       0     1.08354659     0.00032271
       4     bnd       1       4       0       0     1.08684016    -0.00033222
       5     bnd       3       6       0       0     1.08333234    -0.00002935
       6     bnd       2       7       0       0     1.08561676    -0.00073859
       7     bnd       3       8       0       0     1.08401800    -0.00009212
       8     bnd       5      10       0       0     1.19744538     0.02009134
       9     bnd       2      11       0       0     1.38139342    -0.00876066
      10     bnd       5      12       0       0     1.39748072     0.00110090
      11     bnd       2       3       0       0     2.49944734     0.00293019
      12     bnd       3      11       0       0     2.75894102    -0.00384444
      13     bnd       1       3       0       0     3.22896109     0.01633290
      14     ang       5       1       2       0   122.10828459    -0.02427611
      15     ang       5       1       4       0   116.12453999     0.00323524
      16     ang       5       1       3       0   113.42327312     0.11605025
      17     ang       2       1       4       0   121.76568277     0.02232167
      18     ang       2       1       3       0    47.37716173    -0.00726981
      19     ang       4       1       3       0   108.28419569    -0.05590359
      20     ang       1       2       7       0   122.28082104    -0.04607319
      21     ang       1       2      11       0   120.92038986     0.03300153
      22     ang       1       2       3       0   108.08572055     0.01329557
      23     ang       7       2      11       0   115.49085862     0.02193968
      24     ang       7       2       3       0    86.88149799    -0.04382244
      25     ang      11       2       3       0    85.48389799    -0.00109427
      26     ang       9       3       6       0   118.38399514    -0.00116971
      27     ang       9       3       8       0   118.49180022    -0.00456412
      28     ang       9       3       2       0    97.99996670    -0.00734515
      29     ang       9       3      11       0   127.89540805    -0.01218914
      30     ang       9       3       1       0    86.13984515     0.04170472
      31     ang       6       3       8       0   118.47846700     0.00364991
      32     ang       6       3       2       0    97.25446881    -0.01149505
      33     ang       6       3      11       0    83.30312604     0.06866300
      34     ang       6       3       1       0    84.15313634    -0.05480957
      35     ang       8       3       2       0    96.35590754     0.02367116
      36     ang       8       3      11       0    79.97247581    -0.05105755
      37     ang       8       3       1       0   120.87807048     0.01723313
      38     ang      11       3       1       0    47.06128539     0.00234896
      39     ang       1       5      10       0   126.41369133    -0.00235266
      40     ang       1       5      12       0   113.68299637     0.00306039
      41     ang      10       5      12       0   119.83525990     0.00101646
      42     ang       2      11       3       0    64.57282196     0.00266762
      43     dih       2       1       5      10   180.12536712    -0.25217333
      44     dih       2       1       5      12    -2.90414141     0.04565017
      45     dih       4       1       5      10     0.56265314    -0.32788004
      46     dih       4       1       5      12   177.53314461    -0.03005654
      47     dih       3       1       5      10   126.95224797    -0.29723501
      48     dih       3       1       5      12   -56.07726056     0.00058848
      49     dih       5       1       2       7     4.50960402    -0.25675086
      50     dih       5       1       2      11   170.85755174    -0.21116197
      51     dih       5       1       2       3   266.54230699    -0.19031869
      52     dih       4       1       2       7   184.04781956    -0.17761920
      53     dih       4       1       2      11    -9.60423272    -0.13203031
      54     dih       4       1       2       3    86.08052254    -0.11118703
      55     dih       3       1       2       7    97.96729702    -0.06643217
      56     dih       3       1       2      11   264.31524474    -0.02084328
      57     dih       1       2      11       3   108.40216815     0.01869287
      58     dih       7       2      11       3   -84.36942218     0.05324423
      59     dih       1       2       3       9    61.86427333     0.13243907
      60     dih       1       2       3       6   -58.25582105     0.13797872
      61     dih       1       2       3       8   181.88775519     0.13142148
      62     dih       1       2       3      11   238.90605521    -0.03611922
      63     dih       7       2       3       9   -61.15139205     0.19657244
      64     dih       7       2       3       6   178.72851356     0.20211209
      65     dih       7       2       3       8    58.87208980     0.19555485
      66     dih       7       2       3      11   115.89038982     0.02801415
      67     dih       7       2       3       1   236.98433461     0.06413337
      68     dih      11       2       3       9   182.95821812     0.16855829
      69     dih      11       2       3       6    62.83812373     0.17409795
      70     dih      11       2       3       8   -57.01830003     0.16754070
      71     dih      11       2       3       1   121.09394479     0.03611922
      72     dih       9       3      11       2     3.71316033     0.21239029
      73     dih       6       3      11       2   242.70553414     0.16017936
      74     dih       8       3      11       2   122.15394295     0.16225735
      75     dih       1       3      11       2   -29.06218868     0.02004799
      76     dih       5       1       3       9    -6.06386847    -0.00425350
      77     dih       5       1       3       6   234.86725882    -0.00463788
      78     dih       5       1       3       8   115.04925087     0.02126944
      79     dih       5       1       3       2   112.86312468    -0.12988919
      80     dih       5       1       3      11   148.58490972    -0.14985617
      81     dih       2       1       3       9   241.07300685     0.12563569
      82     dih       2       1       3       6   122.00413414     0.12525131
      83     dih       2       1       3       8     2.18612619     0.15115863
      84     dih       2       1       3      11    35.72178504    -0.01996698
      85     dih       4       1       3       9   124.36665628     0.04599948
      86     dih       4       1       3       6     5.29778357     0.04561511
      87     dih       4       1       3       8   245.47977562     0.07152243
      88     dih       4       1       3       2   243.29364943    -0.07963620
      89     dih       4       1       3      11   -80.98456553    -0.09960318
 
----------------------------------------------------------------------
Geometry Convergence after Step   3       (Hartree/Angstrom,Angstrom)
----------------------------------------------------------------------
current energy                               -2.36562746 Hartree
energy change                      -0.00173769     0.00012000    F
constrained gradient max            0.09153828     0.00100000    F
constrained gradient rms            0.02259954     0.00066667    F
gradient max                        0.09153828
gradient rms                        0.02259954
cart. step max                      0.05924339     0.01000000    F
cart. step rms                      0.01951798     0.00666667    F
 
 
--------
Geometry
--------
Formula: C4H5F2O
Atoms
  Index Symbol   x (angstrom)   y (angstrom)   z (angstrom)
      1      C     0.82174908    -0.23362637     0.88348719
      2      C     0.82639812    -0.21846179    -0.50073798
      3      C    -1.53689719    -0.46120071    -1.29588596
      4      H     0.86569850    -1.16409982     1.44206125
      5      C     0.71595621     0.97801362     1.68136139
      6      H    -1.74703940    -1.39956360    -0.79695992
      7      H     0.88451786     0.68053480    -1.10565865
      8      H    -1.30451919    -0.48331752    -2.35441063
      9      H    -1.93437599     0.45256107    -0.87008103
     10      O     0.69561881     1.05655277     2.87130508
     11      F     1.06860577    -1.37632274    -1.19599424
     12      F     0.68604759     2.14096087     0.91261286
 
Total System Charge             0.00000
 
 *** GOStep4 ***

 Energy gradients wrt nuclear displacements
 ==========================================

     Atom      Cartesian (a.u./angstrom)
                 X         Y         Z
 ----------------------------------------
     1 C     0.002066 -0.005776  0.055838
     2 C    -0.008252  0.034573 -0.040771
     3 C     0.011758 -0.005447  0.001411
     4 H    -0.000178 -0.000527  0.003821
     5 C    -0.008191  0.001230  0.012584
     6 H    -0.001464 -0.000168 -0.000835
     7 H     0.000670  0.004086  0.002424
     8 H    -0.000989 -0.000292 -0.000352
     9 H     0.001173  0.000239  0.000305
    10 O     0.003356 -0.002821 -0.012688
    11 F    -0.002761 -0.031691 -0.020366
    12 F     0.002811  0.006595 -0.001369
 ----------------------------------------
 Mulliken charges used for AMS results%charges...
Hessian eigenvector     1(    -0.004) has overlap with TSRC:    0.27848E-01
Hessian eigenvector     1 has the largest overlap with TSRC:  0.02785
           Primitive Internal Coordinates (atoms in internal order)
-------------------------------------------------------------------------------
    index    type      i       j       k       l   value(A,deg)     Max Ovl Vect
-------------------------------------------------------------------------------
       1     bnd       1       5       0       0     1.45460196     0.00427636
       2     bnd       1       2       0       0     1.38431604    -0.04001045
       3     bnd       3       9       0       0     1.08363270     0.00054591
       4     bnd       1       4       0       0     1.08614795    -0.00076299
       5     bnd       3       6       0       0     1.08333367    -0.00001680
       6     bnd       2       7       0       0     1.08512754    -0.00074033
       7     bnd       3       8       0       0     1.08395718    -0.00016360
       8     bnd       5      10       0       0     1.19270616     0.00425934
       9     bnd       2      11       0       0     1.37211071    -0.01060661
      10     bnd       5      12       0       0     1.39438701    -0.00235356
      11     bnd       2       3       0       0     2.50526390     0.00320104
      12     bnd       3      11       0       0     2.76334442    -0.00901424
      13     bnd       1       3       0       0     3.21942070     0.00862790
      14     ang       5       1       2       0   122.65645569    -0.02409777
      15     ang       5       1       4       0   115.74963278    -0.00214081
      16     ang       5       1       3       0   112.14261611     0.11217455
      17     ang       2       1       4       0   121.56634501     0.02729878
      18     ang       2       1       3       0    47.64931733    -0.00743076
      19     ang       4       1       3       0   108.49498993    -0.05771628
      20     ang       1       2       7       0   124.51930343    -0.02293841
      21     ang       1       2      11       0   119.86916786     0.01833013
      22     ang       1       2       3       0   108.24860068     0.01747850
      23     ang       7       2      11       0   114.02800555     0.00793917
      24     ang       7       2       3       0    87.35558466    -0.02677984
      25     ang      11       2       3       0    85.63745044    -0.00300912
      26     ang       9       3       6       0   118.57300954     0.00078556
      27     ang       9       3       8       0   118.65684531    -0.00316102
      28     ang       9       3       2       0    98.02453425    -0.01037546
      29     ang       9       3      11       0   127.65440448    -0.01523986
      30     ang       9       3       1       0    86.73943472     0.04795085
      31     ang       6       3       8       0   118.27166334     0.00034050
      32     ang       6       3       2       0    96.93465212    -0.01078028
      33     ang       6       3      11       0    83.07330893     0.07068807
      34     ang       6       3       1       0    83.77558528    -0.05857258
      35     ang       8       3       2       0    96.29745636     0.02585741
      36     ang       8       3      11       0    80.00336517    -0.05172193
      37     ang       8       3       1       0   120.36084718     0.01532907
      38     ang      11       3       1       0    46.22370996    -0.00458821
      39     ang       1       5      10       0   127.10931209     0.00370975
      40     ang       1       5      12       0   113.19536427     0.00150203
      41     ang      10       5      12       0   119.65352689    -0.00346576
      42     ang       2      11       3       0    64.68612250     0.00451300
      43     dih       2       1       5      10   179.48358969    -0.26374660
      44     dih       2       1       5      12    -2.89924074     0.03782795
      45     dih       4       1       5      10     1.36748748    -0.32651267
      46     dih       4       1       5      12   178.98465706    -0.02493812
      47     dih       3       1       5      10   126.57302034    -0.30679829
      48     dih       3       1       5      12   -55.80981009    -0.00522374
      49     dih       5       1       2       7     8.42652554    -0.21648033
      50     dih       5       1       2      11   173.19939266    -0.19941336
      51     dih       5       1       2       3   268.76574989    -0.18429534
      52     dih       4       1       2       7   186.43498121    -0.15103042
      53     dih       4       1       2      11    -8.79215167    -0.13396345
      54     dih       4       1       2       3    86.77420556    -0.11884542
      55     dih       3       1       2       7    99.66077565    -0.03218499
      56     dih       3       1       2      11   264.43364277    -0.01511803
      57     dih       1       2      11       3   108.56284664     0.02078758
      58     dih       7       2      11       3   -85.14284382     0.03293888
      59     dih       1       2       3       9    62.88449818     0.15297145
      60     dih       1       2       3       6   -57.36150982     0.15701997
      61     dih       1       2       3       8   183.07009579     0.15323665
      62     dih       1       2       3      11   239.94941699    -0.02024242
      63     dih       7       2       3       9   -62.71393984     0.18504751
      64     dih       7       2       3       6   177.04005216     0.18909603
      65     dih       7       2       3       8    57.47165776     0.18531271
      66     dih       7       2       3      11   114.35097897     0.01183364
      67     dih       7       2       3       1   234.40156198     0.03207606
      68     dih      11       2       3       9   182.93508119     0.17321387
      69     dih      11       2       3       6    62.68907319     0.17726239
      70     dih      11       2       3       8   -56.87932121     0.17347907
      71     dih      11       2       3       1   120.05058301     0.02024242
      72     dih       9       3      11       2     3.67187580     0.21818941
      73     dih       6       3      11       2   242.68719922     0.16268008
      74     dih       8       3      11       2   122.29577639     0.16859101
      75     dih       1       3      11       2   -29.31055126     0.01641467
      76     dih       5       1       3       9    -3.35041399     0.01913746
      77     dih       5       1       3       6   237.43328891     0.01711319
      78     dih       5       1       3       8   118.20433818     0.04979446
      79     dih       5       1       3       2   114.66720455    -0.12643531
      80     dih       5       1       3      11   151.07464459    -0.13429755
      81     dih       2       1       3       9   241.98238146     0.14557277
      82     dih       2       1       3       6   122.76608435     0.14354850
      83     dih       2       1       3       8     3.53713363     0.17622977
      84     dih       2       1       3      11    36.40744003    -0.00786224
      85     dih       4       1       3       9   125.75069610     0.05754810
      86     dih       4       1       3       6     6.53439900     0.05552383
      87     dih       4       1       3       8   247.30544827     0.08820510
      88     dih       4       1       3       2   243.76831464    -0.08802467
      89     dih       4       1       3      11   -79.82424532    -0.09588691
 
----------------------------------------------------------------------
Geometry Convergence after Step   4       (Hartree/Angstrom,Angstrom)
----------------------------------------------------------------------
current energy                               -2.36877599 Hartree
energy change                      -0.00314853     0.00012000    F
constrained gradient max            0.05583237     0.00100000    F
constrained gradient rms            0.01507558     0.00066667    F
gradient max                        0.05583237
gradient rms                        0.01507558
cart. step max                      0.08000675     0.01000000    F
cart. step rms                      0.02168345     0.00666667    F
 
 
--------
Geometry
--------
Formula: C4H5F2O
Atoms
  Index Symbol   x (angstrom)   y (angstrom)   z (angstrom)
      1      C     0.84085714    -0.23242719     0.87113024
      2      C     0.84286150    -0.22996709    -0.50129383
      3      C    -1.53393938    -0.43945780    -1.28306986
      4      H     0.90267202    -1.16338197     1.42638994
      5      C     0.68683936     0.96962941     1.67454384
      6      H    -1.74820101    -1.37602497    -0.78253246
      7      H     0.91520387     0.64871256    -1.13317753
      8      H    -1.30310628    -0.46539197    -2.34183053
      9      H    -1.91960682     0.47848890    -0.85554370
     10      O     0.68827069     1.05162259     2.86699411
     11      F     1.06386823    -1.39671649    -1.17365745
     12      F     0.60604084     2.12694458     0.90314657
 
Total System Charge             0.00000
 
 *** GOStep5 ***

 Energy gradients wrt nuclear displacements
 ==========================================

     Atom      Cartesian (a.u./angstrom)
                 X         Y         Z
 ----------------------------------------
     1 C     0.006058 -0.004013  0.035629
     2 C    -0.007882  0.028567 -0.026382
     3 C     0.012356 -0.004845  0.002082
     4 H     0.000522  0.000097  0.002754
     5 C    -0.016621 -0.001880  0.006687
     6 H    -0.001297 -0.000252 -0.000903
     7 H     0.003022  0.001318  0.000061
     8 H    -0.000711 -0.000499 -0.000257
     9 H     0.001032  0.000198  0.000426
    10 O     0.006089 -0.001005 -0.004055
    11 F    -0.006555 -0.022852 -0.014278
    12 F     0.003986  0.005165 -0.001764
 ----------------------------------------
 Mulliken charges used for AMS results%charges...
Hessian eigenvector     1(    -0.000) has overlap with TSRC:    0.10544E-01
Hessian eigenvector     1 has the largest overlap with TSRC:  0.01054
           Primitive Internal Coordinates (atoms in internal order)
-------------------------------------------------------------------------------
    index    type      i       j       k       l   value(A,deg)     Max Ovl Vect
-------------------------------------------------------------------------------
       1     bnd       1       5       0       0     1.45400652     0.00614819
       2     bnd       1       2       0       0     1.37242774    -0.01543984
       3     bnd       3       9       0       0     1.08357932     0.00013736
       4     bnd       1       4       0       0     1.08573072    -0.00129594
       5     bnd       3       6       0       0     1.08332995    -0.00001329
       6     bnd       2       7       0       0     1.08470658    -0.00154702
       7     bnd       3       8       0       0     1.08394219    -0.00004882
       8     bnd       5      10       0       0     1.19526674     0.03169349
       9     bnd       2      11       0       0     1.36463217    -0.01809553
      10     bnd       5      12       0       0     1.39318360     0.00113667
      11     bnd       2       3       0       0     2.51082506     0.01364173
      12     bnd       3      11       0       0     2.77072547     0.00341002
      13     bnd       1       3       0       0     3.21295786    -0.00325330
      14     ang       5       1       2       0   123.45094894     0.01594113
      15     ang       5       1       4       0   115.61454666    -0.00819431
      16     ang       5       1       3       0   110.20913371     0.00437528
      17     ang       2       1       4       0   120.85506433    -0.00811380
      18     ang       2       1       3       0    47.98880408     0.00474605
      19     ang       4       1       3       0   109.25186082    -0.01887133
      20     ang       1       2       7       0   125.73849712     0.01528486
      21     ang       1       2      11       0   119.43326422    -0.00320553
      22     ang       1       2       3       0   108.04894505    -0.00279640
      23     ang       7       2      11       0   113.25190735    -0.00836793
      24     ang       7       2       3       0    87.09615390    -0.01467711
      25     ang      11       2       3       0    85.90341236    -0.00026042
      26     ang       9       3       6       0   118.66496762     0.00530526
      27     ang       9       3       8       0   118.78002832     0.00083770
      28     ang       9       3       2       0    98.24417973    -0.01119288
      29     ang       9       3      11       0   127.64785944    -0.01943557
      30     ang       9       3       1       0    86.78688004     0.05943038
      31     ang       6       3       8       0   118.21207627    -0.00417514
      32     ang       6       3       2       0    96.63215132    -0.01562760
      33     ang       6       3      11       0    82.44410756     0.07675221
      34     ang       6       3       1       0    83.80630495    -0.08233818
      35     ang       8       3       2       0    96.00039888     0.02220217
      36     ang       8       3      11       0    80.24930885    -0.06508203
      37     ang       8       3       1       0   119.93618362     0.01961296
      38     ang      11       3       1       0    45.79588114    -0.00638541
      39     ang       1       5      10       0   127.43307054     0.00577779
      40     ang       1       5      12       0   112.76509268    -0.00868454
      41     ang      10       5      12       0   119.70102636     0.00371717
      42     ang       2      11       3       0    64.67318001     0.00469015
      43     dih       2       1       5      10   180.82990130    -0.18172762
      44     dih       2       1       5      12    -2.87174150    -0.04173643
      45     dih       4       1       5      10     4.05254645    -0.16000631
      46     dih       4       1       5      12   180.35090365    -0.02001512
      47     dih       3       1       5      10   128.53318684    -0.19010481
      48     dih       3       1       5      12   -55.16845596    -0.05011362
      49     dih       5       1       2       7    11.89062549    -0.00814570
      50     dih       5       1       2      11   176.56921909     0.00855271
      51     dih       5       1       2       3   272.16986851     0.00510035
      52     dih       4       1       2       7   188.50541701    -0.03090135
      53     dih       4       1       2      11    -6.81598939    -0.01420294
      54     dih       4       1       2       3    88.78466004    -0.01765530
      55     dih       3       1       2       7    99.72075697    -0.01324605
      56     dih       3       1       2      11   264.39935057     0.00345236
      57     dih       1       2      11       3   108.43604981    -0.00381083
      58     dih       7       2      11       3   -85.06340267     0.01547129
      59     dih       1       2       3       9    62.26035438     0.20042171
      60     dih       1       2       3       6   -58.05825450     0.20109602
      61     dih       1       2       3       8   182.55088721     0.20382223
      62     dih       1       2       3      11   240.34163760     0.00379170
      63     dih       7       2       3       9   -64.50763683     0.19013487
      64     dih       7       2       3       6   175.17375429     0.19080919
      65     dih       7       2       3       8    55.78289599     0.19353540
      66     dih       7       2       3      11   113.57364639    -0.00649513
      67     dih       7       2       3       1   233.23200879    -0.01028683
      68     dih      11       2       3       9   181.91871678     0.19663001
      69     dih      11       2       3       6    61.60010790     0.19730432
      70     dih      11       2       3       8   -57.79075040     0.20003053
      71     dih      11       2       3       1   119.65836240    -0.00379170
      72     dih       9       3      11       2     2.39850602     0.24761859
      73     dih       6       3      11       2   241.81367801     0.18242160
      74     dih       8       3      11       2   121.37197771     0.19138619
      75     dih       1       3      11       2   -29.49343580    -0.00199788
      76     dih       5       1       3       9    -1.36081829     0.20898626
      77     dih       5       1       3       6   239.34094691     0.20084212
      78     dih       5       1       3       8   120.24807666     0.25278531
      79     dih       5       1       3       2   117.32027754     0.01837170
      80     dih       5       1       3      11   153.86955180     0.01897857
      81     dih       2       1       3       9   241.31890417     0.19061457
      82     dih       2       1       3       6   122.02066937     0.18247042
      83     dih       2       1       3       8     2.92779912     0.23441361
      84     dih       2       1       3      11    36.54927426     0.00060687
      85     dih       4       1       3       9   126.70202533     0.18568132
      86     dih       4       1       3       6     7.40379053     0.17753717
      87     dih       4       1       3       8   248.31092028     0.22948036
      88     dih       4       1       3       2   245.38312116    -0.00493325
      89     dih       4       1       3      11   -78.06760458    -0.00432637
 
----------------------------------------------------------------------
Geometry Convergence after Step   5       (Hartree/Angstrom,Angstrom)
----------------------------------------------------------------------
current energy                               -2.36974554 Hartree
energy change                      -0.00096955     0.00012000    F
constrained gradient max            0.03562381     0.00100000    F
constrained gradient rms            0.01092169     0.00066667    F
gradient max                        0.03562381
gradient rms                        0.01092169
cart. step max                      0.07595139     0.01000000    F
cart. step rms                      0.01991297     0.00666667    F
 
 
--------
Geometry
--------
Formula: C4H5F2O
Atoms
  Index Symbol   x (angstrom)   y (angstrom)   z (angstrom)
      1      C     0.85458740    -0.23404203     0.86555909
      2      C     0.85408228    -0.24605117    -0.49610300
      3      C    -1.53021031    -0.41966253    -1.27382877
      4      H     0.92918630    -1.16315888     1.42218656
      5      C     0.68477469     0.96760732     1.66403283
      6      H    -1.74493354    -1.36704951    -0.79431707
      7      H     0.93085945     0.61847651    -1.14655876
      8      H    -1.29697600    -0.42225121    -2.33236029
      9      H    -1.91269597     0.48920183    -0.82473336
     10      O     0.68265989     1.05772603     2.85248680
     11      F     1.06033652    -1.41990130    -1.15128178
     12      F     0.53008945     2.11113552     0.88601709
 
Total System Charge             0.00000
 
 *** GOStep6 ***

 Energy gradients wrt nuclear displacements
 ==========================================

     Atom      Cartesian (a.u./angstrom)
                 X         Y         Z
 ----------------------------------------
     1 C     0.003439 -0.001960  0.019581
     2 C    -0.008013  0.023668 -0.011660
     3 C     0.012895 -0.004326  0.002407
     4 H     0.000797 -0.000112  0.001574
     5 C    -0.007146 -0.001361  0.014522
     6 H    -0.001207 -0.000200 -0.000844
     7 H     0.003941  0.000008 -0.001112
     8 H    -0.000443 -0.000508 -0.000185
     9 H     0.000811  0.000095  0.000578
    10 O     0.002372 -0.001375 -0.014397
    11 F    -0.007977 -0.016931 -0.010239
    12 F     0.000533  0.003002 -0.000225
 ----------------------------------------
 Mulliken charges used for AMS results%charges...
Hessian eigenvector     1(    -0.006) has overlap with TSRC:    0.25528E-01
Hessian eigenvector     1 has the largest overlap with TSRC:  0.02553
           Primitive Internal Coordinates (atoms in internal order)
-------------------------------------------------------------------------------
    index    type      i       j       k       l   value(A,deg)     Max Ovl Vect
-------------------------------------------------------------------------------
       1     bnd       1       5       0       0     1.45270707     0.00289904
       2     bnd       1       2       0       0     1.36171515    -0.03652882
       3     bnd       3       9       0       0     1.08352037     0.00038382
       4     bnd       1       4       0       0     1.08565983    -0.00070416
       5     bnd       3       6       0       0     1.08331880     0.00003416
       6     bnd       2       7       0       0     1.08461769    -0.00070530
       7     bnd       3       8       0       0     1.08392523     0.00001827
       8     bnd       5      10       0       0     1.19186774    -0.00511654
       9     bnd       2      11       0       0     1.36004564     0.00239478
      10     bnd       5      12       0       0     1.39172295     0.00008135
      11     bnd       2       3       0       0     2.51393107     0.00590989
      12     bnd       3      11       0       0     2.77964535    -0.03946142
      13     bnd       1       3       0       0     3.20915807    -0.01380856
      14     ang       5       1       2       0   123.83999994     0.00319880
      15     ang       5       1       4       0   115.73002076    -0.01070493
      16     ang       5       1       3       0   109.11102797     0.02669271
      17     ang       2       1       4       0   120.34243488     0.00700149
      18     ang       2       1       3       0    48.13247210     0.00266011
      19     ang       4       1       3       0   110.08167101    -0.04263521
      20     ang       1       2       7       0   126.34390111     0.01228679
      21     ang       1       2      11       0   119.29259025    -0.00621918
      22     ang       1       2       3       0   108.07822659     0.00298371
      23     ang       7       2      11       0   112.85013986    -0.00762164
      24     ang       7       2       3       0    86.36805712     0.02024487
      25     ang      11       2       3       0    86.28433613    -0.01889441
      26     ang       9       3       6       0   118.69364688     0.00287560
      27     ang       9       3       8       0   118.86377059     0.00018492
      28     ang       9       3       2       0    98.54845380    -0.01960913
      29     ang       9       3      11       0   127.77444026    -0.01951509
      30     ang       9       3       1       0    86.41638227     0.05732622
      31     ang       6       3       8       0   118.21772880    -0.00448684
      32     ang       6       3       2       0    96.39869372    -0.00488015
      33     ang       6       3      11       0    81.40311345     0.08423786
      34     ang       6       3       1       0    84.42178195    -0.07492434
      35     ang       8       3       2       0    95.63576734     0.02776273
      36     ang       8       3      11       0    80.88931064    -0.06484433
      37     ang       8       3       1       0   119.42402927     0.02144751
      38     ang      11       3       1       0    45.48104022    -0.00411872
      39     ang       1       5      10       0   127.64900830     0.00177593
      40     ang       1       5      12       0   112.66776978     0.00243779
      41     ang      10       5      12       0   119.67668344    -0.00316510
      42     ang       2      11       3       0    64.48945180     0.01494004
      43     dih       2       1       5      10   180.52802942    -0.18828493
      44     dih       2       1       5      12    -0.41589853    -0.00716923
      45     dih       4       1       5      10     3.92934492    -0.15863195
      46     dih       4       1       5      12   182.98541697     0.02248376
      47     dih       3       1       5      10   128.70493826    -0.20415767
      48     dih       3       1       5      12   -52.23898969    -0.02304197
      49     dih       5       1       2       7    13.16229195    -0.00579302
      50     dih       5       1       2      11   178.07877934    -0.01430253
      51     dih       5       1       2       3   274.10382188    -0.03839852
      52     dih       4       1       2       7   189.61170263    -0.03707426
      53     dih       4       1       2      11    -5.47180998    -0.04558378
      54     dih       4       1       2       3    90.55323256    -0.06967977
      55     dih       3       1       2       7    99.05847007     0.03260551
      56     dih       3       1       2      11   263.97495746     0.02409599
      57     dih       1       2      11       3   108.67072478    -0.00876017
      58     dih       7       2      11       3   -84.47660713    -0.01424831
      59     dih       1       2       3       9    60.15335962     0.21184373
      60     dih       1       2       3       6   -60.20592877     0.21449485
      61     dih       1       2       3       8   180.50836011     0.21400062
      62     dih       1       2       3      11   240.35908495     0.01300403
      63     dih       7       2       3       9   -66.99927218     0.19038324
      64     dih       7       2       3       6   172.64143944     0.19303436
      65     dih       7       2       3       8    53.35572832     0.19254014
      66     dih       7       2       3      11   113.20645316    -0.00845645
      67     dih       7       2       3       1   232.84736821    -0.02146048
      68     dih      11       2       3       9   179.79427466     0.19883969
      69     dih      11       2       3       6    59.43498628     0.20149081
      70     dih      11       2       3       8   -59.85072484     0.20099659
      71     dih      11       2       3       1   119.64091505    -0.01300403
      72     dih       9       3      11       2    -0.25737953     0.25044742
      73     dih       6       3      11       2   239.92979173     0.18218247
      74     dih       8       3      11       2   119.36248735     0.19354141
      75     dih       1       3      11       2   -29.45223865     0.00064289
      76     dih       5       1       3       9    -2.00764594     0.18628928
      77     dih       5       1       3       6   238.68643668     0.18127997
      78     dih       5       1       3       8   119.32332499     0.22845490
      79     dih       5       1       3       2   118.74249800    -0.01766451
      80     dih       5       1       3      11   155.26716551    -0.00395189
      81     dih       2       1       3       9   239.24985605     0.20395380
      82     dih       2       1       3       6   119.94393868     0.19894448
      83     dih       2       1       3       8     0.58082699     0.24611941
      84     dih       2       1       3      11    36.52466750     0.01371263
      85     dih       4       1       3       9   126.00741527     0.15755838
      86     dih       4       1       3       6     6.70149789     0.15254907
      87     dih       4       1       3       8   247.33838621     0.19972400
      88     dih       4       1       3       2   246.75755922    -0.04639541
      89     dih       4       1       3      11   -76.71777328    -0.03268279
 
----------------------------------------------------------------------
Geometry Convergence after Step   6       (Hartree/Angstrom,Angstrom)
----------------------------------------------------------------------
current energy                               -2.37039587 Hartree
energy change                      -0.00065033     0.00012000    F
constrained gradient max            0.02366493     0.00100000    F
constrained gradient rms            0.00802226     0.00066667    F
gradient max                        0.02366493
gradient rms                        0.00802226
cart. step max                      0.02548176     0.01000000    F
cart. step rms                      0.00912923     0.00666667    F
 
 
--------
Geometry
--------
Formula: C4H5F2O
Atoms
  Index Symbol   x (angstrom)   y (angstrom)   z (angstrom)
      1      C     0.85374800    -0.23570140     0.86157339
      2      C     0.85468680    -0.25292723    -0.48601261
      3      C    -1.53298686    -0.41447064    -1.27374150
      4      H     0.93346341    -1.16387582     1.41808988
      5      C     0.69057080     0.96737283     1.65902163
      6      H    -1.73807662    -1.37195233    -0.81037073
      7      H     0.91434721     0.60486114    -1.14627404
      8      H    -1.29242865    -0.39676946    -2.33042720
      9      H    -1.92477327     0.48331282    -0.81061315
     10      O     0.67724999     1.06621105     2.85209523
     11      F     1.07120861    -1.41598289    -1.13370209
     12      F     0.53475074     2.10195250     0.87146055
 
Total System Charge             0.00000
 
 *** GOStep7 ***

 Energy gradients wrt nuclear displacements
 ==========================================

     Atom      Cartesian (a.u./angstrom)
                 X         Y         Z
 ----------------------------------------
     1 C     0.001794 -0.002239 -0.007057
     2 C    -0.008940  0.011726  0.007312
     3 C     0.013769 -0.003405  0.002837
     4 H     0.000491  0.000358  0.000450
     5 C    -0.001924 -0.002399  0.000102
     6 H    -0.000953 -0.000220 -0.000758
     7 H     0.003469 -0.001993 -0.002422
     8 H    -0.000262 -0.000469 -0.000067
     9 H     0.000577  0.000095  0.000557
    10 O     0.000357  0.000598  0.003065
    11 F    -0.008106 -0.002695 -0.002602
    12 F    -0.000271  0.000643 -0.001417
 ----------------------------------------
 Mulliken charges used for AMS results%charges...
Hessian eigenvector     1(    -0.009) has overlap with TSRC:    0.45674E-01
Hessian eigenvector     1 has the largest overlap with TSRC:  0.04567
           Primitive Internal Coordinates (atoms in internal order)
-------------------------------------------------------------------------------
    index    type      i       j       k       l   value(A,deg)     Max Ovl Vect
-------------------------------------------------------------------------------
       1     bnd       1       5       0       0     1.45256259     0.00509929
       2     bnd       1       2       0       0     1.34769642    -0.06530103
       3     bnd       3       9       0       0     1.08351263     0.00082648
       4     bnd       1       4       0       0     1.08516031    -0.00033669
       5     bnd       3       6       0       0     1.08330304     0.00035081
       6     bnd       2       7       0       0     1.08411503     0.00007109
       7     bnd       3       8       0       0     1.08386634    -0.00002244
       8     bnd       5      10       0       0     1.19723476     0.01556572
       9     bnd       2      11       0       0     1.34873342     0.03722674
      10     bnd       5      12       0       0     1.38989329     0.00887274
      11     bnd       2       3       0       0     2.51944411    -0.03595768
      12     bnd       3      11       0       0     2.79364849    -0.14421964
      13     bnd       1       3       0       0     3.20749613    -0.04274045
      14     ang       5       1       2       0   124.02908471     0.00256072
      15     ang       5       1       4       0   115.79348284    -0.02165862
      16     ang       5       1       3       0   109.15047311     0.02587762
      17     ang       2       1       4       0   120.12027462     0.01806496
      18     ang       2       1       3       0    48.25121017    -0.00761117
      19     ang       4       1       3       0   110.38967378    -0.04824787
      20     ang       1       2       7       0   126.79171206     0.04952395
      21     ang       1       2      11       0   119.42705400    -0.03478830
      22     ang       1       2       3       0   108.22766470     0.01841109
      23     ang       7       2      11       0   112.39572556    -0.02910732
      24     ang       7       2       3       0    84.97824741     0.08674313
      25     ang      11       2       3       0    86.94489387    -0.05354478
      26     ang       9       3       6       0   118.75491694     0.00220515
      27     ang       9       3       8       0   118.90992940     0.00251777
      28     ang       9       3       2       0    98.96950626    -0.04252876
      29     ang       9       3      11       0   127.78400456    -0.02417950
      30     ang       9       3       1       0    86.46424233     0.04288276
      31     ang       6       3       8       0   118.25946544    -0.01275813
      32     ang       6       3       2       0    95.87462960     0.02508464
      33     ang       6       3      11       0    80.68746482     0.08949150
      34     ang       6       3       1       0    84.57048199    -0.04824827
      35     ang       8       3       2       0    95.36127429     0.03605596
      36     ang       8       3      11       0    81.24742922    -0.05397119
      37     ang       8       3       1       0   118.87955418     0.02454622
      38     ang      11       3       1       0    45.00542597    -0.00234230
      39     ang       1       5      10       0   128.07640644     0.01311894
      40     ang       1       5      12       0   112.18606134    -0.01733713
      41     ang      10       5      12       0   119.73748515     0.00509912
      42     ang       2      11       3       0    64.23249311     0.03187356
      43     dih       2       1       5      10   179.93407438    -0.15495069
      44     dih       2       1       5      12     0.01423072    -0.00278073
      45     dih       4       1       5      10     2.68939292    -0.09429821
      46     dih       4       1       5      12   182.76954926     0.05787176
      47     dih       3       1       5      10   127.96091365    -0.15827315
      48     dih       3       1       5      12   -51.95893000    -0.00610319
      49     dih       5       1       2       7    11.67371835     0.11030461
      50     dih       5       1       2      11   177.16478422     0.03726615
      51     dih       5       1       2       3   274.13436790    -0.03166484
      52     dih       4       1       2       7   188.80556093     0.04627824
      53     dih       4       1       2      11    -5.70337321    -0.02676022
      54     dih       4       1       2       3    91.26621048    -0.09569121
      55     dih       3       1       2       7    97.53935045     0.14196945
      56     dih       3       1       2      11   263.03041632     0.06893099
      57     dih       1       2      11       3   109.24035523    -0.01504763
      58     dih       7       2      11       3   -83.29234698    -0.07463073
      59     dih       1       2       3       9    58.72921648     0.22479694
      60     dih       1       2       3       6   -61.65732777     0.22651929
      61     dih       1       2       3       8   179.15234977     0.22628253
      62     dih       1       2       3      11   239.97148712     0.05411687
      63     dih       7       2       3       9   -68.43057564     0.13527843
      64     dih       7       2       3       6   171.18288011     0.13700078
      65     dih       7       2       3       8    51.99255765     0.13676401
      66     dih       7       2       3      11   112.81169500    -0.03540164
      67     dih       7       2       3       1   232.84020788    -0.08951851
      68     dih      11       2       3       9   178.75772936     0.17068007
      69     dih      11       2       3       6    58.37118511     0.17240242
      70     dih      11       2       3       8   -60.81913734     0.17216565
      71     dih      11       2       3       1   120.02851288    -0.05411687
      72     dih       9       3      11       2    -1.55269268     0.21488638
      73     dih       6       3      11       2   239.12666114     0.14456833
      74     dih       8       3      11       2   118.41696829     0.16864150
      75     dih       1       3      11       2   -29.24815829    -0.00541721
      76     dih       5       1       3       9    -3.28085034     0.20528960
      77     dih       5       1       3       6   237.37682048     0.20249173
      78     dih       5       1       3       8   117.98880505     0.24186314
      79     dih       5       1       3       2   118.95261898    -0.01838382
      80     dih       5       1       3      11   155.12547256     0.03492427
      81     dih       2       1       3       9   237.76653069     0.22367342
[...]
      51     ang       5      12       3       0   100.76952427     0.00014279
      52     dih       2       1       5      10   174.18181781     0.05244862
      53     dih       2       1       5      12    -6.13650425     0.06535901
      54     dih       2       1       5       3    49.02943226     0.06512313
      55     dih       4       1       5      10    -5.54259986     0.02495955
      56     dih       4       1       5      12   174.13907808     0.03786994
      57     dih       4       1       5       3   229.30501459     0.03763406
      58     dih       3       1       5      10   125.15238555    -0.01267451
      59     dih       3       1       5      12   -55.16593651     0.00023588
      60     dih       5       1       2       7    -1.22655370    -0.02576651
      61     dih       5       1       2      11   179.09515332    -0.02665743
      62     dih       5       1       2       3   -50.62056609    -0.06219334
      63     dih       4       1       2       7   178.48609604     0.00287557
      64     dih       4       1       2      11    -1.19219694     0.00198464
      65     dih       4       1       2       3   129.09208364    -0.03355127
      66     dih       3       1       2       7    49.39401239     0.03642683
      67     dih       3       1       2      11   229.71571942     0.03553591
      68     dih       1       5      12       3    71.59600457    -0.01248313
      69     dih      10       5      12       3   251.30321702    -0.00060966
      70     dih       1       2       3       9    76.33605135    -0.14028563
      71     dih       1       2       3       6   -40.44388317    -0.14047645
      72     dih       1       2       3       8   201.26486702    -0.14688372
      73     dih       1       2       3      12    52.68552998     0.02355488
      74     dih       1       2       3       5    23.35523529     0.02363911
      75     dih       7       2       3       9   -56.39352812    -0.12785873
      76     dih       7       2       3       6   186.82653736    -0.12804955
      77     dih       7       2       3       8    68.53528754    -0.13445681
      78     dih       7       2       3      12   -80.04404950     0.03598179
      79     dih       7       2       3       1   227.27042052     0.01242691
      80     dih       7       2       3       5   250.62565582     0.03606601
      81     dih      11       2       3       9   205.75217861    -0.15324741
      82     dih      11       2       3       6    88.97224409    -0.15343823
      83     dih      11       2       3       8   -29.31900572    -0.15984549
      84     dih      11       2       3      12   182.10165724     0.01059311
      85     dih      11       2       3       1   129.41612726    -0.01296178
      86     dih      11       2       3       5   152.77136255     0.01067733
      87     dih       9       3      12       5   146.00208806    -0.18890045
      88     dih       6       3      12       5    12.55077908    -0.13059850
      89     dih       8       3      12       5   254.75186980    -0.18991831
      90     dih       2       3      12       5   -59.25561311    -0.01729105
      91     dih       1       3      12       5   -32.81619562    -0.00361385
      92     dih       5       1       3       9    30.42264895    -0.16963892
      93     dih       5       1       3       6   270.11187199    -0.19550690
      94     dih       5       1       3       8   161.55790367    -0.20461170
      95     dih       5       1       3       2   137.86686827    -0.04355782
      96     dih       5       1       3      12    31.51341462    -0.00687608
      97     dih       2       1       3       9   252.55578068    -0.12608109
      98     dih       2       1       3       6   132.24500372    -0.15194908
      99     dih       2       1       3       8    23.69103540    -0.16105388
     100     dih       2       1       3      12   253.64654635     0.03668175
     101     dih       2       1       3       5   222.13313173     0.04355782
     102     dih       4       1       3       9   140.11910720    -0.15807297
     103     dih       4       1       3       6    19.80833024    -0.18394095
     104     dih       4       1       3       8   271.25436192    -0.19304576
     105     dih       4       1       3       2   247.56332652    -0.03199188
     106     dih       4       1       3      12   141.20987287     0.00468987
     107     dih       4       1       3       5   109.69645825     0.01156594
     108     dih       9       3       5       1   210.27833209    -0.16104592
     109     dih       9       3       5      10    78.68563409    -0.15541858
     110     dih       9       3       5      12   -30.92507525    -0.15876236
     111     dih       6       3       5       1    75.84221001    -0.15635071
     112     dih       6       3       5      10   -55.75048799    -0.15072337
     113     dih       6       3       5      12   194.63880267    -0.15406715
     114     dih       8       3       5       1   -24.01073031    -0.25360450
     115     dih       8       3       5      10   204.39657169    -0.24797716
     116     dih       8       3       5      12    94.78586235    -0.25132094
     117     dih       2       3       5       1   -21.03120547    -0.02208795
     118     dih       2       3       5      10   207.37609653    -0.01646061
     119     dih       2       3       5      12    97.76538719    -0.01980438
     120     dih      12       3       5       1   241.20340734    -0.00228357
     121     dih      12       3       5      10   109.61070934     0.00334377
     122     dih       1       3       5      10   228.40730200     0.00562734
     123     dih       1       3       5      12   118.79659266     0.00228357
 
----------------------------------------------------------------------
Geometry Convergence after Step  65       (Hartree/Angstrom,Angstrom)
----------------------------------------------------------------------
current energy                               -2.38005976 Hartree
energy change                      -0.00009235     0.00012000    T
constrained gradient max            0.02469345     0.00100000    F
constrained gradient rms            0.00563269     0.00066667    F
gradient max                        0.02469345
gradient rms                        0.00563269
cart. step max                      0.04104460     0.01000000    F
cart. step rms                      0.01481062     0.00666667    F
 
 
--------
Geometry
--------
Formula: C4H5F2O
Atoms
  Index Symbol   x (angstrom)   y (angstrom)   z (angstrom)
      1      C     1.32829645    -0.35970765     0.94394444
      2      C     1.60042492    -0.44615401    -0.35378174
      3      C    -2.24863132    -0.01968920    -1.36237820
      4      H     1.71394531    -1.10320669     1.63508931
      5      C     0.51111303     0.70230339     1.53996772
      6      H    -2.09212281    -0.63205607    -0.48368302
      7      H     1.24744844     0.22781116    -1.12991720
      8      H    -2.26196703    -0.47431763    -2.34543509
      9      H    -2.44022847     1.04042816    -1.25518589
     10      O     0.15245399     0.78462282     2.67641994
     11      F     2.36701140    -1.42835234    -0.82774756
     12      F     0.16401625     1.68034862     0.63380666
 
Total System Charge             0.00000
 
 *** GOStep66 ***

 Energy gradients wrt nuclear displacements
 ==========================================

     Atom      Cartesian (a.u./angstrom)
                 X         Y         Z
 ----------------------------------------
     1 C     0.005168 -0.005108 -0.021809
     2 C    -0.000852 -0.005720  0.014789
     3 C     0.001713  0.000023  0.002000
     4 H     0.000789 -0.000451 -0.000476
     5 C    -0.003114  0.004803  0.000821
     6 H     0.000734  0.000408  0.000200
     7 H    -0.001138  0.000042 -0.000436
     8 H     0.000213  0.000502 -0.000228
     9 H    -0.000244 -0.000015 -0.000420
    10 O    -0.000429  0.000101 -0.000482
    11 F    -0.002975  0.006179  0.004629
    12 F     0.000134 -0.000763  0.001412
 ----------------------------------------
 Mulliken charges used for AMS results%charges...
Hessian eigenvector     1(    -0.000) has overlap with TSRC:    0.11975E-01
Hessian eigenvector     1 has the largest overlap with TSRC:  0.01198
           Primitive Internal Coordinates (atoms in internal order)
-------------------------------------------------------------------------------
    index    type      i       j       k       l   value(A,deg)     Max Ovl Vect
-------------------------------------------------------------------------------
       1     bnd       1       5       0       0     1.46659467     0.02564116
       2     bnd       1       2       0       0     1.32876639     0.01908553
       3     bnd       3       9       0       0     1.08261187    -0.00009216
       4     bnd       1       4       0       0     1.08590842     0.00087851
       5     bnd       3       6       0       0     1.08240164     0.00064304
       6     bnd       2       7       0       0     1.08683379     0.00414136
       7     bnd       3       8       0       0     1.08317390    -0.00037226
       8     bnd       5      10       0       0     1.19454445    -0.00311929
       9     bnd       2      11       0       0     1.33304613     0.01066780
      10     bnd       5      12       0       0     1.37774327    -0.01057086
      11     bnd       2       3       0       0     4.00179622     0.11646941
      12     bnd       3      12       0       0     3.56310972     0.11893503
      13     bnd       1       3       0       0     4.26956074     0.04531671
      14     bnd       3       5       0       0     4.06952994     0.09114685
      15     ang       5       1       2       0   123.92651997    -0.00519308
      16     ang       5       1       4       0   115.78673453     0.00320985
      17     ang       5       1       3       0    72.24506082     0.01655211
      18     ang       2       1       4       0   120.28646439     0.00220079
      19     ang       2       1       3       0    69.46350444     0.03003047
      20     ang       4       1       3       0   134.09566221    -0.03677067
      21     ang       1       2       7       0   126.19864311    -0.01581082
      22     ang       1       2      11       0   120.86065855     0.01404913
      23     ang       1       2       3       0    92.42055675    -0.03134896
      24     ang       7       2      11       0   112.93993835     0.00175490
      25     ang       7       2       3       0    56.05138027     0.03972324
      26     ang      11       2       3       0   122.82149505    -0.01305089
      27     ang       9       3       6       0   119.94736863    -0.00323367
      28     ang       9       3       8       0   119.91270712    -0.00252419
      29     ang       9       3       2       0   104.45510101    -0.01332476
      30     ang       9       3      12       0    66.24387126    -0.03808792
      31     ang       9       3       1       0    99.94863169    -0.05476718
      32     ang       9       3       5       0    82.85814985    -0.07948461
      33     ang       6       3       8       0   120.07228416     0.00680446
      34     ang       6       3       2       0    66.17347022    -0.00348696
      35     ang       6       3      12       0    73.57397713     0.09909695
      36     ang       6       3       1       0    52.79208821     0.03177773
      37     ang       6       3       5       0    54.78456678     0.09528765
      38     ang       8       3       2       0   101.29458568    -0.00137962
      39     ang       8       3      12       0   135.81128717    -0.10383558
      40     ang       8       3       1       0   117.84871858     0.01349221
      41     ang       8       3       5       0   136.89336192    -0.02828730
      42     ang       2       3      12       0    42.12971495    -0.01297688
      43     ang       2       3       5       0    35.59935074    -0.00432381
      44     ang      12       3       1       0    33.70527930    -0.00409821
      45     ang       1       5      10       0   127.14506574    -0.00150875
      46     ang       1       5      12       0   112.77640981    -0.00417022
      47     ang       1       5       3       0    87.68182358    -0.01701336
      48     ang      10       5      12       0   120.07719024     0.00568788
      49     ang      10       5       3       0   119.15145902     0.00448424
      50     ang      12       5       3       0    59.07089617     0.01234877
      51     ang       5      12       3       0   101.55796318    -0.00683916
      52     dih       2       1       5      10   174.27003574     0.05816726
      53     dih       2       1       5      12    -6.15424560     0.06083449
      54     dih       2       1       5       3    48.75318433     0.06704834
      55     dih       4       1       5      10    -5.53701158     0.02474859
      56     dih       4       1       5      12   174.03870708     0.02741582
      57     dih       4       1       5       3   228.94613701     0.03362967
      58     dih       3       1       5      10   125.51685142    -0.00888108
      59     dih       3       1       5      12   -54.90742993    -0.00621385
      60     dih       5       1       2       7    -1.30707588    -0.03223387
      61     dih       5       1       2      11   179.03318241    -0.03098869
      62     dih       5       1       2       3   -49.87667511    -0.06516479
      63     dih       4       1       2       7   178.49172502     0.00259515
      64     dih       4       1       2      11    -1.16801669     0.00384033
      65     dih       4       1       2       3   129.92212579    -0.03033577
      66     dih       3       1       2       7    48.56959923     0.03293092
      67     dih       3       1       2      11   228.90985752     0.03417610
      68     dih       1       5      12       3    72.37879343    -0.01105043
      69     dih      10       5      12       3   251.98797155    -0.00861578
      70     dih       1       2       3       9    77.63392226    -0.13932198
      71     dih       1       2       3       6   -39.09155622    -0.13924437
      72     dih       1       2       3       8   202.84831690    -0.14713591
      73     dih       1       2       3      12    52.47889994     0.02522297
      74     dih       1       2       3       5    23.12904789     0.02432068
      75     dih       7       2       3       9   -55.53282908    -0.12544825
      76     dih       7       2       3       6   187.74169244    -0.12537065
      77     dih       7       2       3       8    69.68156556    -0.13326218
      78     dih       7       2       3      12   -80.68785140     0.03909670
      79     dih       7       2       3       1   226.83324866     0.01387373
      80     dih       7       2       3       5   249.96229655     0.03819441
      81     dih      11       2       3       9   207.29187282    -0.15201283
      82     dih      11       2       3       6    90.56639434    -0.15193522
      83     dih      11       2       3       8   -27.49373254    -0.15982676
      84     dih      11       2       3      12   182.13685049     0.01253212
      85     dih      11       2       3       1   129.65795056    -0.01269085
      86     dih      11       2       3       5   152.78699844     0.01162983
      87     dih       9       3      12       5   147.38602398    -0.19114833
      88     dih       6       3      12       5    13.08856477    -0.13225814
      89     dih       8       3      12       5   256.58755061    -0.19247105
      90     dih       2       3      12       5   -59.33957004    -0.01837622
      91     dih       1       3      12       5   -32.95354115    -0.00410339
      92     dih       5       1       3       9    32.02959894    -0.17034425
      93     dih       5       1       3       6   271.81883342    -0.19557571
      94     dih       5       1       3       8   163.73345109    -0.20615094
      95     dih       5       1       3       2   138.22470739    -0.04479071
      96     dih       5       1       3      12    31.71406123    -0.00588602
      97     dih       2       1       3       9   253.80489155    -0.12555353
      98     dih       2       1       3       6   133.59412603    -0.15078500
      99     dih       2       1       3       8    25.50874370    -0.16136023
     100     dih       2       1       3      12   253.48935384     0.03890469
     101     dih       2       1       3       5   221.77529261     0.04479071
     102     dih       4       1       3       9   141.04233002    -0.15576592
     103     dih       4       1       3       6    20.83156450    -0.18099738
     104     dih       4       1       3       8   272.74618216    -0.19157261
     105     dih       4       1       3       2   247.23743847    -0.03021238
     106     dih       4       1       3      12   140.72679230     0.00869231
     107     dih       4       1       3       5   109.01273108     0.01457833
     108     dih       9       3       5       1   211.76705252    -0.16196826
     109     dih       9       3       5      10    79.74630841    -0.15001154
     110     dih       9       3       5      12   -29.81263111    -0.16107285
     111     dih       6       3       5       1    76.99842533    -0.15675950
     112     dih       6       3       5      10   -55.02231878    -0.14480277
     113     dih       6       3       5      12   195.41874170    -0.15586408
     114     dih       8       3       5       1   -21.24914226    -0.25538673
     115     dih       8       3       5      10   206.73011363    -0.24343000
     116     dih       8       3       5      12    97.17117411    -0.25449131
     117     dih       2       3       5       1   -20.84628588    -0.02268760
     118     dih       2       3       5      10   207.13297002    -0.01073087
     119     dih       2       3       5      12    97.57403050    -0.02179218
     120     dih      12       3       5       1   241.57968363    -0.00089542
     121     dih      12       3       5      10   109.55893952     0.01106131
     122     dih       1       3       5      10   227.97925589     0.01195672
     123     dih       1       3       5      12   118.42031637     0.00089542
 
----------------------------------------------------------------------
Geometry Convergence after Step  66       (Hartree/Angstrom,Angstrom)
----------------------------------------------------------------------
current energy                               -2.38013951 Hartree
energy change                      -0.00007974     0.00012000    T
constrained gradient max            0.02181005     0.00100000    F
constrained gradient rms            0.00498976     0.00066667    F
gradient max                        0.02181005
gradient rms                        0.00498976
cart. step max                      0.04194211     0.01000000    F
cart. step rms                      0.01496718     0.00666667    F
 
 
--------
Geometry
--------
Formula: C4H5F2O
Atoms
  Index Symbol   x (angstrom)   y (angstrom)   z (angstrom)
      1      C     1.34257305    -0.36162441     0.94910158
      2      C     1.62065627    -0.44767363    -0.34852306
      3      C    -2.26999638    -0.00975385    -1.36876303
      4      H     1.73427173    -1.09898567     1.64336263
      5      C     0.51040148     0.69138413     1.53958444
      6      H    -2.10219842    -0.60300556    -0.47912710
      7      H     1.26288730     0.22026476    -1.12755787
      8      H    -2.30390914    -0.48585378    -2.34109282
      9      H    -2.45263719     1.05384709    -1.28217204
     10      O     0.14563685     0.77266714     2.67419035
     11      F     2.40101412    -1.42197472    -0.81780313
     12      F     0.15306048     1.66273909     0.62989941
 
Total System Charge             0.00000
 
 *** GOStep67 ***
