
 *******************************************************************************
 *                                                                             *
 *  --------------------------------                                           *
 *   Amsterdam Modeling Suite (AMS)              2021.102                      *
 *  --------------------------------                                           *
 *                                               r95042 2021-06-07             *
 *                                                                             *
 *                                                                             *
 *                              =================                              *
 *                              |               |                              *
 *                              |     A M S     |                              *
 *                              |               |                              *
 *                              =================                              *
 *                                                                             *
 *                                                                             *
 *   Online information and documentation:  https://www.scm.com/support/       *
 *   E-mail:  support@scm.com   info@scm.com                                   *
 *                                                                             *
 *   Scientific publications using AMS results must be properly referenced     *
 *   See the User Manuals (or the web site) for recommended citations          *
 *   The terms and conditions of the End User License Agreement apply to       *
 *   the use of AMS, https://www.scm.com/license-terms/                        *
 *                                                                             *
 **********************  x86_64_linux_intel / intelmpi  ************************
 
 Licensed to: VU/FEW (+ SARA) / ALGEMEEN / Amsterdam / THE NETHERLANDS
 SCM User ID: u7668
  
 AMS 2021.102  RunTime: Jan20-2022 14:26:50  ShM Nodes: 1  Procs: 1

 AMS jobname: 7.no_catalyst_F_F.TS
 AMS jobid  : 822093565

 Start   directory: /scistor/tc/yhk800/MasterProject/calculations/no_catalyst_F_F/7.no_catalyst_F_F.TS/
 Results directory: /scistor/tc/yhk800/MasterProject/calculations/no_catalyst_F_F/7.no_catalyst_F_F.TS/
 Scratch directory: /scratch/3543/amstmp_7.no_catalyst_F_F.TS_kid0.822093565/

 RNG seed: 1283002410 -340295997 2073591961 -623440646 -723982607 797722357 901113493 -1807054312



                      ************************************************************************
                      *  ADF 2021.102  RunTime: Jan20-2022 14:26:50  ShM Nodes: 1  Procs: 1  *
                      ************************************************************************
  
       *****************************
       *  TRANSITION STATE SEARCH  *
       *****************************

Optimization Method                    Quasi Newton
Optimization Coordinates               Delocalized Coordinates
Optimize lattice                       F
 
 ------------------------------------------------------
 Convergence criteria (Hartree,Angstrom)
 ------------------------------------------------------
 Maximum gradient               0.001000000000
 Maximum rms gradient           0.000666666667
 Maximum step allowed           0.010000000000
 Maximum rms step allowed       0.006666666667
 Maximum energy change allowe   0.000120000000
 Maximum stress energy allowe   0.000500000000
 
Initial model Hessian                  Automatic Hessian
 
------------------------------------
Quasi-Newton Optimizer Parameters
------------------------------------
Hessian Update Method                  Bofill
Maximum number of steps                  250
First GDIIS cycle                          0
Maximum GDIIS vectors                      0
Trust radius (bohr)                        0.200000
Trust radius varies                        F
Constraints converged at all steps         T
Use projector                              T
 
 Rigid motions settings for: old optimizer
 Atomic rotations (x,y,z):     T T T
 Atomic translations (x,y,z):  T T T
 Tolerance:                   1.000000000000000E-006
 
           1  TSRC entries:
    i   type      a1    a2    a3    a4    coef
    1 Distance     2     3               -1.000
 
--------
Geometry
--------
Formula: C4H5F2O
Atoms
  Index Symbol   x (angstrom)   y (angstrom)   z (angstrom)
      1      C     0.81668000    -0.23471900     0.88197500
      2      C     0.81678400    -0.23413100    -0.47719300
      3      C    -1.53160000    -0.46998000    -1.30857600
      4      H     0.85636200    -1.16386700     1.44859300
      5      C     0.73893400     1.00063500     1.66014300
      6      H    -1.75224300    -1.42324600    -0.84366900
      7      H     0.86540100     0.70149500    -1.02879400
      8      H    -1.29572100    -0.45322200    -2.36675600
      9      H    -1.93437200     0.42729600    -0.85485600
     10      O     0.73088900     1.05622100     2.88164900
     11      F     1.05157196    -1.41471295    -1.21149598
     12      F     0.67907420     2.18026153     0.89007934
 
Total System Charge             0.00000
 
 
----------------
ADF Engine Input
----------------
 
 NumericalQuality VeryGood
 SCF
 Converge 1.0e-6
 Iterations 99
 End
 SYMMETRY NOSYM
 SpinPolarization 1.0
 Unrestricted Yes
 XC
 GGA OLYP
 End
 basis
 core None
 type TZ2P
 End
 

 Title: *** (NO TITLE) ***

 Using automatic Hessian for delocalized coordinates.
 *** GOStep1 ***

 Energy gradients wrt nuclear displacements
 ==========================================

     Atom      Cartesian (a.u./angstrom)
                 X         Y         Z
 ----------------------------------------
     1 C    -0.000812 -0.001441  0.020712
     2 C    -0.010840  0.045306  0.008948
     3 C     0.013482 -0.005487  0.001980
     4 H    -0.000166 -0.006532  0.000649
     5 C     0.000380  0.000518 -0.063392
     6 H    -0.002149  0.000374 -0.000432
     7 H    -0.001717  0.014259  0.015519
     8 H    -0.001328  0.000324 -0.001004
     9 H     0.001158 -0.000764 -0.000000
    10 O     0.000315 -0.008893  0.076773
    11 F     0.002630 -0.067346 -0.042351
    12 F    -0.000954  0.029683 -0.017402
 ----------------------------------------
 Mulliken charges used for AMS results%charges...
           Primitive Internal Coordinates (atoms in internal order)
-------------------------------------------------------------------------------
    index    type      i       j       k       l   value(A,deg)     TSRC Vect
-------------------------------------------------------------------------------
       1     bnd       1       5       0       0     1.46208392    -0.00000000
       2     bnd       1       2       0       0     1.35916813     0.10315886
       3     bnd       3       9       0       0     1.08313958     0.00000000
       4     bnd       1       4       0       0     1.08901177    -0.00000000
       5     bnd       3       6       0       0     1.08329955     0.00000000
       6     bnd       2       7       0       0     1.08720894     0.00000000
       7     bnd       3       8       0       0     1.08428070    -0.00000000
       8     bnd       5      10       0       0     1.22279656    -0.00000000
       9     bnd       2      11       0       0     1.41000000     0.03676003
      10     bnd       5      12       0       0     1.41000000    -0.00000000
      11     bnd       2       3       0       0     2.50234487    -0.35887021
      12     bnd       3      11       0       0     2.75222133    -0.15957066
      13     bnd       1       3       0       0     3.21998143    -0.19387568
      14     ang       5       1       2       0   122.13193049     0.00530576
      15     ang       5       1       4       0   116.48149708    -0.01751154
      16     ang       5       1       3       0   112.64562536     0.00890526
      17     ang       2       1       4       0   121.37727346     0.01181694
      18     ang       2       1       3       0    47.13980479    -0.06057879
      19     ang       4       1       3       0   108.55407601     0.03621682
      20     ang       1       2       7       0   120.51279539     0.00310371
      21     ang       1       2      11       0   121.36128198    -0.02631792
      22     ang       1       2       3       0   109.39804563     0.03460659
      23     ang       7       2      11       0   116.67222795     0.00714605
      24     ang       7       2       3       0    87.39281970    -0.02244698
      25     ang      11       2       3       0    84.51010433     0.05535709
      26     ang       9       3       6       0   118.25885447    -0.00057754
      27     ang       9       3       8       0   118.48323850     0.00069000
      28     ang       9       3       2       0    97.56929804    -0.00386000
      29     ang       9       3      11       0   128.21390110     0.02572575
      30     ang       9       3       1       0    85.73843521    -0.01649501
      31     ang       6       3       8       0   118.47247906    -0.00035183
      32     ang       6       3       2       0    97.55621160     0.00784235
      33     ang       6       3      11       0    82.75975470    -0.00909544
      34     ang       6       3       1       0    85.46171991    -0.00608310
      35     ang       8       3       2       0    96.81291220    -0.00342000
      36     ang       8       3      11       0    80.53456734    -0.01606283
      37     ang       8       3       1       0   120.27444570     0.02255234
      38     ang      11       3       1       0    46.88964471     0.04580478
      39     ang       1       5      10       0   124.78014579    -0.00000000
      40     ang       1       5      12       0   114.73739867    -0.00000000
      41     ang      10       5      12       0   120.48134630     0.00000000
      42     ang       2      11       3       0    64.82849652    -0.08487942
      43     dih       2       1       5      10   179.74813341    -0.02997891
      44     dih       2       1       5      12    -0.63506953    -0.02997891
      45     dih       4       1       5      10     0.84367616    -0.00719439
      46     dih       4       1       5      12   180.46047323    -0.00719439
      47     dih       3       1       5      10   127.21624574     0.03717330
      48     dih       3       1       5      12   -53.16695720     0.03717330
      49     dih       5       1       2       7     6.57009342     0.02349142
      50     dih       5       1       2      11   172.35502844    -0.05271864
      51     dih       5       1       2       3   267.85385074     0.02752071
      52     dih       4       1       2       7   185.42152053    -0.00071568
      53     dih       4       1       2      11    -8.79354445    -0.07692573
      54     dih       4       1       2       3    86.70527785     0.00331362
      55     dih       3       1       2       7    98.71624268    -0.00402930
      56     dih       3       1       2      11   264.50117770    -0.08023936
      57     dih       1       2      11       3   109.40048400     0.07164399
      58     dih       7       2      11       3   -84.29422319    -0.00209407
      59     dih       1       2       3       9    60.36685908     0.00058381
      60     dih       1       2       3       6   -59.59533627     0.00026548
      61     dih       1       2       3       8   180.39271465    -0.00029465
      62     dih       1       2       3      11   238.63730923     0.00491410
      63     dih       7       2       3       9   -61.15415106     0.00027518
      64     dih       7       2       3       6   178.88365359    -0.00004315
      65     dih       7       2       3       8    58.87170451    -0.00060329
      66     dih       7       2       3      11   117.11629909     0.00460546
      67     dih       7       2       3       1   238.47898986    -0.00030863
      68     dih      11       2       3       9   181.72954985    -0.00433029
      69     dih      11       2       3       6    61.76735450    -0.00464862
      70     dih      11       2       3       8   -58.24459458    -0.00520875
      71     dih      11       2       3       1   121.36269077    -0.00491410
      72     dih       9       3      11       2     2.18228113    -0.00467341
      73     dih       6       3      11       2   241.69106591    -0.00441990
      74     dih       8       3      11       2   121.13490928    -0.01044677
      75     dih       1       3      11       2   -27.75476779    -0.01050167
      76     dih       5       1       3       9    -6.70885435     0.00031044
      77     dih       5       1       3       6   234.46351100    -0.00205957
      78     dih       5       1       3       8   113.97123608    -0.00348105
      79     dih       5       1       3       2   113.51971531    -0.00324925
      80     dih       5       1       3      11   150.13784247     0.00411839
      81     dih       2       1       3       9   239.77143035     0.00355969
      82     dih       2       1       3       6   120.94379569     0.00118967
      83     dih       2       1       3       8     0.45152078    -0.00023181
      84     dih       2       1       3      11    36.61812716     0.00736764
      85     dih       4       1       3       9   123.80841936     0.01411574
      86     dih       4       1       3       6     4.98078471     0.01174572
      87     dih       4       1       3       8   244.48850980     0.01032425
      88     dih       4       1       3       2   244.03698902     0.01055605
      89     dih       4       1       3      11   -79.34488382     0.01792369
Hessian eigenvector     1(     0.006) has overlap with TSRC:    0.71538E-04
Hessian eigenvector     2(     0.009) has overlap with TSRC:    0.43806E-01
Hessian eigenvector     3(     0.010) has overlap with TSRC:    0.46260E-01
Hessian eigenvector     4(     0.012) has overlap with TSRC:    0.78012E-01
Hessian eigenvector     5(     0.012) has overlap with TSRC:    0.19726E-01
Hessian eigenvector     6(     0.014) has overlap with TSRC:    0.34356E+00
Hessian eigenvector     7(     0.024) has overlap with TSRC:    0.11374E+00
Hessian eigenvector     8(     0.039) has overlap with TSRC:    0.11842E+00
Hessian eigenvector     9(     0.051) has overlap with TSRC:    0.61591E-02
Hessian eigenvector    10(     0.062) has overlap with TSRC:    0.90132E-02
Hessian eigenvector    11(     0.072) has overlap with TSRC:    0.25928E-01
Hessian eigenvector    12(     0.080) has overlap with TSRC:    0.26437E-01
Hessian eigenvector    13(     0.084) has overlap with TSRC:    0.18962E-01
Hessian eigenvector    14(     0.086) has overlap with TSRC:    0.21408E-01
Hessian eigenvector    15(     0.093) has overlap with TSRC:    0.14549E-01
Hessian eigenvector    16(     0.104) has overlap with TSRC:    0.21252E+00
Hessian eigenvector    17(     0.121) has overlap with TSRC:    0.16152E+00
Hessian eigenvector    18(     0.161) has overlap with TSRC:    0.12509E+00
Hessian eigenvector    19(     0.232) has overlap with TSRC:    0.12238E-07
Hessian eigenvector    20(     0.253) has overlap with TSRC:    0.32722E-09
Hessian eigenvector    21(     0.457) has overlap with TSRC:    0.30996E-01
Hessian eigenvector    22(     0.466) has overlap with TSRC:    0.88586E-01
Hessian eigenvector    23(     0.500) has overlap with TSRC:    0.49385E-15
Hessian eigenvector    24(     0.501) has overlap with TSRC:    0.76057E-16
Hessian eigenvector    25(     0.503) has overlap with TSRC:    0.24514E-15
Hessian eigenvector    26(     0.503) has overlap with TSRC:    0.11261E-14
Hessian eigenvector    27(     0.503) has overlap with TSRC:    0.58178E-15
Hessian eigenvector    28(     0.526) has overlap with TSRC:    0.32869E-14
Hessian eigenvector    29(     0.528) has overlap with TSRC:    0.20381E-14
Hessian eigenvector    30(     0.601) has overlap with TSRC:    0.46122E-15
Hessian eigenvector     6 has the largest overlap with TSRC:  0.34356
           Primitive Internal Coordinates (atoms in internal order)
-------------------------------------------------------------------------------
    index    type      i       j       k       l   value(A,deg)     Max Ovl Vect
-------------------------------------------------------------------------------
       1     bnd       1       5       0       0     1.46208392     0.00000000
       2     bnd       1       2       0       0     1.35916813     0.01223644
       3     bnd       3       9       0       0     1.08313958    -0.00000000
       4     bnd       1       4       0       0     1.08901177     0.00000000
       5     bnd       3       6       0       0     1.08329955     0.00000000
       6     bnd       2       7       0       0     1.08720894    -0.00000000
       7     bnd       3       8       0       0     1.08428070    -0.00000000
       8     bnd       5      10       0       0     1.22279656     0.00000000
       9     bnd       2      11       0       0     1.41000000     0.00216706
      10     bnd       5      12       0       0     1.41000000     0.00000000
      11     bnd       2       3       0       0     2.50234487    -0.48587083
      12     bnd       3      11       0       0     2.75222133    -0.04044336
      13     bnd       1       3       0       0     3.21998143    -0.07614055
      14     ang       5       1       2       0   122.13193049     0.00319383
      15     ang       5       1       4       0   116.48149708     0.01557848
      16     ang       5       1       3       0   112.64562536     0.01405798
      17     ang       2       1       4       0   121.37727346    -0.01917350
      18     ang       2       1       3       0    47.13980479    -0.17004540
      19     ang       4       1       3       0   108.55407601     0.10070105
      20     ang       1       2       7       0   120.51279539    -0.03013309
      21     ang       1       2      11       0   121.36128198    -0.01808003
      22     ang       1       2       3       0   109.39804563     0.19186979
      23     ang       7       2      11       0   116.67222795    -0.04613789
      24     ang       7       2       3       0    87.39281970     0.03079123
      25     ang      11       2       3       0    84.51010433     0.15616046
      26     ang       9       3       6       0   118.25885447    -0.00020646
      27     ang       9       3       8       0   118.48323850    -0.00122918
      28     ang       9       3       2       0    97.56929804    -0.00512420
      29     ang       9       3      11       0   128.21390110     0.00834285
      30     ang       9       3       1       0    85.73843521    -0.00383242
      31     ang       6       3       8       0   118.47247906     0.00157633
      32     ang       6       3       2       0    97.55621160    -0.00748125
      33     ang       6       3      11       0    82.75975470    -0.00002680
      34     ang       6       3       1       0    85.46171991     0.01307711
      35     ang       8       3       2       0    96.81291220     0.01227357
      36     ang       8       3      11       0    80.53456734    -0.00791925
      37     ang       8       3       1       0   120.27444570    -0.00946001
      38     ang      11       3       1       0    46.88964471     0.00806146
      39     ang       1       5      10       0   124.78014579     0.00007165
      40     ang       1       5      12       0   114.73739867     0.00008236
      41     ang      10       5      12       0   120.48134630     0.00007142
      42     ang       2      11       3       0    64.82849652    -0.17015055
      43     dih       2       1       5      10   179.74813341    -0.18140002
      44     dih       2       1       5      12    -0.63506953    -0.14246150
      45     dih       4       1       5      10     0.84367616    -0.15756240
      46     dih       4       1       5      12   180.46047323    -0.11862388
      47     dih       3       1       5      10   127.21624574     0.01277347
      48     dih       3       1       5      12   -53.16695720     0.05171199
      49     dih       5       1       2       7     6.57009342     0.23253219
      50     dih       5       1       2      11   172.35502844    -0.22747774
      51     dih       5       1       2       3   267.85385074     0.08293770
      52     dih       4       1       2       7   185.42152053     0.20793043
      53     dih       4       1       2      11    -8.79354445    -0.25207950
      54     dih       4       1       2       3    86.70527785     0.05833594
      55     dih       3       1       2       7    98.71624268     0.14959449
      56     dih       3       1       2      11   264.50117770    -0.31041545
      57     dih       1       2      11       3   109.40048400     0.31931779
      58     dih       7       2      11       3   -84.29422319    -0.12186114
      59     dih       1       2       3       9    60.36685908    -0.02911053
      60     dih       1       2       3       6   -59.59533627    -0.02600023
      61     dih       1       2       3       8   180.39271465    -0.02874772
      62     dih       1       2       3      11   238.63730923    -0.05557354
      63     dih       7       2       3       9   -61.15415106    -0.03983578
      64     dih       7       2       3       6   178.88365359    -0.03672548
      65     dih       7       2       3       8    58.87170451    -0.03947296
      66     dih       7       2       3      11   117.11629909    -0.06629879
      67     dih       7       2       3       1   238.47898986    -0.01072525
      68     dih      11       2       3       9   181.72954985     0.02646301
      69     dih      11       2       3       6    61.76735450     0.02957331
      70     dih      11       2       3       8   -58.24459458     0.02682582
      71     dih      11       2       3       1   121.36269077     0.05557354
      72     dih       9       3      11       2     2.18228113     0.03367229
      73     dih       6       3      11       2   241.69106591     0.03132777
      74     dih       8       3      11       2   121.13490928     0.02772833
      75     dih       1       3      11       2   -27.75476779     0.04825680
      76     dih       5       1       3       9    -6.70885435    -0.04276853
      77     dih       5       1       3       6   234.46351100    -0.04138054
      78     dih       5       1       3       8   113.97123608    -0.04911572
      79     dih       5       1       3       2   113.51971531    -0.01600800
      80     dih       5       1       3      11   150.13784247    -0.02925171
      81     dih       2       1       3       9   239.77143035    -0.02676052
      82     dih       2       1       3       6   120.94379569    -0.02537253
      83     dih       2       1       3       8     0.45152078    -0.03310772
      84     dih       2       1       3      11    36.61812716    -0.01324371
      85     dih       4       1       3       9   123.80841936     0.07356355
      86     dih       4       1       3       6     4.98078471     0.07495154
      87     dih       4       1       3       8   244.48850980     0.06721635
      88     dih       4       1       3       2   244.03698902     0.10032407
      89     dih       4       1       3      11   -79.34488382     0.08708036
 
----------------------------------------------------------------------
Geometry Convergence after Step   1       (Hartree/Angstrom,Angstrom)
----------------------------------------------------------------------
current energy                               -2.36448252 Hartree
energy change                      -2.36448252     0.00012000    F
constrained gradient max            0.07676766     0.00100000    F
constrained gradient rms            0.02410082     0.00066667    F
gradient max                        0.07676766
gradient rms                        0.02410082
cart. step max                      0.05016184     0.01000000    F
cart. step rms                      0.01818647     0.00666667    F
 
 
--------
Geometry
--------
Formula: C4H5F2O
Atoms
  Index Symbol   x (angstrom)   y (angstrom)   z (angstrom)
      1      C     0.82368248    -0.23917561     0.87866615
      2      C     0.81307604    -0.23225803    -0.47207676
      3      C    -1.53524435    -0.45570545    -1.30241901
      4      H     0.87606584    -1.16642035     1.44112023
      5      C     0.73631057     0.97962822     1.66628410
      6      H    -1.74925514    -1.40826292    -0.83288792
      7      H     0.87501479     0.67504424    -1.06354356
      8      H    -1.29107542    -0.44333205    -2.35839362
      9      H    -1.94266012     0.44274756    -0.85382997
     10      O     0.72034799     1.07025509     2.85049225
     11      F     1.06534559    -1.38058982    -1.16963988
     12      F     0.65015188     2.13009969     0.88732733
 
Total System Charge             0.00000
 
 *** GOStep2 ***

 Energy gradients wrt nuclear displacements
 ==========================================

     Atom      Cartesian (a.u./angstrom)
                 X         Y         Z
 ----------------------------------------
     1 C     0.000559 -0.000762  0.004811
     2 C    -0.016031  0.023597  0.007807
     3 C     0.013866 -0.005340  0.001420
     4 H    -0.000577 -0.000862  0.001285
     5 C     0.005250  0.002896  0.020983
     6 H    -0.001660  0.000213 -0.000391
     7 H     0.002196  0.005344  0.006427
     8 H    -0.001062  0.000163 -0.000389
     9 H     0.000795 -0.000000  0.000386
    10 O    -0.001469 -0.004104 -0.027765
    11 F    -0.000844 -0.024625 -0.015042
    12 F    -0.001024  0.003480  0.000467
 ----------------------------------------
 Mulliken charges used for AMS results%charges...
Hessian eigenvector     1(     0.006) has overlap with TSRC:    0.90212E-02
Hessian eigenvector     2(     0.007) has overlap with TSRC:    0.47579E-02
Hessian eigenvector     3(     0.009) has overlap with TSRC:    0.13278E-01
Hessian eigenvector     4(     0.011) has overlap with TSRC:    0.13818E+00
Hessian eigenvector     5(     0.012) has overlap with TSRC:    0.11770E-01
Hessian eigenvector     6(     0.017) has overlap with TSRC:    0.33127E+00
Hessian eigenvector     7(     0.026) has overlap with TSRC:    0.56753E-01
Hessian eigenvector     8(     0.040) has overlap with TSRC:    0.12604E+00
Hessian eigenvector     9(     0.050) has overlap with TSRC:    0.40183E-01
Hessian eigenvector    10(     0.054) has overlap with TSRC:    0.54476E-01
Hessian eigenvector    11(     0.062) has overlap with TSRC:    0.23449E-01
Hessian eigenvector    12(     0.080) has overlap with TSRC:    0.27677E-01
Hessian eigenvector    13(     0.082) has overlap with TSRC:    0.36020E-02
Hessian eigenvector    14(     0.087) has overlap with TSRC:    0.27643E-01
Hessian eigenvector    15(     0.093) has overlap with TSRC:    0.13988E-01
Hessian eigenvector    16(     0.104) has overlap with TSRC:    0.20938E+00
Hessian eigenvector    17(     0.119) has overlap with TSRC:    0.17996E+00
Hessian eigenvector    18(     0.152) has overlap with TSRC:    0.11209E+00
Hessian eigenvector    19(     0.227) has overlap with TSRC:    0.13374E-01
Hessian eigenvector    20(     0.252) has overlap with TSRC:    0.73851E-02
Hessian eigenvector    21(     0.403) has overlap with TSRC:    0.24665E-01
Hessian eigenvector    22(     0.466) has overlap with TSRC:    0.87188E-01
Hessian eigenvector    23(     0.500) has overlap with TSRC:    0.13342E-02
Hessian eigenvector    24(     0.501) has overlap with TSRC:    0.87380E-03
Hessian eigenvector    25(     0.503) has overlap with TSRC:    0.11917E-03
Hessian eigenvector    26(     0.503) has overlap with TSRC:    0.18731E-04
Hessian eigenvector    27(     0.503) has overlap with TSRC:    0.15121E-03
Hessian eigenvector    28(     0.526) has overlap with TSRC:    0.15496E-02
Hessian eigenvector    29(     0.527) has overlap with TSRC:    0.39166E-02
Hessian eigenvector    30(     0.652) has overlap with TSRC:    0.90091E-03
Hessian eigenvector     6 has the largest overlap with TSRC:  0.33127
           Primitive Internal Coordinates (atoms in internal order)
-------------------------------------------------------------------------------
    index    type      i       j       k       l   value(A,deg)     Max Ovl Vect
-------------------------------------------------------------------------------
       1     bnd       1       5       0       0     1.45377394     0.00304073
       2     bnd       1       2       0       0     1.35080227     0.01405924
       3     bnd       3       9       0       0     1.08371470     0.00010127
       4     bnd       1       4       0       0     1.08576306    -0.00144573
       5     bnd       3       6       0       0     1.08334011     0.00002750
       6     bnd       2       7       0       0     1.08483491    -0.00117095
       7     bnd       3       8       0       0     1.08390679    -0.00012472
       8     bnd       5      10       0       0     1.18777817     0.03397993
       9     bnd       2      11       0       0     1.36707722    -0.03308365
      10     bnd       5      12       0       0     1.39204223    -0.00141546
      11     bnd       2       3       0       0     2.50080100    -0.47172529
      12     bnd       3      11       0       0     2.76335112    -0.01468066
      13     bnd       1       3       0       0     3.22002383    -0.07753763
      14     ang       5       1       2       0   122.47867158     0.01688497
      15     ang       5       1       4       0   115.99025323     0.01090132
      16     ang       5       1       3       0   112.29153554    -0.01788936
      17     ang       2       1       4       0   121.51730219    -0.02890454
      18     ang       2       1       3       0    46.94275775    -0.16342765
      19     ang       4       1       3       0   109.19608926     0.09930212
      20     ang       1       2       7       0   123.30010868    -0.03856429
      21     ang       1       2      11       0   120.29721984     0.01551531
      22     ang       1       2       3       0   109.81179219     0.18357698
      23     ang       7       2      11       0   114.44317474    -0.04608870
      24     ang       7       2       3       0    86.97994445    -0.07793184
      25     ang      11       2       3       0    85.91741389     0.16801534
      26     ang       9       3       6       0   118.37849842     0.00198309
      27     ang       9       3       8       0   118.58703622    -0.00297575
      28     ang       9       3       2       0    98.13500434     0.00638364
      29     ang       9       3      11       0   127.69015518     0.00948157
      30     ang       9       3       1       0    86.51884115    -0.00256231
      31     ang       6       3       8       0   118.47531294     0.00453105
      32     ang       6       3       2       0    96.90136374    -0.02239100
      33     ang       6       3      11       0    82.57633167    -0.00295277
      34     ang       6       3       1       0    84.85222306     0.00734004
      35     ang       8       3       2       0    96.36845841     0.00777646
      36     ang       8       3      11       0    80.71376805    -0.01265701
      37     ang       8       3       1       0   119.61049746    -0.01220190
      38     ang      11       3       1       0    45.61536417     0.00975674
      39     ang       1       5      10       0   127.22318621     0.00884930
      40     ang       1       5      12       0   113.16860014    -0.01214065
      41     ang      10       5      12       0   119.60422762     0.00477631
      42     ang       2      11       3       0    64.51421537    -0.17190111
      43     dih       2       1       5      10   178.92096357    -0.28339499
      44     dih       2       1       5      12    -0.34249837    -0.02688830
      45     dih       4       1       5      10     0.25299049    -0.21720135
      46     dih       4       1       5      12   180.98952855     0.03930534
      47     dih       3       1       5      10   126.78019123    -0.08258196
      48     dih       3       1       5      12   -52.48327071     0.17392473
      49     dih       5       1       2       7     8.58608019     0.14415156
      50     dih       5       1       2      11   171.76249306    -0.19469866
      51     dih       5       1       2       3   268.81903033     0.13893231
      52     dih       4       1       2       7   187.18155932     0.07521526
      53     dih       4       1       2      11    -9.64202781    -0.26363496
      54     dih       4       1       2       3    87.41450946     0.06999600
      55     dih       3       1       2       7    99.76704986     0.00521925
      56     dih       3       1       2      11   262.94346273    -0.33363097
      57     dih       1       2      11       3   110.59991459     0.32060771
      58     dih       7       2      11       3   -84.80981846    -0.00524039
      59     dih       1       2       3       9    60.77769592    -0.05434057
      60     dih       1       2       3       6   -59.28392816    -0.05271214
      61     dih       1       2       3       8   180.93080069    -0.05430814
      62     dih       1       2       3      11   239.21118879    -0.09470312
      63     dih       7       2       3       9   -63.65029459    -0.01280142
      64     dih       7       2       3       6   176.28808132    -0.01117299
      65     dih       7       2       3       8    56.50281018    -0.01276899
      66     dih       7       2       3      11   114.78319828    -0.05316397
      67     dih       7       2       3       1   235.57200949     0.04153915
      68     dih      11       2       3       9   181.56650713     0.04036255
      69     dih      11       2       3       6    61.50488305     0.04199098
      70     dih      11       2       3       8   -58.28038809     0.04039498
      71     dih      11       2       3       1   120.78881121     0.09470312
      72     dih       9       3      11       2     1.95980935     0.05118925
      73     dih       6       3      11       2   241.62609922     0.04806776
      74     dih       8       3      11       2   121.06212761     0.03943467
      75     dih       1       3      11       2   -28.32130160     0.05961157
      76     dih       5       1       3       9    -5.77310775    -0.02462572
      77     dih       5       1       3       6   235.30732336    -0.02602362
      78     dih       5       1       3       8   115.34566859    -0.03295162
      79     dih       5       1       3       2   114.28164210     0.02955254
      80     dih       5       1       3      11   150.66374780    -0.01526091
      81     dih       2       1       3       9   239.94525014    -0.05417826
      82     dih       2       1       3       6   121.02568126    -0.05557617
      83     dih       2       1       3       8     1.06402649    -0.06250416
      84     dih       2       1       3      11    36.38210570    -0.04481345
      85     dih       4       1       3       9   124.33471676     0.05874764
      86     dih       4       1       3       6     5.41514787     0.05734973
      87     dih       4       1       3       8   245.45349310     0.05042174
      88     dih       4       1       3       2   244.38946661     0.11292590
      89     dih       4       1       3      11   -79.22842769     0.06811245
 
----------------------------------------------------------------------
Geometry Convergence after Step   2       (Hartree/Angstrom,Angstrom)
----------------------------------------------------------------------
current energy                               -2.36980806 Hartree
energy change                      -0.00532555     0.00012000    F
constrained gradient max            0.02777189     0.00100000    F
constrained gradient rms            0.00959868     0.00066667    F
gradient max                        0.02777189
gradient rms                        0.00959868
cart. step max                      0.04678584     0.01000000    F
cart. step rms                      0.01874658     0.00666667    F
 
 
--------
Geometry
--------
Formula: C4H5F2O
Atoms
  Index Symbol   x (angstrom)   y (angstrom)   z (angstrom)
      1      C     0.83877884    -0.23846740     0.87173251
      2      C     0.81003810    -0.24609849    -0.47857412
      3      C    -1.53477333    -0.43573963    -1.29502455
      4      H     0.91780051    -1.16473227     1.43046310
      5      C     0.72063091     0.97157476     1.67028022
      6      H    -1.74657957    -1.38506453    -0.81796227
      7      H     0.87912128     0.63198190    -1.11032940
      8      H    -1.28589053    -0.43196666    -2.34985193
      9      H    -1.93747606     0.46756313    -0.85166532
     10      O     0.70169188     1.07353059     2.86926419
     11      F     1.07394253    -1.37984745    -1.14848592
     12      F     0.60447560     2.10929661     0.88125287
 
Total System Charge             0.00000
 
 *** GOStep3 ***

 Energy gradients wrt nuclear displacements
 ==========================================

     Atom      Cartesian (a.u./angstrom)
                 X         Y         Z
 ----------------------------------------
     1 C     0.003217 -0.004393 -0.008782
     2 C    -0.016213  0.001258  0.004097
     3 C     0.011736 -0.004651  0.000387
     4 H    -0.000209  0.001269  0.000776
     5 C     0.005058 -0.001220 -0.014260
     6 H    -0.000961  0.000026 -0.000282
     7 H     0.005243 -0.002002 -0.000679
     8 H    -0.000635 -0.000009 -0.000130
     9 H     0.000754  0.000313  0.000582
    10 O    -0.002365  0.002422  0.020971
    11 F    -0.004886  0.006488  0.000010
    12 F    -0.000739  0.000499 -0.002692
 ----------------------------------------
 Mulliken charges used for AMS results%charges...
Hessian eigenvector     1(    -0.005) has overlap with TSRC:    0.12091E+00
Hessian eigenvector     1 has the largest overlap with TSRC:  0.12091
           Primitive Internal Coordinates (atoms in internal order)
-------------------------------------------------------------------------------
    index    type      i       j       k       l   value(A,deg)     Max Ovl Vect
-------------------------------------------------------------------------------
       1     bnd       1       5       0       0     1.45459253     0.01027551
       2     bnd       1       2       0       0     1.35063402    -0.01839996
       3     bnd       3       9       0       0     1.08383245     0.00081146
       4     bnd       1       4       0       0     1.08461556    -0.00223530
       5     bnd       3       6       0       0     1.08335961     0.00014820
       6     bnd       2       7       0       0     1.08393376    -0.00293221
       7     bnd       3       8       0       0     1.08379780    -0.00009991
       8     bnd       5      10       0       0     1.20346011     0.05181766
       9     bnd       2      11       0       0     1.34306146    -0.00126716
      10     bnd       5      12       0       0     1.38941254     0.00609371
      11     bnd       2       3       0       0     2.49011962     0.17601474
      12     bnd       3      11       0       0     2.77816695    -0.06949835
      13     bnd       1       3       0       0     3.21986062     0.03141000
      14     ang       5       1       2       0   123.49212867    -0.06609766
      15     ang       5       1       4       0   115.69235176    -0.00866938
      16     ang       5       1       3       0   111.13226856     0.17998521
      17     ang       2       1       4       0   120.77993088     0.07621453
      18     ang       2       1       3       0    46.46445572     0.05823796
      19     ang       4       1       3       0   110.36757227    -0.15688925
      20     ang       1       2       7       0   125.22306341    -0.00317748
      21     ang       1       2      11       0   119.95117690    -0.01426723
      22     ang       1       2       3       0   110.38120091    -0.06242918
      23     ang       7       2      11       0   112.37074769     0.02915968
      24     ang       7       2       3       0    86.02110380     0.11361473
      25     ang      11       2       3       0    87.54682877    -0.09138198
      26     ang       9       3       6       0   118.52512598    -0.00435744
      27     ang       9       3       8       0   118.72158166    -0.00379322
      28     ang       9       3       2       0    98.75893856    -0.02507115
      29     ang       9       3      11       0   127.62869789    -0.02301103
      30     ang       9       3       1       0    86.99390206    -0.00041933
      31     ang       6       3       8       0   118.45906002    -0.00039863
      32     ang       6       3       2       0    96.11091441     0.02918117
      33     ang       6       3      11       0    82.10083465     0.03515726
      34     ang       6       3       1       0    84.34595864    -0.00099417
      35     ang       8       3       2       0    95.88933775     0.01575480
      36     ang       8       3      11       0    80.61235030     0.00696623
      37     ang       8       3       1       0   119.04214582     0.01973412
      38     ang      11       3       1       0    45.01901042    -0.00728249
      39     ang       1       5      10       0   128.22096132     0.01793635
      40     ang       1       5      12       0   112.09934942    -0.02344844
      41     ang      10       5      12       0   119.67539494     0.00592866
      42     ang       2      11       3       0    63.57221685     0.08894879
      43     dih       2       1       5      10   177.96519580     0.07948869
      44     dih       2       1       5      12    -1.26840787     0.15144991
      45     dih       4       1       5      10     0.12434016    -0.00665973
      46     dih       4       1       5      12   180.89073648     0.06530150
      47     dih       3       1       5      10   126.99605945    -0.07128376
      48     dih       3       1       5      12   -52.23754422     0.00067746
      49     dih       5       1       2       7    11.74167990    -0.26289945
      50     dih       5       1       2      11   172.56861923    -0.20250528
      51     dih       5       1       2       3   271.85549615    -0.36218960
      52     dih       4       1       2       7   189.47694039    -0.17359837
      53     dih       4       1       2      11    -9.69612027    -0.11320421
      54     dih       4       1       2       3    89.59075665    -0.27288852
      55     dih       3       1       2       7    99.88618374     0.09929016
      56     dih       3       1       2      11   260.71312308     0.15968432
      57     dih       1       2      11       3   112.18671299    -0.13101171
      58     dih       7       2      11       3   -84.67887460    -0.07694221
      59     dih       1       2       3       9    60.31582852     0.07326587
      60     dih       1       2       3       6   -59.84545456     0.07682609
      61     dih       1       2       3       8   180.62709104     0.06747441
      62     dih       1       2       3      11   238.85694571     0.05389728
      63     dih       7       2       3       9   -65.90682512     0.04306365
      64     dih       7       2       3       6   173.93189179     0.04662386
      65     dih       7       2       3       8    54.40443740     0.03727219
      66     dih       7       2       3      11   112.63429206     0.02369505
      67     dih       7       2       3       1   233.77734635    -0.03020223
      68     dih      11       2       3       9   181.45888281     0.01936859
      69     dih      11       2       3       6    61.29759973     0.02292881
      70     dih      11       2       3       8   -58.22985467     0.01357713
      71     dih      11       2       3       1   121.14305429    -0.05389728
      72     dih       9       3      11       2     1.82068824     0.02387954
      73     dih       6       3      11       2   241.70232122     0.00737731
      74     dih       8       3      11       2   121.00086173     0.01895018
      75     dih       1       3      11       2   -28.41020762    -0.02595627
      76     dih       5       1       3       9    -4.03533653    -0.15943309
      77     dih       5       1       3       6   236.90375589    -0.15520927
      78     dih       5       1       3       8   117.38181403    -0.15907574
      79     dih       5       1       3       2   116.66831593    -0.23673030
      80     dih       5       1       3      11   152.43009943    -0.20420052
      81     dih       2       1       3       9   239.29634754     0.07729720
      82     dih       2       1       3       6   120.23543996     0.08152102
      83     dih       2       1       3       8     0.71349810     0.07765455
      84     dih       2       1       3      11    35.76178350     0.03252978
      85     dih       4       1       3       9   125.70342537    -0.15856368
      86     dih       4       1       3       6     6.64251779    -0.15433986
      87     dih       4       1       3       8   247.12057593    -0.15820633
      88     dih       4       1       3       2   246.40707783    -0.23586088
      89     dih       4       1       3      11   -77.83113867    -0.20333110
 
----------------------------------------------------------------------
Geometry Convergence after Step   3       (Hartree/Angstrom,Angstrom)
----------------------------------------------------------------------
current energy                               -2.37051609 Hartree
energy change                      -0.00070803     0.00012000    F
constrained gradient max            0.02096562     0.00100000    F
constrained gradient rms            0.00610065     0.00066667    F
gradient max                        0.02096562
gradient rms                        0.00610065
cart. step max                      0.03449766     0.01000000    F
cart. step rms                      0.01382500     0.00666667    F
 
 
--------
Geometry
--------
Formula: C4H5F2O
Atoms
  Index Symbol   x (angstrom)   y (angstrom)   z (angstrom)
      1      C     0.83122211    -0.23588409     0.87190477
      2      C     0.84453576    -0.23018918    -0.47725848
      3      C    -1.54935513    -0.44804989    -1.29827780
      4      H     0.88446634    -1.16453299     1.42985571
      5      C     0.71800478     0.97233016     1.67301654
      6      H    -1.75147614    -1.39884163    -0.81994583
      7      H     0.90836342     0.65065593    -1.10585262
      8      H    -1.30308477    -0.44347909    -2.35371707
      9      H    -1.95926679     0.45190837    -0.85475832
     10      O     0.71009282     1.07155275     2.86919666
     11      F     1.07286929    -1.36940733    -1.15201712
     12      F     0.63538847     2.11596755     0.88895293
 
Total System Charge             0.00000
 
 *** GOStep4 ***

 Energy gradients wrt nuclear displacements
 ==========================================

     Atom      Cartesian (a.u./angstrom)
                 X         Y         Z
 ----------------------------------------
     1 C     0.002172 -0.004982 -0.004733
     2 C    -0.011480  0.007050 -0.000581
     3 C     0.015868 -0.004373  0.002945
     4 H    -0.000087  0.001481  0.001750
     5 C    -0.003608 -0.002969 -0.008432
     6 H    -0.001577  0.000028 -0.000583
     7 H     0.003647 -0.001059 -0.000522
     8 H    -0.000848 -0.000151 -0.000157
     9 H     0.000236  0.000108  0.000382
    10 O     0.001424  0.002349  0.012295
    11 F    -0.007119  0.002186 -0.000710
    12 F     0.001371  0.000332 -0.001655
 ----------------------------------------
 Mulliken charges used for AMS results%charges...
Hessian eigenvector     1(    -0.007) has overlap with TSRC:    0.26809E+00
Hessian eigenvector     1 has the largest overlap with TSRC:  0.26809
           Primitive Internal Coordinates (atoms in internal order)
-------------------------------------------------------------------------------
    index    type      i       j       k       l   value(A,deg)     Max Ovl Vect
-------------------------------------------------------------------------------
       1     bnd       1       5       0       0     1.45409076     0.00903758
       2     bnd       1       2       0       0     1.34924095    -0.02948777
       3     bnd       3       9       0       0     1.08381824     0.00040078
       4     bnd       1       4       0       0     1.08468105    -0.00176172
       5     bnd       3       6       0       0     1.08335558     0.00013367
       6     bnd       2       7       0       0     1.08401692    -0.00263226
       7     bnd       3       8       0       0     1.08379982     0.00003015
       8     bnd       5      10       0       0     1.20031438     0.02863735
       9     bnd       2      11       0       0     1.34359719    -0.01838364
      10     bnd       5      12       0       0     1.38905999     0.00215958
      11     bnd       2       3       0       0     2.54012787     0.38193769
      12     bnd       3      11       0       0     2.78322701     0.02865542
      13     bnd       1       3       0       0     3.22828974     0.09131660
      14     ang       5       1       2       0   123.24128497    -0.03528916
      15     ang       5       1       4       0   115.58218187    -0.00399271
      16     ang       5       1       3       0   111.56479643     0.11809271
      17     ang       2       1       4       0   121.16412814     0.04068708
      18     ang       2       1       3       0    48.34478353     0.11903352
      19     ang       4       1       3       0   109.00950747    -0.15250509
      20     ang       1       2       7       0   125.72194441     0.01464643
      21     ang       1       2      11       0   120.01801504     0.00792567
      22     ang       1       2       3       0   108.27267467    -0.12693659
      23     ang       7       2      11       0   112.81459044     0.02246861
      24     ang       7       2       3       0    86.43140585     0.06872051
      25     ang      11       2       3       0    85.70539299    -0.12111474
      26     ang       9       3       6       0   118.52280093     0.00147794
      27     ang       9       3       8       0   118.74743106     0.00090273
      28     ang       9       3       2       0    98.79798981    -0.01031669
      29     ang       9       3      11       0   127.56845342    -0.02459732
      30     ang       9       3       1       0    87.08993882     0.00326359
      31     ang       6       3       8       0   118.42901459     0.00320206
      32     ang       6       3       2       0    96.22255101     0.00093815
      33     ang       6       3      11       0    82.07031380     0.00869403
      34     ang       6       3       1       0    84.17127019    -0.02019007
      35     ang       8       3       2       0    95.75374688    -0.00358350
      36     ang       8       3      11       0    80.70531354     0.00426934
      37     ang       8       3       1       0   119.13112782     0.00417157
      38     ang      11       3       1       0    44.90125232    -0.01752200
      39     ang       1       5      10       0   128.18758924     0.00500422
      40     ang       1       5      12       0   112.19448231    -0.00843290
      41     ang      10       5      12       0   119.60788194     0.00536541
      42     ang       2      11       3       0    65.51821880     0.13537242
      43     dih       2       1       5      10   180.78381853    -0.03604203
      44     dih       2       1       5      12    -0.38892961     0.29850366
      45     dih       4       1       5      10     2.05361279    -0.11928529
      46     dih       4       1       5      12   180.88086465     0.21526039
      47     dih       3       1       5      10   127.32945672    -0.23083339
      48     dih       3       1       5      12   -53.84329142     0.10371230
      49     dih       5       1       2       7     8.72152694    -0.26884488
      50     dih       5       1       2      11   173.98344429    -0.04918510
      51     dih       5       1       2       3   269.70507993    -0.27831669
      52     dih       4       1       2       7   187.38304587    -0.18210851
      53     dih       4       1       2      11    -7.35503678     0.03755128
      54     dih       4       1       2       3    88.36659886    -0.19158032
      55     dih       3       1       2       7    99.01644701     0.00947181
      56     dih       3       1       2      11   264.27836437     0.22913160
      57     dih       1       2      11       3   108.64730483    -0.22260906
      58     dih       7       2      11       3   -84.30076878    -0.01195782
      59     dih       1       2       3       9    60.83002063     0.04917935
      60     dih       1       2       3       6   -59.36420103     0.04980453
      61     dih       1       2       3       8   181.14378893     0.04709708
      62     dih       1       2       3      11   239.76647041     0.04736283
      63     dih       7       2       3       9   -65.71531953     0.02763516
      64     dih       7       2       3       6   174.09045881     0.02826035
      65     dih       7       2       3       8    54.59844878     0.02555289
      66     dih       7       2       3      11   113.22113025     0.02581864
      67     dih       7       2       3       1   233.45465984    -0.02154419
      68     dih      11       2       3       9   181.06355022     0.00181652
      69     dih      11       2       3       6    60.86932857     0.00244170
      70     dih      11       2       3       8   -58.62268147    -0.00026575
      71     dih      11       2       3       1   120.23352959    -0.04736283
      72     dih       9       3      11       2     1.32606098     0.00160671
      73     dih       6       3      11       2   241.25261685     0.00015234
      74     dih       8       3      11       2   120.59833061     0.00019730
      75     dih       1       3      11       2   -29.06177904    -0.03340493
      76     dih       5       1       3       9    -4.29649284    -0.09021620
      77     dih       5       1       3       6   236.63866815    -0.09388074
      78     dih       5       1       3       8   117.23562416    -0.08599071
      79     dih       5       1       3       2   115.93277504    -0.14016307
      80     dih       5       1       3      11   152.03353382    -0.12439235
      81     dih       2       1       3       9   239.77073212     0.04994686
      82     dih       2       1       3       6   120.70589311     0.04628233
      83     dih       2       1       3       8     1.30284912     0.05417236
      84     dih       2       1       3      11    36.10075878     0.01577072
      85     dih       4       1       3       9   124.55064767    -0.12878320
      86     dih       4       1       3       6     5.48580866    -0.13244773
      87     dih       4       1       3       8   246.08276467    -0.12455771
      88     dih       4       1       3       2   244.77991555    -0.17873006
      89     dih       4       1       3      11   -79.11932568    -0.16295935
 
----------------------------------------------------------------------
Geometry Convergence after Step   4       (Hartree/Angstrom,Angstrom)
----------------------------------------------------------------------
current energy                               -2.37100076 Hartree
energy change                      -0.00048467     0.00012000    F
constrained gradient max            0.01586024     0.00100000    F
constrained gradient rms            0.00485758     0.00066667    F
gradient max                        0.01586024
gradient rms                        0.00485758
cart. step max                      0.06171925     0.01000000    F
cart. step rms                      0.02172237     0.00666667    F
 
 
--------
Geometry
--------
Formula: C4H5F2O
Atoms
  Index Symbol   x (angstrom)   y (angstrom)   z (angstrom)
      1      C     0.85444646    -0.23371468     0.86631745
      2      C     0.86286196    -0.24944850    -0.48380555
      3      C    -1.54552380    -0.42511748    -1.28552826
      4      H     0.94081417    -1.16049622     1.42372192
      5      C     0.68890593     0.96745551     1.66668336
      6      H    -1.75458815    -1.37108040    -0.80068848
      7      H     0.91813881     0.61903845    -1.13070364
      8      H    -1.30259597    -0.42952711    -2.34175620
      9      H    -1.94060955     0.48235044    -0.84409506
     10      O     0.67665176     1.06073804     2.85652857
     11      F     1.06958931    -1.40026775    -1.14529648
     12      F     0.57366922     2.11210028     0.88972171
 
Total System Charge             0.00000
 
 *** GOStep5 ***

 Energy gradients wrt nuclear displacements
 ==========================================

     Atom      Cartesian (a.u./angstrom)
                 X         Y         Z
 ----------------------------------------
     1 C     0.002148  0.000934  0.000494
     2 C    -0.007552  0.003363 -0.001478
     3 C     0.015805 -0.003795  0.003182
     4 H     0.001720  0.000973  0.000396
     5 C    -0.010120 -0.002877  0.008853
     6 H    -0.001367 -0.000025 -0.000549
     7 H     0.003917 -0.001369 -0.001234
     8 H    -0.000610 -0.000229 -0.000133
     9 H     0.000174  0.000026  0.000403
    10 O     0.003379  0.001088 -0.008986
    11 F    -0.009904  0.001550 -0.002477
    12 F     0.002410  0.000361  0.001529
 ----------------------------------------
 Mulliken charges used for AMS results%charges...
Hessian eigenvector     1(    -0.002) has overlap with TSRC:    0.35479E+00
Hessian eigenvector     1 has the largest overlap with TSRC:  0.35479
           Primitive Internal Coordinates (atoms in internal order)
-------------------------------------------------------------------------------
    index    type      i       j       k       l   value(A,deg)     Max Ovl Vect
-------------------------------------------------------------------------------
       1     bnd       1       5       0       0     1.45285893     0.00429515
       2     bnd       1       2       0       0     1.35024090    -0.02716408
       3     bnd       3       9       0       0     1.08372231     0.00007907
       4     bnd       1       4       0       0     1.08493463    -0.00104593
       5     bnd       3       6       0       0     1.08333898     0.00009136
       6     bnd       2       7       0       0     1.08434415    -0.00150390
       7     bnd       3       8       0       0     1.08381310     0.00007976
       8     bnd       5      10       0       0     1.19355914    -0.00231605
       9     bnd       2      11       0       0     1.34338803    -0.02009369
      10     bnd       5      12       0       0     1.38822209    -0.00182094
      11     bnd       2       3       0       0     2.54439401     0.50438709
      12     bnd       3      11       0       0     2.79453030     0.07781631
      13     bnd       1       3       0       0     3.22907606     0.11225080
      14     ang       5       1       2       0   124.13787835     0.00526959
      15     ang       5       1       4       0   115.61265667    -0.00715167
      16     ang       5       1       3       0   109.35573491     0.01157115
      17     ang       2       1       4       0   120.21676395     0.00289787
      18     ang       2       1       3       0    48.51706570     0.16196896
      19     ang       4       1       3       0   110.54270537    -0.09936063
      20     ang       1       2       7       0   125.98070122     0.03903883
      21     ang       1       2      11       0   120.21878773     0.01728513
      22     ang       1       2       3       0   108.05750282    -0.17631844
      23     ang       7       2      11       0   112.61388947     0.01733567
      24     ang       7       2       3       0    85.15682576     0.02122516
      25     ang      11       2       3       0    86.06416707    -0.14410563
      26     ang       9       3       6       0   118.58919232     0.00385542
      27     ang       9       3       8       0   118.82160389     0.00497127
      28     ang       9       3       2       0    99.14398943     0.00378029
      29     ang       9       3      11       0   127.80054418    -0.01712204
      30     ang       9       3       1       0    87.12708357     0.00247332
      31     ang       6       3       8       0   118.41495350     0.00222907
      32     ang       6       3       2       0    95.85058745    -0.01043814
      33     ang       6       3      11       0    81.57199500    -0.01486361
      34     ang       6       3       1       0    84.08509796    -0.02244539
      35     ang       8       3       2       0    95.46250926    -0.01901463
      36     ang       8       3      11       0    80.66147226     0.00758594
      37     ang       8       3       1       0   118.88716164    -0.00472698
      38     ang      11       3       1       0    44.90519818    -0.01956416
      39     ang       1       5      10       0   127.94912892    -0.00276621
      40     ang       1       5      12       0   112.50938407     0.00469214
      41     ang      10       5      12       0   119.51460667     0.00013015
      42     ang       2      11       3       0    65.27741725     0.16565755
      43     dih       2       1       5      10   180.35356256    -0.05081562
      44     dih       2       1       5      12    -1.56463190     0.30433333
      45     dih       4       1       5      10     2.43642239    -0.11067105
      46     dih       4       1       5      12   180.51822793     0.24447790
      47     dih       3       1       5      10   127.94750819    -0.24790579
      48     dih       3       1       5      12   -53.97068627     0.10724316
      49     dih       5       1       2       7    11.02045042    -0.17942747
      50     dih       5       1       2      11   177.62120645     0.17711279
      51     dih       5       1       2       3   273.72606300    -0.10861419
      52     dih       4       1       2       7   188.84689558    -0.11678082
      53     dih       4       1       2      11    -4.55234840     0.23975944
      54     dih       4       1       2       3    91.55250816    -0.04596753
      55     dih       3       1       2       7    97.29438742    -0.07081328
      56     dih       3       1       2      11   263.89514344     0.28572697
      57     dih       1       2      11       3   108.63220033    -0.29372974
      58     dih       7       2      11       3   -83.08853172     0.05272276
      59     dih       1       2       3       9    60.05270074     0.01788408
      60     dih       1       2       3       6   -60.19351729     0.01542603
      61     dih       1       2       3       8   180.44443477     0.01959212
      62     dih       1       2       3      11   239.45616209     0.05056812
      63     dih       7       2       3       9   -66.28466458    -0.00350392
      64     dih       7       2       3       6   173.46911740    -0.00596196
      65     dih       7       2       3       8    54.10706945    -0.00179587
      66     dih       7       2       3      11   113.11879677     0.02918013
      67     dih       7       2       3       1   233.66263468    -0.02138799
      68     dih      11       2       3       9   180.59653865    -0.03268404
      69     dih      11       2       3       6    60.35032062    -0.03514209
      70     dih      11       2       3       8   -59.01172732    -0.03097600
      71     dih      11       2       3       1   120.54383791    -0.05056812
      72     dih       9       3      11       2     0.74538311    -0.04177976
      73     dih       6       3      11       2   240.92421525    -0.02895385
      74     dih       8       3      11       2   120.13539253    -0.03340595
      75     dih       1       3      11       2   -29.01356767    -0.04325489
      76     dih       5       1       3       9    -2.16323617     0.02214600
      77     dih       5       1       3       6   238.70024976     0.01568258
      78     dih       5       1       3       8   119.41062710     0.02838720
      79     dih       5       1       3       2   118.90533758     0.00586503
      80     dih       5       1       3      11   154.71504407     0.01536470
      81     dih       2       1       3       9   238.93142625     0.01628096
      82     dih       2       1       3       6   119.79491219     0.00981755
      83     dih       2       1       3       8     0.50528952     0.02252217
      84     dih       2       1       3      11    35.80970650     0.00949966
      85     dih       4       1       3       9   126.22122645    -0.06127257
      86     dih       4       1       3       6     7.08471238    -0.06773598
      87     dih       4       1       3       8   247.79508972    -0.05503136
      88     dih       4       1       3       2   247.28980020    -0.07755353
      89     dih       4       1       3      11   -76.90049330    -0.06805387
 
----------------------------------------------------------------------
Geometry Convergence after Step   5       (Hartree/Angstrom,Angstrom)
----------------------------------------------------------------------
current energy                               -2.37113140 Hartree
energy change                      -0.00013064     0.00012000    F
constrained gradient max            0.01579869     0.00100000    F
constrained gradient rms            0.00463530     0.00066667    F
gradient max                        0.01579869
gradient rms                        0.00463530
cart. step max                      0.04397560     0.01000000    F
cart. step rms                      0.01598976     0.00666667    F
 
 
--------
Geometry
--------
Formula: C4H5F2O
Atoms
  Index Symbol   x (angstrom)   y (angstrom)   z (angstrom)
      1      C     0.86230705    -0.23697374     0.86669299
      2      C     0.83289561    -0.26427426    -0.48502463
      3      C    -1.52961504    -0.40922654    -1.28135029
      4      H     0.98478977    -1.16023796     1.42373911
      5      C     0.67406861     0.96235718     1.66320168
      6      H    -1.74972041    -1.35238387    -0.79599778
      7      H     0.87718943     0.60089416    -1.13764074
      8      H    -1.28322008    -0.41790059    -2.33673559
      9      H    -1.91825550     0.50259011    -0.84330989
     10      O     0.67117509     1.06144745     2.85487736
     11      F     1.07485302    -1.41520835    -1.13652739
     12      F     0.54529260     2.10094699     0.87917452
 
Total System Charge             0.00000
 
 *** GOStep6 ***

 Energy gradients wrt nuclear displacements
 ==========================================

     Atom      Cartesian (a.u./angstrom)
                 X         Y         Z
 ----------------------------------------
     1 C     0.005745  0.002273 -0.000903
     2 C    -0.010026  0.001618  0.001294
     3 C     0.012311 -0.003414  0.001211
     4 H     0.002047  0.000426 -0.000160
     5 C    -0.014046 -0.002711  0.004078
     6 H    -0.000739 -0.000009 -0.000340
     7 H     0.004137 -0.001029 -0.001533
     8 H    -0.000343 -0.000164 -0.000044
     9 H     0.000580  0.000100  0.000525
    10 O     0.004532  0.001011 -0.002740
    11 F    -0.008150  0.001941 -0.001804
    12 F     0.003951 -0.000044  0.000418
 ----------------------------------------
 Mulliken charges used for AMS results%charges...
Hessian eigenvector     1(    -0.001) has overlap with TSRC:    0.18726E+00
Hessian eigenvector     1 has the largest overlap with TSRC:  0.18726
           Primitive Internal Coordinates (atoms in internal order)
-------------------------------------------------------------------------------
    index    type      i       j       k       l   value(A,deg)     Max Ovl Vect
-------------------------------------------------------------------------------
       1     bnd       1       5       0       0     1.45198294    -0.00835166
       2     bnd       1       2       0       0     1.35231316     0.02009925
       3     bnd       3       9       0       0     1.08366527    -0.00051349
       4     bnd       1       4       0       0     1.08522772     0.00192134
       5     bnd       3       6       0       0     1.08330937    -0.00018785
       6     bnd       2       7       0       0     1.08461335     0.00082794
       7     bnd       3       8       0       0     1.08380065     0.00001547
       8     bnd       5      10       0       0     1.19579187     0.00939098
       9     bnd       2      11       0       0     1.34448819     0.00425990
      10     bnd       5      12       0       0     1.38840506     0.00153679
      11     bnd       2       3       0       0     2.49731902    -0.27087336
      12     bnd       3      11       0       0     2.79575158     0.04781941
      13     bnd       1       3       0       0     3.21948011    -0.07186360
      14     ang       5       1       2       0   124.20670623     0.03392205
      15     ang       5       1       4       0   115.83455932     0.01023711
      16     ang       5       1       3       0   108.29319586    -0.16023251
      17     ang       2       1       4       0   119.89105359    -0.04518760
      18     ang       2       1       3       0    46.83146476    -0.08184232
      19     ang       4       1       3       0   112.38374403     0.17469273
      20     ang       1       2       7       0   125.76395272    -0.00200689
      21     ang       1       2      11       0   119.84975859    -0.01631316
      22     ang       1       2       3       0   109.90603048     0.08654673
      23     ang       7       2      11       0   112.57679967     0.00309714
      24     ang       7       2       3       0    83.86143786    -0.14111148
      25     ang      11       2       3       0    88.05407823     0.11570106
      26     ang       9       3       6       0   118.59349154    -0.00070847
      27     ang       9       3       8       0   118.80895891    -0.00073301
      28     ang       9       3       2       0    99.29641547     0.02357228
      29     ang       9       3      11       0   128.01896417     0.02556801
      30     ang       9       3       1       0    87.23344270     0.01488696
      31     ang       6       3       8       0   118.39220439    -0.00510245
      32     ang       6       3       2       0    95.73232811    -0.00571340
      33     ang       6       3      11       0    81.53506323    -0.00556884
      34     ang       6       3       1       0    84.18070558     0.00772396
      35     ang       8       3       2       0    95.50342961    -0.00266993
      36     ang       8       3      11       0    80.54774769    -0.00707122
      37     ang       8       3       1       0   118.76588305    -0.00729838
      38     ang      11       3       1       0    44.97376569     0.00576576
      39     ang       1       5      10       0   127.98377648     0.00387424
      40     ang       1       5      12       0   112.31047853    -0.00445091
      41     ang      10       5      12       0   119.64154678     0.00229039
      42     ang       2      11       3       0    63.21958118    -0.11779057
      43     dih       2       1       5      10   179.05459894    -0.22718914
      44     dih       2       1       5      12    -3.90643178     0.06882561
      45     dih       4       1       5      10     2.05996252    -0.16609219
      46     dih       4       1       5      12   179.09893180     0.12992256
      47     dih       3       1       5      10   129.33715324    -0.05641426
      48     dih       3       1       5      12   -53.62387749     0.23960049
      49     dih       5       1       2       7    13.66475974     0.19757308
      50     dih       5       1       2      11   177.16960574     0.12484305
      51     dih       5       1       2       3   276.73449987     0.31769435
      52     dih       4       1       2       7   190.54460783     0.13417270
      53     dih       4       1       2      11    -5.95054616     0.06144267
      54     dih       4       1       2       3    93.61434796     0.25429397
      55     dih       3       1       2       7    96.93025987    -0.12012127
      56     dih       3       1       2      11   260.43510587    -0.19285130
      57     dih       1       2      11       3   111.91847528     0.17082959
      58     dih       7       2      11       3   -82.53031581     0.10020078
      59     dih       1       2       3       9    59.69436906    -0.02787412
      60     dih       1       2       3       6   -60.55940771    -0.03124285
      61     dih       1       2       3       8   180.11452030    -0.02416121
      62     dih       1       2       3      11   238.84483795    -0.03239188
      63     dih       7       2       3       9   -66.19519871     0.01455873
      64     dih       7       2       3       6   173.55102451     0.01119001
      65     dih       7       2       3       8    54.22495252     0.01827165
      66     dih       7       2       3      11   112.95527018     0.01004098
      67     dih       7       2       3       1   234.11043222     0.04243286
      68     dih      11       2       3       9   180.84953111     0.00451776
      69     dih      11       2       3       6    60.59575433     0.00114903
      70     dih      11       2       3       8   -58.73031766     0.00823067
      71     dih      11       2       3       1   121.15516205     0.03239188
      72     dih       9       3      11       2     1.06420834     0.00634908
      73     dih       6       3      11       2   241.20729791     0.00386584
      74     dih       8       3      11       2   120.40108691     0.00595371
      75     dih       1       3      11       2   -28.56769500     0.01893360
      76     dih       5       1       3       9    -1.34593380     0.14070213
      77     dih       5       1       3       6   239.53949765     0.14437239
      78     dih       5       1       3       8   120.24453624     0.14738351
      79     dih       5       1       3       2   120.11449598     0.17519388
      80     dih       5       1       3      11   155.70163891     0.15912976
      81     dih       2       1       3       9   238.53957022    -0.03449175
      82     dih       2       1       3       6   119.42500167    -0.03082149
      83     dih       2       1       3       8     0.13004026    -0.02781037
      84     dih       2       1       3      11    35.58714292    -0.01606412
      85     dih       4       1       3       9   127.89011024     0.17258324
      86     dih       4       1       3       6     8.77554169     0.17625350
      87     dih       4       1       3       8   249.48058028     0.17926462
      88     dih       4       1       3       2   249.35054002     0.20707499
      89     dih       4       1       3      11   -75.06231706     0.19101087
 
----------------------------------------------------------------------
Geometry Convergence after Step   6       (Hartree/Angstrom,Angstrom)
----------------------------------------------------------------------
current energy                               -2.37080117 Hartree
energy change                       0.00033023     0.00012000    F
constrained gradient max            0.01403310     0.00100000    F
constrained gradient rms            0.00432822     0.00066667    F
gradient max                        0.01403310
gradient rms                        0.00432822
cart. step max                      0.04372530     0.01000000    F
cart. step rms                      0.01319775     0.00666667    F
 
 
--------
Geometry
--------
Formula: C4H5F2O
Atoms
  Index Symbol   x (angstrom)   y (angstrom)   z (angstrom)
      1      C     0.86928637    -0.23393691     0.86284524
      2      C     0.87609889    -0.25619209    -0.48496479
      3      C    -1.54790744    -0.41319317    -1.27952030
      4      H     0.96943447    -1.16096569     1.41805360
      5      C     0.68426314     0.96437807     1.66247931
      6      H    -1.75672911    -1.35601531    -0.78856487
      7      H     0.92091473     0.60700094    -1.14012485
      8      H    -1.30552211    -0.42400650    -2.33581097
      9      H    -1.93500735     0.49872328    -0.84033308
     10      O     0.64775647     1.05526124     2.85536617
     11      F     1.07148150    -1.41159198    -1.13799462
     12      F     0.54769061     2.10256869     0.87966853
 
Total System Charge             0.00000
 
 *** GOStep7 ***

 Energy gradients wrt nuclear displacements
 ==========================================

     Atom      Cartesian (a.u./angstrom)
                 X         Y         Z
 ----------------------------------------
     1 C    -0.000176  0.002243 -0.003517
     2 C    -0.006094  0.001001  0.000786
     3 C     0.015942 -0.003309  0.003471
     4 H     0.002374  0.000496 -0.000250
     5 C    -0.005199 -0.002409  0.000759
     6 H    -0.001200 -0.000089 -0.000534
     7 H     0.003630 -0.001134 -0.001613
     8 H    -0.000475 -0.000282 -0.000115
     9 H     0.000117  0.000034  0.000389
    10 O     0.001114  0.000528  0.002164
    11 F    -0.010902  0.003074 -0.000873
    12 F     0.000868 -0.000154 -0.000667
 ----------------------------------------
 Mulliken charges used for AMS results%charges...
Hessian eigenvector     1(    -0.008) has overlap with TSRC:    0.30415E+00
Hessian eigenvector     1 has the largest overlap with TSRC:  0.30415
           Primitive Internal Coordinates (atoms in internal order)
-------------------------------------------------------------------------------
    index    type      i       j       k       l   value(A,deg)     Max Ovl Vect
-------------------------------------------------------------------------------
       1     bnd       1       5       0       0     1.45244863     0.00815300
       2     bnd       1       2       0       0     1.34801098    -0.02987807
       3     bnd       3       9       0       0     1.08366202     0.00013546
       4     bnd       1       4       0       0     1.08520428    -0.00096032
       5     bnd       3       6       0       0     1.08330850    -0.00007075
       6     bnd       2       7       0       0     1.08459456    -0.00068287
       7     bnd       3       8       0       0     1.08379775    -0.00015092
       8     bnd       5      10       0       0     1.19690080    -0.01546062
       9     bnd       2      11       0       0     1.34148099    -0.01106760
      10     bnd       5      12       0       0     1.38813640    -0.00447341
      11     bnd       2       3       0       0     2.55573365     0.43494796
      12     bnd       3      11       0       0     2.80678253     0.03401589
      13     bnd       1       3       0       0     3.23491713     0.13789311
      14     ang       5       1       2       0   124.38317952    -0.02374665
      15     ang       5       1       4       0   115.77682338    -0.00505465
      16     ang       5       1       3       0   108.36895186     0.11905730
      17     ang       2       1       4       0   119.79977412     0.02991764
      18     ang       2       1       3       0    48.75328234     0.12322517
      19     ang       4       1       3       0   111.12756563    -0.16865259
      20     ang       1       2       7       0   126.23078543     0.02110460
      21     ang       1       2      11       0   120.11125781     0.01770686
      22     ang       1       2       3       0   107.88249921    -0.12788499
      23     ang       7       2      11       0   112.66836627     0.00052692
      24     ang       7       2       3       0    84.27721149     0.10659612
      25     ang      11       2       3       0    86.20936526    -0.13909139
[...]
     11      F     1.08761350    -1.46154027    -1.11491155
     12      F     0.36975063     2.05211406     0.84661843
 
Total System Charge             0.00000
 
 *** GOStep13 ***

 Energy gradients wrt nuclear displacements
 ==========================================

     Atom      Cartesian (a.u./angstrom)
                 X         Y         Z
 ----------------------------------------
     1 C     0.004850  0.000154 -0.000079
     2 C    -0.008443 -0.000672  0.005113
     3 C     0.002433 -0.001464 -0.004670
     4 H     0.000852 -0.000230 -0.000510
     5 C     0.006071  0.001728 -0.001737
     6 H     0.000557  0.000255  0.000309
     7 H     0.001059 -0.001035 -0.001263
     8 H     0.000315  0.000238  0.000224
     9 H     0.000868  0.000002  0.000618
    10 O    -0.002907 -0.000267  0.002530
    11 F    -0.003405  0.001964 -0.000556
    12 F    -0.002251 -0.000673  0.000021
 ----------------------------------------
 Mulliken charges used for AMS results%charges...
Hessian eigenvector     1(    -0.004) has overlap with TSRC:    0.37995E+00
Hessian eigenvector     1 has the largest overlap with TSRC:  0.37995
           Primitive Internal Coordinates (atoms in internal order)
-------------------------------------------------------------------------------
    index    type      i       j       k       l   value(A,deg)     Max Ovl Vect
-------------------------------------------------------------------------------
       1     bnd       1       5       0       0     1.44987102    -0.00893698
       2     bnd       1       2       0       0     1.36092504     0.04768882
       3     bnd       3       9       0       0     1.08364169     0.00068904
       4     bnd       1       4       0       0     1.08528465    -0.00079029
       5     bnd       3       6       0       0     1.08344839     0.00144451
       6     bnd       2       7       0       0     1.08442691     0.00121960
       7     bnd       3       8       0       0     1.08394341     0.00086564
       8     bnd       5      10       0       0     1.19835177     0.00380017
       9     bnd       2      11       0       0     1.34778586     0.01863153
      10     bnd       5      12       0       0     1.38980360     0.00576758
      11     bnd       2       3       0       0     2.38631400    -0.54400413
      12     bnd       3      11       0       0     2.79676250    -0.12611014
      13     bnd       1       3       0       0     3.17768661    -0.26591557
      14     ang       5       1       2       0   124.00643022     0.00764612
      15     ang       5       1       4       0   116.14723878    -0.00355436
      16     ang       5       1       3       0   106.72077851    -0.00243469
      17     ang       2       1       4       0   119.76827389    -0.00411046
      18     ang       2       1       3       0    43.67854734    -0.11732368
      19     ang       4       1       3       0   116.54877483     0.10081845
      20     ang       1       2       7       0   124.80919884    -0.05470293
      21     ang       1       2      11       0   118.95508627    -0.00498231
      22     ang       1       2       3       0   113.12663470     0.10658717
      23     ang       7       2      11       0   112.70238683    -0.00529377
      24     ang       7       2       3       0    81.31073187     0.02375998
      25     ang      11       2       3       0    92.76998334     0.13846866
      26     ang       9       3       6       0   118.32696844    -0.01412841
      27     ang       9       3       8       0   118.54936056    -0.01599552
      28     ang       9       3       2       0   100.43427580     0.03448130
      29     ang       9       3      11       0   129.20750252     0.06211828
      30     ang       9       3       1       0    87.43363195    -0.01402292
      31     ang       6       3       8       0   118.19361018    -0.01708148
      32     ang       6       3       2       0    96.24583903     0.05893379
      33     ang       6       3      11       0    81.64145267     0.00798620
      34     ang       6       3       1       0    85.68658519     0.09280016
      35     ang       8       3       2       0    95.56952396     0.01621668
      36     ang       8       3      11       0    80.87449103     0.03145619
      37     ang       8       3       1       0   118.73719901     0.02734352
      38     ang      11       3       1       0    45.42472867     0.04494644
      39     ang       1       5      10       0   128.04936386     0.00170776
      40     ang       1       5      12       0   112.31524790     0.00050651
      41     ang      10       5      12       0   119.60946593    -0.00230484
      42     ang       2      11       3       0    58.45665315    -0.16487897
      43     dih       2       1       5      10   178.28706441     0.04412521
      44     dih       2       1       5      12     0.16985360     0.02847174
      45     dih       4       1       5      10     1.51702817     0.04528012
      46     dih       4       1       5      12   183.39981735     0.02962665
      47     dih       3       1       5      10   133.38160710     0.18357750
      48     dih       3       1       5      12   -44.73560371     0.16792404
      49     dih       5       1       2       7    17.32821252     0.15462784
      50     dih       5       1       2      11   174.53127256    -0.15853970
      51     dih       5       1       2       3   281.77017051     0.08020265
      52     dih       4       1       2       7   193.98789522     0.15343177
      53     dih       4       1       2      11    -8.80904473    -0.15973577
      54     dih       4       1       2       3    98.42985321     0.07900658
      55     dih       3       1       2       7    95.55804201     0.07442519
      56     dih       3       1       2      11   252.76110206    -0.23874235
      57     dih       1       2      11       3   118.43548078     0.20962576
      58     dih       7       2      11       3   -81.73718946    -0.09882859
      59     dih       1       2       3       9    56.95028442    -0.11905649
      60     dih       1       2       3       6   -63.41537376    -0.12590596
      61     dih       1       2       3       8   177.36226823    -0.12453941
      62     dih       1       2       3      11   236.79011010    -0.05456045
      63     dih       7       2       3       9   -67.28991765    -0.08685918
      64     dih       7       2       3       6   172.34442417    -0.09370865
      65     dih       7       2       3       8    53.12206616    -0.09234210
      66     dih       7       2       3      11   112.54990803    -0.02236314
      67     dih       7       2       3       1   235.75979793     0.03219731
      68     dih      11       2       3       9   180.16017433    -0.06449603
      69     dih      11       2       3       6    59.79451614    -0.07134551
      70     dih      11       2       3       8   -59.42784187    -0.06997896
      71     dih      11       2       3       1   123.20988990     0.05456045
      72     dih       9       3      11       2     0.20329524    -0.07970427
      73     dih       6       3      11       2   240.26403233    -0.08751519
      74     dih       8       3      11       2   119.78338047    -0.05981352
      75     dih       1       3      11       2   -27.55558286     0.02662391
      76     dih       5       1       3       9    -2.32193192    -0.11583728
      77     dih       5       1       3       6   239.01167935    -0.09144648
      78     dih       5       1       3       8   119.07857045    -0.13661626
      79     dih       5       1       3       2   122.07291902     0.00646221
      80     dih       5       1       3      11   156.50075042    -0.01641370
      81     dih       2       1       3       9   235.60514905    -0.12229950
      82     dih       2       1       3       6   116.93876033    -0.09790869
      83     dih       2       1       3       8    -2.99434858    -0.14307847
      84     dih       2       1       3      11    34.42783139    -0.02287591
      85     dih       4       1       3       9   129.31985599    -0.03831638
      86     dih       4       1       3       6    10.65346727    -0.01392557
      87     dih       4       1       3       8   250.72035836    -0.05909536
      88     dih       4       1       3       2   253.71470694     0.08398312
      89     dih       4       1       3      11   -71.85746167     0.06110721
 
----------------------------------------------------------------------
Geometry Convergence after Step  13       (Hartree/Angstrom,Angstrom)
----------------------------------------------------------------------
current energy                               -2.37029531 Hartree
energy change                       0.00012714     0.00012000    F
constrained gradient max            0.00844638     0.00100000    F
constrained gradient rms            0.00256577     0.00066667    F
gradient max                        0.00844638
gradient rms                        0.00256577
cart. step max                      0.03279031     0.01000000    F
cart. step rms                      0.01296098     0.00666667    F
 
 
--------
Geometry
--------
Formula: C4H5F2O
Atoms
  Index Symbol   x (angstrom)   y (angstrom)   z (angstrom)
      1      C     0.85481097    -0.25274766     0.87040251
      2      C     0.75709915    -0.31503096    -0.48921669
      3      C    -1.46845843    -0.36634164    -1.26092888
      4      H     1.03511194    -1.15818700     1.44081244
      5      C     0.67166124     0.96033607     1.64175814
      6      H    -1.72864237    -1.32977206    -0.83864988
      7      H     0.80999800     0.54602194    -1.14671657
      8      H    -1.21606482    -0.32304629    -2.31427709
      9      H    -1.86856603     0.52396630    -0.79007151
     10      O     0.73494563     1.09610674     2.83054929
     11      F     1.08520535    -1.46577798    -1.11277443
     12      F     0.37465953     2.05650312     0.84021203
 
Total System Charge             0.00000
 
 *** GOStep14 ***

 Energy gradients wrt nuclear displacements
 ==========================================

     Atom      Cartesian (a.u./angstrom)
                 X         Y         Z
 ----------------------------------------
     1 C     0.006097  0.000443  0.000614
     2 C    -0.005205 -0.000746  0.006229
     3 C    -0.001456 -0.001529 -0.006534
     4 H     0.000684 -0.000035 -0.000298
     5 C     0.002684  0.001171 -0.000241
     6 H     0.000569  0.000234  0.000280
     7 H     0.000613 -0.001036 -0.001107
     8 H     0.000517  0.000289  0.000349
     9 H     0.000950 -0.000055  0.000724
    10 O    -0.001334 -0.000087  0.001048
    11 F    -0.002990  0.001719 -0.001104
    12 F    -0.001132 -0.000367  0.000040
 ----------------------------------------
 Mulliken charges used for AMS results%charges...
Hessian eigenvector     1(    -0.006) has overlap with TSRC:    0.38786E+00
Hessian eigenvector     1 has the largest overlap with TSRC:  0.38786
           Primitive Internal Coordinates (atoms in internal order)
-------------------------------------------------------------------------------
    index    type      i       j       k       l   value(A,deg)     Max Ovl Vect
-------------------------------------------------------------------------------
       1     bnd       1       5       0       0     1.44917406    -0.01050635
       2     bnd       1       2       0       0     1.36454797     0.05285020
       3     bnd       3       9       0       0     1.08371628     0.00093644
       4     bnd       1       4       0       0     1.08521718    -0.00064997
       5     bnd       3       6       0       0     1.08361128     0.00191067
       6     bnd       2       7       0       0     1.08467345     0.00174499
       7     bnd       3       8       0       0     1.08402928     0.00140071
       8     bnd       5      10       0       0     1.19819154     0.00499452
       9     bnd       2      11       0       0     1.34933192     0.01773383
      10     bnd       5      12       0       0     1.39006056     0.00575564
      11     bnd       2       3       0       0     2.35611524    -0.55414455
      12     bnd       3      11       0       0     2.78422497    -0.12360963
      13     bnd       1       3       0       0     3.15484671    -0.31272805
      14     ang       5       1       2       0   124.02177906     0.00560976
      15     ang       5       1       4       0   116.08086848    -0.00351206
      16     ang       5       1       3       0   107.25711709     0.00145083
      17     ang       2       1       4       0   119.83699999    -0.00212472
      18     ang       2       1       3       0    43.32198046    -0.10307650
      19     ang       4       1       3       0   116.57712776     0.08490686
      20     ang       1       2       7       0   124.35075157    -0.05389186
      21     ang       1       2      11       0   118.81403247    -0.01169757
      22     ang       1       2       3       0   113.26512132     0.08479885
      23     ang       7       2      11       0   112.64494648     0.00173672
      24     ang       7       2       3       0    82.23047593     0.03845422
      25     ang      11       2       3       0    93.42565130     0.14328107
      26     ang       9       3       6       0   118.19367750    -0.01485012
      27     ang       9       3       8       0   118.38122151    -0.01856716
      28     ang       9       3       2       0   100.86766667     0.04248476
      29     ang       9       3      11       0   129.78537484     0.06998593
      30     ang       9       3       1       0    87.06385930    -0.00902234
      31     ang       6       3       8       0   118.03951658    -0.02086978
      32     ang       6       3       2       0    96.80705237     0.06437490
      33     ang       6       3      11       0    81.28051752     0.01012526
      34     ang       6       3       1       0    86.87945767     0.09354892
      35     ang       8       3       2       0    95.59340369     0.01920778
      36     ang       8       3      11       0    81.60067859     0.03607976
      37     ang       8       3       1       0   118.91795008     0.03786458
      38     ang      11       3       1       0    45.80031968     0.04899051
      39     ang       1       5      10       0   128.04457369     0.00138467
      40     ang       1       5      12       0   112.34518318     0.00067322
      41     ang      10       5      12       0   119.60593173    -0.00213437
      42     ang       2      11       3       0    57.64251616    -0.16948083
      43     dih       2       1       5      10   179.66313630     0.03737878
      44     dih       2       1       5      12     0.43106563     0.02416050
      45     dih       4       1       5      10     2.50178493     0.03899900
      46     dih       4       1       5      12   183.26971426     0.02578072
      47     dih       3       1       5      10   134.85191920     0.15825282
      48     dih       3       1       5      12   -44.38015147     0.14503455
      49     dih       5       1       2       7    17.83206063     0.14301482
      50     dih       5       1       2      11   173.08977691    -0.16374905
      51     dih       5       1       2       3   281.19331902     0.06411944
      52     dih       4       1       2       7   194.89276324     0.14130705
      53     dih       4       1       2      11    -9.84952048    -0.16545682
      54     dih       4       1       2       3    98.25402163     0.06241167
      55     dih       3       1       2       7    96.63874161     0.07889538
      56     dih       3       1       2      11   251.89645789    -0.22786849
      57     dih       1       2      11       3   118.98201303     0.18618128
      58     dih       7       2      11       3   -83.00569459    -0.11685728
      59     dih       1       2       3       9    54.92557122    -0.11530336
      60     dih       1       2       3       6   -65.56613030    -0.12449531
      61     dih       1       2       3       8   175.26582749    -0.12105401
      62     dih       1       2       3      11   236.54354308    -0.04688695
      63     dih       7       2       3       9   -69.21521386    -0.08609387
      64     dih       7       2       3       6   170.29308461    -0.09528581
      65     dih       7       2       3       8    51.12504241    -0.09184452
      66     dih       7       2       3      11   112.40275799    -0.01767746
      67     dih       7       2       3       1   235.85921492     0.02920949
      68     dih      11       2       3       9   178.38202814    -0.06841641
      69     dih      11       2       3       6    57.89032662    -0.07760836
      70     dih      11       2       3       8   -61.27771559    -0.07416706
      71     dih      11       2       3       1   123.45645692     0.04688695
      72     dih       9       3      11       2    -2.06792140    -0.08445622
      73     dih       6       3      11       2   238.30922641    -0.09560256
      74     dih       8       3      11       2   118.08541774    -0.06223711
      75     dih       1       3      11       2   -27.54330811     0.01701169
      76     dih       5       1       3       9    -4.77321602    -0.11991644
      77     dih       5       1       3       6   236.76494876    -0.09404116
      78     dih       5       1       3       8   116.25270644    -0.13784177
      79     dih       5       1       3       2   121.63730185     0.00118378
      80     dih       5       1       3      11   155.89964501    -0.02129368
      81     dih       2       1       3       9   233.58948213    -0.12110022
      82     dih       2       1       3       6   115.12764691    -0.09522494
      83     dih       2       1       3       8    -5.38459541    -0.13902555
      84     dih       2       1       3      11    34.26234316    -0.02247746
      85     dih       4       1       3       9   127.30622135    -0.05253397
      86     dih       4       1       3       6     8.84438613    -0.02665870
      87     dih       4       1       3       8   248.33214381    -0.07045931
      88     dih       4       1       3       2   253.71673922     0.06856624
      89     dih       4       1       3      11   -72.02091762     0.04608879
 
----------------------------------------------------------------------
Geometry Convergence after Step  14       (Hartree/Angstrom,Angstrom)
----------------------------------------------------------------------
current energy                               -2.37034944 Hartree
energy change                      -0.00005413     0.00012000    T
constrained gradient max            0.00652536     0.00100000    F
constrained gradient rms            0.00225456     0.00066667    F
gradient max                        0.00652536
gradient rms                        0.00225456
cart. step max                      0.04849065     0.01000000    F
cart. step rms                      0.01520316     0.00666667    F
 
 
--------
Geometry
--------
Formula: C4H5F2O
Atoms
  Index Symbol   x (angstrom)   y (angstrom)   z (angstrom)
      1      C     0.84321836    -0.24887192     0.86845151
      2      C     0.77282336    -0.30590329    -0.49263312
      3      C    -1.47544934    -0.37797945    -1.25660757
      4      H     0.99706555    -1.15909788     1.43904081
      5      C     0.67190525     0.96513097     1.64085592
      6      H    -1.72014039    -1.35287515    -0.85141582
      7      H     0.83588188     0.55706840    -1.14713357
      8      H    -1.22934151    -0.31277353    -2.31042414
      9      H    -1.88937841     0.49752829    -0.77006457
     10      O     0.72576907     1.09632866     2.83027495
     11      F     1.08625616    -1.45860117    -1.11748069
     12      F     0.42315018     2.07207666     0.83823565
 
Total System Charge             0.00000
 
 *** GOStep15 ***
