

 Parallel Execution: Process Information
 ==============================================================================
 Rank   Node Name                              NodeID   MyNodeRank  NodeMaster
    0   DESKTOP-1M8FOJT                           0          0          0
    1   DESKTOP-1M8FOJT                           0          1         -1
    2   DESKTOP-1M8FOJT                           0          2         -1
    3   DESKTOP-1M8FOJT                           0          3         -1
 ==============================================================================


May use up to 4096MB of RAM as shared memory on node 0

 *******************************************************************************
 *                                                                             *
 *  --------------------------------                                           *
 *   Amsterdam Modeling Suite (AMS)              2021.106                      *
 *  --------------------------------                                           *
 *                                               r99350 2021-12-03             *
 *                                                                             *
 *                                                                             *
 *                              =================                              *
 *                              |               |                              *
 *                              |     A M S     |                              *
 *                              |               |                              *
 *                              =================                              *
 *                                                                             *
 *                                                                             *
 *   Online information and documentation:  https://www.scm.com/support/       *
 *   E-mail:  support@scm.com   info@scm.com                                   *
 *                                                                             *
 *   Scientific publications using AMS results must be properly referenced     *
 *   See the User Manuals (or the web site) for recommended citations          *
 *   The terms and conditions of the End User License Agreement apply to       *
 *   the use of AMS, https://www.scm.com/license-terms/                        *
 *                                                                             *
 *********************  x86_64_windows_amdZen / intelmpi  **********************
 
 Licensed to: Mr. Yuman Hordijk / SCM / Amsterdam / Netherlands 2021-10-04 09:39:26
 SCM User ID: u24430
  
 AMS 2021.106  RunTime: Jan22-2022 20:43:06  ShM Nodes: 1  Procs: 4

 AMS jobname: ams
 AMS jobid  : 1590531467

 Start   directory: D:/Users/Yuman/Desktop/MasterProject/manual_calculations/non_cat/tmp..18012.0.noindex/
 Results directory: D:/Users/Yuman/Desktop/MasterProject/manual_calculations/non_cat/non_cat_TSRC_H_H.results/
 Scratch directory: Z:/SCMTMP/amstmp_ams_kid0.1590531467/


 Communication costs MPI_COMM_WORLD:      1.346 usec per message,   0.0050 usec per 8-byte item
 Communication costs for intra-node:      1.598 usec per message,   0.0043 usec per 8-byte item

 RNG seed: 1887518866 467929364 1702520035 -719567481 -416895380 2126064121 -474996009 -635178941



                      ************************************************************************
                      *  ADF 2021.106  RunTime: Jan22-2022 20:43:06  ShM Nodes: 1  Procs: 4  *
                      ************************************************************************
  
       *****************************
       *  TRANSITION STATE SEARCH  *
       *****************************

Optimization Method                    Quasi Newton
Optimization Coordinates               Delocalized Coordinates
Optimize lattice                       F
 
 ------------------------------------------------------
 Convergence criteria (Hartree,Angstrom)
 ------------------------------------------------------
 Maximum gradient               0.001000000000
 Maximum rms gradient           0.000666666667
 Maximum step allowed           0.010000000000
 Maximum rms step allowed       0.006666666667
 Maximum energy change allowe   0.000120000000
 Maximum stress energy allowe   0.000500000000
 
Initial model Hessian                  Automatic Hessian
 
------------------------------------
Quasi-Newton Optimizer Parameters
------------------------------------
Hessian Update Method                  Bofill
Maximum number of steps                  250
First GDIIS cycle                          0
Maximum GDIIS vectors                      0
Trust radius (bohr)                        0.200000
Trust radius varies                        F
Constraints converged at all steps         T
Use projector                              T
 
 Rigid motions settings for: old optimizer
 Atomic rotations (x,y,z):     T T T
 Atomic translations (x,y,z):  T T T
 Tolerance:                   1.000000000000000E-006
 
           1  TSRC entries:
    i   type      a1    a2    a3    a4    coef
    1 Distance     3     2               -1.000
 
--------
Geometry
--------
Formula: C4H7O
Atoms
  Index Symbol   x (angstrom)   y (angstrom)   z (angstrom)
      1      C     0.81668000    -0.23471900     0.88197500
      2      C     0.81678400    -0.23413100    -0.47719300
      3      C    -1.53160000    -0.46998000    -1.30857600
      4      H     0.85636200    -1.16386700     1.44859300
      5      C     0.73893400     1.00063500     1.66014300
      6      H    -1.75224300    -1.42324600    -0.84366900
      7      H     0.86540100     0.70149500    -1.02879400
      8      H     0.99662159    -1.13840654    -1.03963784
      9      H    -1.29572100    -0.45322200    -2.36675600
     10      H    -1.93437200     0.42729600    -0.85485600
     11      H     0.73182848     1.04972974     2.73900315
     12      O     0.68714041     2.02130477     0.99384678
 
Total System Charge             0.00000
Bonding info available!
 
 
----------------
ADF Engine Input
----------------
 
 Basis
 Type TZ2P
 Core None
 End
 SpinPolarization 1.0
 XC
 GGA OLYP
 End
 Unrestricted Yes
 

 Title: *** (NO TITLE) ***

 Using automatic Hessian for delocalized coordinates.
 *** GOStep1 ***

 Energy gradients wrt nuclear displacements
 ==========================================

     Atom      Cartesian (a.u./angstrom)
                 X         Y         Z
 ----------------------------------------
     1 C    -0.000940  0.034240 -0.032003
     2 C     0.002907 -0.000638  0.003924
     3 C    -0.003462 -0.000300 -0.003149
     4 H    -0.000559  0.009181  0.004334
     5 C    -0.000769 -0.002880  0.085217
     6 H     0.000038  0.001238 -0.000096
     7 H     0.000110  0.002327 -0.004981
     8 H    -0.001128  0.008331 -0.000969
     9 H    -0.000201  0.000813 -0.000365
    10 H    -0.000877 -0.000007 -0.000449
    11 H    -0.000784  0.014719 -0.035631
    12 O     0.005665 -0.067025 -0.015832
 ----------------------------------------
 Mulliken charges used for AMS results%charges...
           Primitive Internal Coordinates (atoms in internal order)
-------------------------------------------------------------------------------
    index    type      i       j       k       l   value(A,deg)     TSRC Vect
-------------------------------------------------------------------------------
       1     bnd       1       5       0       0     1.46208392     0.00000000
       2     bnd       1       2       0       0     1.35916813     0.04483343
       3     bnd       2       8       0       0     1.08000000     0.01206970
       4     bnd       3       9       0       0     1.08428070     0.02929853
       5     bnd       1       4       0       0     1.08901177     0.00000000
       6     bnd       5      11       0       0     1.08000000     0.00000000
       7     bnd       3       6       0       0     1.08329955     0.02666661
       8     bnd       2       7       0       0     1.08720894     0.01631564
       9     bnd       3      10       0       0     1.08313958     0.02692002
      10     bnd       5      12       0       0     1.22000000     0.00000000
      11     bnd       2       3       0       0     2.50234487    -0.14451931
      12     bnd       1       3       0       0     3.21998143    -0.08854995
      13     bnd       2       6       0       0     2.85450501    -0.09179005
      14     bnd       2       9       0       0     2.84273224    -0.09104780
      15     bnd       2      10       0       0     2.85464085    -0.09171025
      16     bnd       3       7       0       0     2.68258186    -0.09725071
      17     bnd       3       8       0       0     2.62888306    -0.09915238
      18     ang       5       1       2       0   122.13193049     0.00521346
      19     ang       5       1       4       0   116.48149708    -0.00688762
      20     ang       5       1       3       0   112.64562536     0.00973111
      21     ang       2       1       4       0   121.37727346     0.00158877
      22     ang       2       1       3       0    47.13980479    -0.01997805
      23     ang       4       1       3       0   108.55407601     0.00761569
      24     ang       1       2       8       0   121.36128207    -0.00635039
      25     ang       1       2       7       0   120.51279539    -0.00751863
      26     ang       1       2       3       0   109.39804563     0.00718363
      27     ang       1       2       6       0    97.36189422     0.00045190
      28     ang       1       2       9       0   131.65236189     0.01919339
      29     ang       1       2      10       0    97.60393042     0.00044018
      30     ang       8       2       7       0   116.67222788     0.00525157
      31     ang       8       2       3       0    84.51010423     0.01493012
      32     ang       8       2       6       0    74.58595099     0.00890684
      33     ang       8       2       9       0    73.32443809     0.00874641
      34     ang       8       2      10       0   106.59375967     0.02629489
      35     ang       7       2       3       0    87.39281970     0.01513404
      36     ang       7       2       6       0   109.48758492     0.02645890
      37     ang       7       2       9       0    76.25016237     0.00886701
      38     ang       7       2      10       0    77.08981866     0.00882666
      39     ang       6       2       9       0    38.16371016     0.01974634
      40     ang       6       2      10       0    38.01699289     0.01937014
      41     ang       9       2      10       0    38.16203879     0.01977410
      42     ang       9       3       6       0   118.47247906    -0.00707603
      43     ang       9       3      10       0   118.48323850    -0.00712290
      44     ang       9       3       2       0    96.81291220     0.01589770
      45     ang       9       3       1       0   120.27444570     0.02869219
      46     ang       9       3       7       0    84.29830723     0.00880694
      47     ang       9       3       8       0    83.94714394     0.00874997
      48     ang       6       3      10       0   118.25885447    -0.00663685
      49     ang       6       3       2       0    97.55621160     0.01625517
      50     ang       6       3       1       0    85.46171991     0.00883638
      51     ang       6       3       7       0   121.43376470     0.02857259
      52     ang       6       3       8       0    85.88447147     0.00881718
      53     ang      10       3       2       0    97.56929804     0.01623421
      54     ang      10       3       1       0    85.73843521     0.00883395
      55     ang      10       3       7       0    85.80331135     0.00868687
      56     ang      10       3       8       0   121.69490362     0.02847064
      57     ang       1       3       7       0    41.01789145     0.02119983
      58     ang       1       3       8       0    41.20326574     0.02117235
      59     ang       7       3       8       0    40.62720626     0.02081487
      60     ang       1       5      11       0   124.78014565     0.00000000
      61     ang       1       5      12       0   114.73739870     0.00000000
      62     ang      11       5      12       0   120.48134640     0.00000000
      63     ang       3       6       2       0    60.34468769    -0.02757813
      64     ang       2       7       3       0    68.72451165    -0.02744967
      65     ang       2       8       3       0    71.35185341    -0.02716716
      66     ang       3       9       2       0    60.93212808    -0.02790737
      67     ang       3      10       2       0    60.33684884    -0.02759850
      68     dih       2       1       5      11   179.74813335    -0.00793580
      69     dih       2       1       5      12    -0.63506933    -0.00793580
      70     dih       4       1       5      11     0.84367610    -0.00291695
      71     dih       4       1       5      12   180.46047342    -0.00291695
      72     dih       3       1       5      11   127.21624568     0.01085275
      73     dih       3       1       5      12   -53.16695700     0.01085275
      74     dih       5       1       2       8   172.35502852    -0.01845797
      75     dih       5       1       2       7     6.57009342     0.02223739
      76     dih       5       1       2       3   267.85385074     0.00210212
      77     dih       5       1       2       6   248.75690649    -0.00766511
      78     dih       5       1       2       9   267.65479661     0.00203037
      79     dih       5       1       2      10   -72.88759900     0.01193268
      80     dih       4       1       2       8    -8.79354437    -0.02380804
      81     dih       4       1       2       7   185.42152053     0.01688732
      82     dih       4       1       2       3    86.70527785    -0.00324795
      83     dih       4       1       2       6    67.60833360    -0.01301517
      84     dih       4       1       2       9    86.50622373    -0.00331970
      85     dih       4       1       2      10   105.96382811     0.00658261
      86     dih       3       1       2       8   264.50117778    -0.02056009
      87     dih       3       1       2       7    98.71624268     0.02013527
      88     dih       3       1       2       6   -19.09694425    -0.00976723
      89     dih       3       1       2       9    -0.19905413    -0.00007175
      90     dih       3       1       2      10    19.25855026     0.00983056
      91     dih       1       2       8       3   109.40048395     0.01687764
      92     dih       7       2       8       3   -84.29422315    -0.02399119
      93     dih       6       2       8       3    20.10982480     0.00907492
      94     dih       9       2       8       3   -19.64380592    -0.00974493
      95     dih      10       2       8       3    -0.67870886    -0.00018786
      96     dih       6       3       9       2   257.55808319    -0.02644147
      97     dih      10       3       9       2   102.45974316     0.02641188
      98     dih       1       3       9       2    -0.18104675    -0.00006465
      99     dih       7       3       9       2    20.38290605     0.01020797
     100     dih       8       3       9       2   -20.46707807    -0.01005941
     101     dih       9       3       6       2   102.00948582     0.02621580
     102     dih      10       3       6       2   257.16400671    -0.02663957
     103     dih       1       3       6       2   -20.14929510    -0.01065664
     104     dih       7       3       6       2     0.52968161     0.00012716
     105     dih       8       3       6       2    21.17504099     0.01008245
     106     dih       1       2       7       3   248.95626953    -0.01638921
     107     dih       8       2       7       3    82.52763183     0.02396198
     108     dih       6       2       7       3     0.44547776     0.00004452
     109     dih       9       2       7       3    19.49721097     0.00981353
     110     dih      10       2       7       3   -19.75505464    -0.00908759
     111     dih       9       3      10       2   257.98018397    -0.02619775
     112     dih       6       3      10       2   102.82836572     0.02665159
     113     dih       1       3      10       2    20.30570963     0.01069473
     114     dih       7       3      10       2   -20.82918846    -0.01008522
     115     dih       8       3      10       2    -0.83115342    -0.00036144
     116     dih       1       2       3       9   180.39271465    -0.00017662
     117     dih       1       2       3       6   -59.59533627    -0.00045364
     118     dih       1       2       3      10    60.36685908     0.00014532
     119     dih       1       2       3       7   121.52101014    -0.00106793
     120     dih       1       2       3       8   238.63730917     0.00074842
     121     dih       8       2       3       9   -58.24459452    -0.00092504
     122     dih       8       2       3       6    61.76735456    -0.00120207
     123     dih       8       2       3      10   181.72954991    -0.00060311
     124     dih       8       2       3       1   121.36269083    -0.00074842
     125     dih       8       2       3       7   242.88370097    -0.00181635
     126     dih       7       2       3       9    58.87170451     0.00089131
     127     dih       7       2       3       6   178.88365359     0.00061429
     128     dih       7       2       3      10   -61.15415106     0.00121325
     129     dih       7       2       3       1   238.47898986     0.00106793
     130     dih       7       2       3       8   117.11629903     0.00181635
     131     dih       6       2       3       9   239.98805092     0.00027702
     132     dih       6       2       3      10   119.96219535     0.00059896
     133     dih       6       2       3       1    59.59533627     0.00045364
     134     dih       6       2       3       7   181.11634641    -0.00061429
     135     dih       6       2       3       8   -61.76735456     0.00120207
     136     dih       9       2       3       6   120.01194908    -0.00027702
     137     dih       9       2       3      10   239.97414443     0.00032194
     138     dih       9       2       3       1   179.60728535     0.00017662
     139     dih       9       2       3       7   -58.87170451    -0.00089131
     140     dih       9       2       3       8    58.24459452     0.00092504
     141     dih      10       2       3       9   120.02585557    -0.00032194
     142     dih      10       2       3       6   240.03780465    -0.00059896
     143     dih      10       2       3       1   -60.36685908    -0.00014532
     144     dih      10       2       3       7    61.15415106    -0.00121325
     145     dih      10       2       3       8   178.27045009     0.00060311
     146     dih       5       1       3       9   113.97123608    -0.00207145
     147     dih       5       1       3       6   234.46351100     0.00233707
     148     dih       5       1       3      10    -6.70885435    -0.00667555
     149     dih       5       1       3       2   113.51971531    -0.00198541
     150     dih       5       1       3       7    81.79279287    -0.00451858
     151     dih       5       1       3       8   145.53117701     0.00025359
     152     dih       2       1       3       9     0.45152078    -0.00008604
     153     dih       2       1       3       6   120.94379569     0.00432248
     154     dih       2       1       3      10   239.77143035    -0.00469014
     155     dih       2       1       3       7   -31.72692244    -0.00253317
     156     dih       2       1       3       8    32.01146170     0.00223900
     157     dih       4       1       3       9   244.48850980     0.00278964
     158     dih       4       1       3       6     4.98078471     0.00719816
     159     dih       4       1       3      10   123.80841936    -0.00181446
     160     dih       4       1       3       2   244.03698902     0.00287568
     161     dih       4       1       3       7   212.31006658     0.00034251
     162     dih       4       1       3       8   -83.95154928     0.00511468
     163     dih       1       2       6       3   124.88764731     0.00316210
     164     dih       8       2       6       3   245.46600307    -0.00365035
     165     dih       7       2       6       3    -1.18296723     0.00044338
     166     dih       9       2       6       3   -32.05539858    -0.00274436
     167     dih      10       2       6       3    31.94330304     0.00179111
     168     dih       1       2       9       3     0.49575478    -0.00009713
     169     dih       8       2       9       3   117.92511055     0.00115554
     170     dih       7       2       9       3   241.68513846    -0.00174897
     171     dih       6       2       9       3    31.81706571     0.00181200
     172     dih      10       2       9       3   -31.80538315    -0.00187217
     173     dih       1       2      10       3   235.80616395    -0.00351473
     174     dih       8       2      10       3     1.79645288    -0.00033568
     175     dih       7       2      10       3   116.14173452     0.00407977
     176     dih       6       2      10       3   -31.95136330    -0.00172361
     177     dih       9       2      10       3    32.05169900     0.00273721
     178     dih       9       3       7       2   238.67074179    -0.00368051
     179     dih       6       3       7       2    -1.29702339     0.00036716
     180     dih      10       3       7       2   119.46891254     0.00612845
     181     dih       1       3       7       2    31.14063561     0.00348089
     182     dih       8       3       7       2   -33.98700678    -0.00142633
     183     dih       9       3       8       2   121.89348886     0.00362306
     184     dih       6       3       8       2   241.12097729    -0.00622989
     185     dih      10       3       8       2     2.01511001    -0.00016010
     186     dih       1       3       8       2   -31.07087192    -0.00346605
     187     dih       7       3       8       2    33.60328711     0.00174267
Hessian eigenvector     1(     0.004) has overlap with TSRC:    0.30654E-04
Hessian eigenvector     2(     0.008) has overlap with TSRC:    0.63369E-04
Hessian eigenvector     3(     0.009) has overlap with TSRC:    0.13869E-02
Hessian eigenvector     4(     0.009) has overlap with TSRC:    0.39018E-02
Hessian eigenvector     5(     0.010) has overlap with TSRC:    0.52900E-02
Hessian eigenvector     6(     0.020) has overlap with TSRC:    0.11521E+00
Hessian eigenvector     7(     0.021) has overlap with TSRC:    0.29091E-01
Hessian eigenvector     8(     0.024) has overlap with TSRC:    0.27674E-01
Hessian eigenvector     9(     0.024) has overlap with TSRC:    0.90825E-02
Hessian eigenvector    10(     0.031) has overlap with TSRC:    0.12629E+00
Hessian eigenvector    11(     0.048) has overlap with TSRC:    0.86572E-02
Hessian eigenvector    12(     0.055) has overlap with TSRC:    0.54513E-02
Hessian eigenvector    13(     0.062) has overlap with TSRC:    0.38175E-02
Hessian eigenvector    14(     0.063) has overlap with TSRC:    0.14590E-02
Hessian eigenvector    15(     0.067) has overlap with TSRC:    0.35407E-01
Hessian eigenvector    16(     0.073) has overlap with TSRC:    0.35529E-01
Hessian eigenvector    17(     0.094) has overlap with TSRC:    0.25089E+00
Hessian eigenvector    18(     0.105) has overlap with TSRC:    0.37068E-01
Hessian eigenvector    19(     0.224) has overlap with TSRC:    0.40522E-08
Hessian eigenvector    20(     0.249) has overlap with TSRC:    0.11967E-08
Hessian eigenvector    21(     0.361) has overlap with TSRC:    0.37094E-03
Hessian eigenvector    22(     0.365) has overlap with TSRC:    0.11761E-01
Hessian eigenvector    23(     0.375) has overlap with TSRC:    0.23941E-01
Hessian eigenvector    24(     0.379) has overlap with TSRC:    0.10484E-01
Hessian eigenvector    25(     0.381) has overlap with TSRC:    0.29493E-01
Hessian eigenvector    26(     0.420) has overlap with TSRC:    0.50799E-01
Hessian eigenvector    27(     0.500) has overlap with TSRC:    0.47298E-15
Hessian eigenvector    28(     0.505) has overlap with TSRC:    0.21912E-15
Hessian eigenvector    29(     0.526) has overlap with TSRC:    0.55012E-15
Hessian eigenvector    30(     0.603) has overlap with TSRC:    0.56781E-15
Hessian eigenvector    17 has the largest overlap with TSRC:  0.25089
           Primitive Internal Coordinates (atoms in internal order)
-------------------------------------------------------------------------------
    index    type      i       j       k       l   value(A,deg)     Max Ovl Vect
-------------------------------------------------------------------------------
       1     bnd       1       5       0       0     1.46208392     0.00000000
       2     bnd       1       2       0       0     1.35916813    -0.04700431
       3     bnd       2       8       0       0     1.08000000    -0.01303332
       4     bnd       3       9       0       0     1.08428070    -0.00678501
       5     bnd       1       4       0       0     1.08901177     0.00000000
       6     bnd       5      11       0       0     1.08000000     0.00000000
       7     bnd       3       6       0       0     1.08329955    -0.00908906
       8     bnd       2       7       0       0     1.08720894    -0.01261966
       9     bnd       3      10       0       0     1.08313958    -0.00940894
      10     bnd       5      12       0       0     1.22000000     0.00000000
      11     bnd       2       3       0       0     2.50234487     0.35481280
      12     bnd       1       3       0       0     3.21998143     0.43117567
      13     bnd       2       6       0       0     2.85450501     0.32218489
      14     bnd       2       9       0       0     2.84273224     0.33795934
      15     bnd       2      10       0       0     2.85464085     0.32394861
      16     bnd       3       7       0       0     2.68258186     0.31493897
      17     bnd       3       8       0       0     2.62888306     0.31844158
      18     ang       5       1       2       0   122.13193049    -0.05328897
      19     ang       5       1       4       0   116.48149708     0.13141772
      20     ang       5       1       3       0   112.64562536    -0.03653040
      21     ang       2       1       4       0   121.37727346    -0.07888618
      22     ang       2       1       3       0    47.13980479    -0.02324978
      23     ang       4       1       3       0   108.55407601    -0.05669558
      24     ang       1       2       8       0   121.36128207    -0.00786227
      25     ang       1       2       7       0   120.51279539    -0.01570200
      26     ang       1       2       3       0   109.39804563     0.07312327
      27     ang       1       2       6       0    97.36189422     0.08510256
      28     ang       1       2       9       0   131.65236189     0.04568093
      29     ang       1       2      10       0    97.60393042     0.08358518
      30     ang       8       2       7       0   116.67222788     0.00660973
      31     ang       8       2       3       0    84.51010423    -0.00061017
      32     ang       8       2       6       0    74.58595099     0.00857334
      33     ang       8       2       9       0    73.32443809     0.01344176
      34     ang       8       2      10       0   106.59375967    -0.02681501
      35     ang       7       2       3       0    87.39281970    -0.00256695
      36     ang       7       2       6       0   109.48758492    -0.02853583
      37     ang       7       2       9       0    76.25016237     0.01180166
      38     ang       7       2      10       0    77.08981866     0.00734557
      39     ang       6       2       9       0    38.16371016    -0.04562286
      40     ang       6       2      10       0    38.01699289    -0.04370880
      41     ang       9       2      10       0    38.16203879    -0.04591192
      42     ang       9       3       6       0   118.47247906    -0.00260829
      43     ang       9       3      10       0   118.48323850    -0.00320586
      44     ang       9       3       2       0    96.81291220     0.00718841
      45     ang       9       3       1       0   120.27444570    -0.04267622
      46     ang       9       3       7       0    84.29830723     0.02372818
      47     ang       9       3       8       0    83.94714394     0.02464128
      48     ang       6       3      10       0   118.25885447     0.00324152
      49     ang       6       3       2       0    97.55621160    -0.00116038
      50     ang       6       3       1       0    85.46171991     0.02581344
      51     ang       6       3       7       0   121.43376470    -0.03141136
      52     ang       6       3       8       0    85.88447147     0.01246295
      53     ang      10       3       2       0    97.56929804    -0.00008627
      54     ang      10       3       1       0    85.73843521     0.02481575
      55     ang      10       3       7       0    85.80331135     0.01293738
      56     ang      10       3       8       0   121.69490362    -0.03165414
      57     ang       1       3       7       0    41.01789145    -0.06958152
      58     ang       1       3       8       0    41.20326574    -0.06960468
      59     ang       7       3       8       0    40.62720626    -0.04983597
      60     ang       1       5      11       0   124.78014565    -0.00000030
      61     ang       1       5      12       0   114.73739870    -0.00000022
      62     ang      11       5      12       0   120.48134640    -0.00000024
      63     ang       3       6       2       0    60.34468769     0.02715245
      64     ang       2       7       3       0    68.72451165     0.03284645
      65     ang       2       8       3       0    71.35185341     0.03222267
      66     ang       3       9       2       0    60.93212808     0.02026219
      67     ang       3      10       2       0    60.33684884     0.02632461
      68     dih       2       1       5      11   179.74813335    -0.03142040
      69     dih       2       1       5      12    -0.63506933    -0.03155279
      70     dih       4       1       5      11     0.84367610     0.01396241
      71     dih       4       1       5      12   180.46047342     0.01383002
      72     dih       3       1       5      11   127.21624568     0.01563926
      73     dih       3       1       5      12   -53.16695700     0.01550686
      74     dih       5       1       2       8   172.35502852    -0.02332666
      75     dih       5       1       2       7     6.57009342     0.05726592
      76     dih       5       1       2       3   267.85385074     0.01992480
      77     dih       5       1       2       6   248.75690649     0.03753240
      78     dih       5       1       2       9   267.65479661     0.02120389
      79     dih       5       1       2      10   -72.88759900     0.00111768
      80     dih       4       1       2       8    -8.79354437    -0.06862967
      81     dih       4       1       2       7   185.42152053     0.01196291
      82     dih       4       1       2       3    86.70527785    -0.02537820
      83     dih       4       1       2       6    67.60833360    -0.00777061
      84     dih       4       1       2       9    86.50622373    -0.02409912
      85     dih       4       1       2      10   105.96382811    -0.04418533
      86     dih       3       1       2       8   264.50117778    -0.04325146
      87     dih       3       1       2       7    98.71624268     0.03734112
      88     dih       3       1       2       6   -19.09694425     0.01760760
      89     dih       3       1       2       9    -0.19905413     0.00127909
      90     dih       3       1       2      10    19.25855026    -0.01880712
      91     dih       1       2       8       3   109.40048395     0.08477009
      92     dih       7       2       8       3   -84.29422315     0.00418131
      93     dih       6       2       8       3    20.10982480    -0.02524933
      94     dih       9       2       8       3   -19.64380592     0.02461532
      95     dih      10       2       8       3    -0.67870886     0.00154440
      96     dih       6       3       9       2   257.55808319    -0.00220097
      97     dih      10       3       9       2   102.45974316     0.00330716
      98     dih       1       3       9       2    -0.18104675     0.00152162
      99     dih       7       3       9       2    20.38290605    -0.02548098
     100     dih       8       3       9       2   -20.46707807     0.02650331
     101     dih       9       3       6       2   102.00948582     0.00704339
     102     dih      10       3       6       2   257.16400671    -0.00006278
     103     dih       1       3       6       2   -20.14929510     0.04212134
     104     dih       7       3       6       2     0.52968161    -0.00188230
     105     dih       8       3       6       2    21.17504099    -0.02867520
     106     dih       1       2       7       3   248.95626953    -0.08149895
     107     dih       8       2       7       3    82.52763183    -0.00274114
     108     dih       6       2       7       3     0.44547776    -0.00147830
     109     dih       9       2       7       3    19.49721097    -0.02400334
     110     dih      10       2       7       3   -19.75505464     0.02487216
     111     dih       9       3      10       2   257.98018397    -0.00751940
     112     dih       6       3      10       2   102.82836572    -0.00056279
     113     dih       1       3      10       2    20.30570963    -0.04333311
     114     dih       7       3      10       2   -20.82918846     0.02749469
     115     dih       8       3      10       2    -0.83115342     0.00214468
     116     dih       1       2       3       9   180.39271465    -0.00234226
     117     dih       1       2       3       6   -59.59533627    -0.00368401
     118     dih       1       2       3      10    60.36685908    -0.00061682
     119     dih       1       2       3       7   121.52101014    -0.00594479
     120     dih       1       2       3       8   238.63730917     0.00112674
     121     dih       8       2       3       9   -58.24459452    -0.00346900
     122     dih       8       2       3       6    61.76735456    -0.00481075
     123     dih       8       2       3      10   181.72954991    -0.00174356
     124     dih       8       2       3       1   121.36269083    -0.00112674
     125     dih       8       2       3       7   242.88370097    -0.00707153
     126     dih       7       2       3       9    58.87170451     0.00360253
     127     dih       7       2       3       6   178.88365359     0.00226077
     128     dih       7       2       3      10   -61.15415106     0.00532796
     129     dih       7       2       3       1   238.47898986     0.00594479
     130     dih       7       2       3       8   117.11629903     0.00707153
     131     dih       6       2       3       9   239.98805092     0.00134175
     132     dih       6       2       3      10   119.96219535     0.00306719
     133     dih       6       2       3       1    59.59533627     0.00368401
     134     dih       6       2       3       7   181.11634641    -0.00226077
     135     dih       6       2       3       8   -61.76735456     0.00481075
     136     dih       9       2       3       6   120.01194908    -0.00134175
     137     dih       9       2       3      10   239.97414443     0.00172544
     138     dih       9       2       3       1   179.60728535     0.00234226
     139     dih       9       2       3       7   -58.87170451    -0.00360253
     140     dih       9       2       3       8    58.24459452     0.00346900
     141     dih      10       2       3       9   120.02585557    -0.00172544
     142     dih      10       2       3       6   240.03780465    -0.00306719
     143     dih      10       2       3       1   -60.36685908     0.00061682
     144     dih      10       2       3       7    61.15415106    -0.00532796
     145     dih      10       2       3       8   178.27045009     0.00174356
     146     dih       5       1       3       9   113.97123608    -0.04649666
     147     dih       5       1       3       6   234.46351100    -0.04404559
     148     dih       5       1       3      10    -6.70885435    -0.04735660
     149     dih       5       1       3       2   113.51971531    -0.04360056
     150     dih       5       1       3       7    81.79279287    -0.05303182
     151     dih       5       1       3       8   145.53117701    -0.03757322
     152     dih       2       1       3       9     0.45152078    -0.00289610
     153     dih       2       1       3       6   120.94379569    -0.00044503
     154     dih       2       1       3      10   239.77143035    -0.00375604
     155     dih       2       1       3       7   -31.72692244    -0.00943126
     156     dih       2       1       3       8    32.01146170     0.00602734
     157     dih       4       1       3       9   244.48850980     0.05382382
     158     dih       4       1       3       6     4.98078471     0.05627489
     159     dih       4       1       3      10   123.80841936     0.05296388
     160     dih       4       1       3       2   244.03698902     0.05671993
     161     dih       4       1       3       7   212.31006658     0.04728867
     162     dih       4       1       3       8   -83.95154928     0.06274727
     163     dih       1       2       6       3   124.88764731     0.01805682
     164     dih       8       2       6       3   245.46600307    -0.01096617
     165     dih       7       2       6       3    -1.18296723     0.00260666
     166     dih       9       2       6       3   -32.05539858     0.00516920
     167     dih      10       2       6       3    31.94330304    -0.00654341
     168     dih       1       2       9       3     0.49575478    -0.00282806
     169     dih       8       2       9       3   117.92511055     0.00365633
     170     dih       7       2       9       3   241.68513846    -0.00153883
     171     dih       6       2       9       3    31.81706571    -0.00321800
     172     dih      10       2       9       3   -31.80538315     0.00323514
     173     dih       1       2      10       3   235.80616395    -0.02198916
     174     dih       8       2      10       3     1.79645288    -0.00206351
     175     dih       7       2      10       3   116.14173452     0.00964805
     176     dih       6       2      10       3   -31.95136330     0.00615659
     177     dih       9       2      10       3    32.05169900    -0.00479684
     178     dih       9       3       7       2   238.67074179    -0.00172873
     179     dih       6       3       7       2    -1.29702339     0.00305799
     180     dih      10       3       7       2   119.46891254     0.00685325
     181     dih       1       3       7       2    31.14063561    -0.01889283
     182     dih       8       3       7       2   -33.98700678     0.01083903
     183     dih       9       3       8       2   121.89348886     0.00212854
     184     dih       6       3       8       2   241.12097729    -0.00603000
     185     dih      10       3       8       2     2.01511001    -0.00271898
     186     dih       1       3       8       2   -31.07087192     0.02092177
     187     dih       7       3       8       2    33.60328711    -0.00924816
 
----------------------------------------------------------------------
Geometry Convergence after Step   1       (Hartree/Angstrom,Angstrom)
----------------------------------------------------------------------
current energy                               -2.31826562 Hartree
energy change                      -2.31826562     0.00012000    F
constrained gradient max            0.08476350     0.00100000    F
constrained gradient rms            0.02106651     0.00066667    F
gradient max                        0.08476350
gradient rms                        0.02106651
cart. step max                      0.10683716     0.01000000    F
cart. step rms                      0.02731000     0.00666667    F
 
 
--------
Geometry
--------
Formula: C4H7O
Atoms
  Index Symbol   x (angstrom)   y (angstrom)   z (angstrom)
      1      C     0.81705889    -0.22731363     0.87190083
      2      C     0.81658302    -0.24677691    -0.48568222
      3      C    -1.53464442    -0.47846010    -1.31441929
      4      H     0.84968975    -1.15668731     1.44312791
      5      C     0.74534747     1.02713697     1.63990853
      6      H    -1.76198183    -1.42428652    -0.83733797
      7      H     0.87214031     0.68039993    -1.04755861
      8      H     0.99118149    -1.16248836    -1.03537241
      9      H    -1.29909085    -0.47729393    -2.37286700
     10      H    -1.93140859     0.42763244    -0.87256738
     11      H     0.74313822     0.99288448     2.73332590
     12      O     0.68780203     2.12814193     1.08162080
 
Total System Charge             0.00000
Bonding info available!
 
 *** GOStep2 ***

 Energy gradients wrt nuclear displacements
 ==========================================

     Atom      Cartesian (a.u./angstrom)
                 X         Y         Z
 ----------------------------------------
     1 C     0.001091  0.003482 -0.017748
     2 C     0.001669  0.000900  0.005603
     3 C    -0.002628 -0.000320 -0.002552
     4 H    -0.000280  0.000575  0.001381
     5 C     0.001959 -0.030162  0.051101
     6 H    -0.000037  0.001091 -0.000006
     7 H     0.000232 -0.000446 -0.002407
     8 H    -0.000480  0.005190 -0.000680
     9 H    -0.000255  0.000767 -0.000269
    10 H    -0.001030  0.000239 -0.000290
    11 H    -0.001073  0.012939 -0.019143
    12 O     0.000831  0.005746 -0.014990
 ----------------------------------------
 Mulliken charges used for AMS results%charges...
Hessian eigenvector     1(     0.004) has overlap with TSRC:    0.12793E-03
Hessian eigenvector     2(     0.008) has overlap with TSRC:    0.11404E-02
Hessian eigenvector     3(     0.009) has overlap with TSRC:    0.19620E-02
Hessian eigenvector     4(     0.009) has overlap with TSRC:    0.39522E-02
Hessian eigenvector     5(     0.011) has overlap with TSRC:    0.36587E-02
Hessian eigenvector     6(     0.020) has overlap with TSRC:    0.11519E+00
Hessian eigenvector     7(     0.021) has overlap with TSRC:    0.29982E-01
Hessian eigenvector     8(     0.024) has overlap with TSRC:    0.27368E-01
Hessian eigenvector     9(     0.024) has overlap with TSRC:    0.97491E-02
Hessian eigenvector    10(     0.031) has overlap with TSRC:    0.12517E+00
Hessian eigenvector    11(     0.048) has overlap with TSRC:    0.81863E-02
Hessian eigenvector    12(     0.055) has overlap with TSRC:    0.24266E-02
Hessian eigenvector    13(     0.062) has overlap with TSRC:    0.26910E-02
Hessian eigenvector    14(     0.063) has overlap with TSRC:    0.32792E-02
Hessian eigenvector    15(     0.067) has overlap with TSRC:    0.39286E-01
Hessian eigenvector    16(     0.074) has overlap with TSRC:    0.32503E-01
Hessian eigenvector    17(     0.093) has overlap with TSRC:    0.25047E+00
Hessian eigenvector    18(     0.106) has overlap with TSRC:    0.39762E-01
Hessian eigenvector    19(     0.193) has overlap with TSRC:    0.13451E-01
Hessian eigenvector    20(     0.274) has overlap with TSRC:    0.63491E-02
Hessian eigenvector    21(     0.361) has overlap with TSRC:    0.25978E-03
Hessian eigenvector    22(     0.365) has overlap with TSRC:    0.11728E-01
Hessian eigenvector    23(     0.375) has overlap with TSRC:    0.24101E-01
Hessian eigenvector    24(     0.379) has overlap with TSRC:    0.98213E-02
Hessian eigenvector    25(     0.381) has overlap with TSRC:    0.29751E-01
Hessian eigenvector    26(     0.421) has overlap with TSRC:    0.50666E-01
Hessian eigenvector    27(     0.500) has overlap with TSRC:    0.67944E-03
Hessian eigenvector    28(     0.501) has overlap with TSRC:    0.65778E-03
Hessian eigenvector    29(     0.531) has overlap with TSRC:    0.32254E-03
Hessian eigenvector    30(     0.668) has overlap with TSRC:    0.89919E-03
Hessian eigenvector    17 has the largest overlap with TSRC:  0.25047
           Primitive Internal Coordinates (atoms in internal order)
-------------------------------------------------------------------------------
    index    type      i       j       k       l   value(A,deg)     Max Ovl Vect
-------------------------------------------------------------------------------
       1     bnd       1       5       0       0     1.47262509    -0.00309739
       2     bnd       1       2       0       0     1.35772264    -0.04574783
       3     bnd       2       8       0       0     1.08220673    -0.01096354
       4     bnd       3       9       0       0     1.08434238    -0.00659242
       5     bnd       1       4       0       0     1.09137554    -0.00063607
       6     bnd       5      11       0       0     1.09395596     0.01005204
       7     bnd       3       6       0       0     1.08345581    -0.00884767
       8     bnd       2       7       0       0     1.08556372    -0.01219207
       9     bnd       3      10       0       0     1.08335525    -0.00919047
      10     bnd       5      12       0       0     1.23580281    -0.01160770
      11     bnd       2       3       0       0     2.50374773     0.35424449
      12     bnd       1       3       0       0     3.22080404     0.43131262
      13     bnd       2       6       0       0     2.85642911     0.32000860
      14     bnd       2       9       0       0     2.84441213     0.33656075
      15     bnd       2      10       0       0     2.85586519     0.32526520
      16     bnd       3       7       0       0     2.68454538     0.30917734
      17     bnd       3       8       0       0     2.63164556     0.31890020
      18     ang       5       1       2       0   122.25332737    -0.06273612
      19     ang       5       1       4       0   116.99355596     0.13585136
      20     ang       5       1       3       0   112.63651988    -0.04348943
      21     ang       2       1       4       0   120.74048448    -0.07389180
      22     ang       2       1       3       0    47.14730440    -0.02336396
      23     ang       4       1       3       0   108.10263447    -0.05298242
      24     ang       1       2       8       0   121.32927218    -0.00908236
      25     ang       1       2       7       0   120.34958712    -0.01152627
      26     ang       1       2       3       0   109.42789133     0.07301896
      27     ang       1       2       6       0    97.43049863     0.08409970
      28     ang       1       2       9       0   131.66891474     0.04574153
      29     ang       1       2      10       0    97.60879050     0.08420051
      30     ang       8       2       7       0   116.84237453     0.00415591
      31     ang       8       2       3       0    84.55349194    -0.00044706
      32     ang       8       2       6       0    74.59139138     0.00902234
      33     ang       8       2       9       0    73.40693930     0.01327490
      34     ang       8       2      10       0   106.63353928    -0.02677020
      35     ang       7       2       3       0    87.46513830    -0.00538602
      36     ang       7       2       6       0   109.54607851    -0.03109690
      37     ang       7       2       9       0    76.34226572     0.00859425
      38     ang       7       2      10       0    77.14015125     0.00517148
      39     ang       6       2       9       0    38.13724811    -0.04515890
      40     ang       6       2      10       0    38.00520799    -0.04364333
      41     ang       9       2      10       0    38.14525420    -0.04588375
      42     ang       9       3       6       0   118.44645970    -0.00183101
      43     ang       9       3      10       0   118.47491419    -0.00341705
      44     ang       9       3       2       0    96.83416376     0.00664892
      45     ang       9       3       1       0   120.25860216    -0.04300340
      46     ang       9       3       7       0    84.36520014     0.02245628
      47     ang       9       3       8       0    83.98929619     0.02366463
      48     ang       6       3      10       0   118.27440542     0.00291722
      49     ang       6       3       2       0    97.58949790    -0.00215486
      50     ang       6       3       1       0    85.54791528     0.02393473
      51     ang       6       3       7       0   121.41193026    -0.03187597
      52     ang       6       3       8       0    85.85916814     0.01175748
      53     ang      10       3       2       0    97.55820622     0.00088924
      54     ang      10       3       1       0    85.71813551     0.02634258
      55     ang      10       3       7       0    85.79957455     0.01403447
      56     ang      10       3       8       0   121.71250447    -0.03027105
      57     ang       1       3       7       0    40.90887806    -0.06822787
      58     ang       1       3       8       0    41.19170856    -0.06932389
      59     ang       7       3       8       0    40.63968564    -0.04952013
      60     ang       1       5      11       0   119.64948112    -0.03996532
      61     ang       1       5      12       0   121.70819341     0.02778683
      62     ang      11       5      12       0   118.64231203     0.01217252
      63     ang       3       6       2       0    60.32551396     0.02788167
      64     ang       2       7       3       0    68.70766411     0.03512697
      65     ang       2       8       3       0    71.28114515     0.03163945
      66     ang       3       9       2       0    60.92443024     0.02063031
      67     ang       3      10       2       0    60.35268470     0.02545746
      68     dih       2       1       5      11   179.67012652    -0.03411801
      69     dih       2       1       5      12    -0.37262867    -0.03507594
      70     dih       4       1       5      11     0.95503143     0.01232707
      71     dih       4       1       5      12   180.91227624     0.01136914
      72     dih       3       1       5      11   127.12845592     0.01677636
      73     dih       3       1       5      12   -52.91429927     0.01581843
      74     dih       5       1       2       8   172.41410886    -0.02108734
      75     dih       5       1       2       7     6.72542037     0.05742809
      76     dih       5       1       2       3   267.97286263     0.02179604
      77     dih       5       1       2       6   248.86362731     0.03971776
      78     dih       5       1       2       9   267.81938400     0.02207481
      79     dih       5       1       2      10   -72.78907118     0.00334144
      80     dih       4       1       2       8    -8.91799470    -0.06752084
      81     dih       4       1       2       7   185.39331681     0.01099459
      82     dih       4       1       2       3    86.64075907    -0.02463745
      83     dih       4       1       2       6    67.53152375    -0.00671573
      84     dih       4       1       2       9    86.48728044    -0.02435868
      85     dih       4       1       2      10   105.87882526    -0.04309205
      86     dih       3       1       2       8   264.44124623    -0.04288338
      87     dih       3       1       2       7    98.75255774     0.03563205
      88     dih       3       1       2       6   -19.10923532     0.01792172
      89     dih       3       1       2       9    -0.15347863     0.00027877
      90     dih       3       1       2      10    19.23806620    -0.01845460
      91     dih       1       2       8       3   109.45852343     0.08460968
      92     dih       7       2       8       3   -84.37341772     0.00691903
      93     dih       6       2       8       3    20.07284656    -0.02482226
      94     dih       9       2       8       3   -19.64643734     0.02460659
      95     dih      10       2       8       3    -0.63977676     0.00121542
      96     dih       6       3       9       2   257.51331828    -0.00091859
      97     dih      10       3       9       2   102.45719176     0.00407672
      98     dih       1       3       9       2    -0.13940687     0.00061230
      99     dih       7       3       9       2    20.34563650    -0.02529730
     100     dih       8       3       9       2   -20.51252785     0.02628059
     101     dih       9       3       6       2   102.04709057     0.00603052
     102     dih      10       3       6       2   257.15353138    -0.00053649
     103     dih       1       3       6       2   -20.13772399     0.04240698
     104     dih       7       3       6       2     0.51062568    -0.00142894
     105     dih       8       3       6       2    21.17423838    -0.02804565
     106     dih       1       2       7       3   248.90605568    -0.08038880
     107     dih       8       2       7       3    82.59475185    -0.00372843
     108     dih       6       2       7       3     0.43038735    -0.00110623
     109     dih       9       2       7       3    19.48874565    -0.02387776
     110     dih      10       2       7       3   -19.73509770     0.02453637
     111     dih       9       3      10       2   257.96398203    -0.00740648
     112     dih       6       3      10       2   102.86469998    -0.00123737
     113     dih       1       3      10       2    20.25684612    -0.04274720
     114     dih       7       3      10       2   -20.76933662     0.02679489
     115     dih       8       3      10       2    -0.78445579     0.00171213
     116     dih       1       2       3       9   180.30289514    -0.00037195
     117     dih       1       2       3       6   -59.70010751    -0.00124535
     118     dih       1       2       3      10    60.28328078     0.00148182
     119     dih       1       2       3       7   121.37868350    -0.00256871
     120     dih       1       2       3       8   238.65296982     0.00237918
     121     dih       8       2       3       9   -58.35007468    -0.00275113
     122     dih       8       2       3       6    61.64692267    -0.00362454
     123     dih       8       2       3      10   181.63031095    -0.00089736
     124     dih       8       2       3       1   121.34703018    -0.00237918
     125     dih       8       2       3       7   242.72571368    -0.00494790
     126     dih       7       2       3       9    58.92421164     0.00219676
     127     dih       7       2       3       6   178.92120899     0.00132336
     128     dih       7       2       3      10   -61.09540272     0.00405054
     129     dih       7       2       3       1   238.62131650     0.00256871
     130     dih       7       2       3       8   117.27428632     0.00494790
     131     dih       6       2       3       9   240.00300265     0.00087340
     132     dih       6       2       3      10   119.98338829     0.00272718
     133     dih       6       2       3       1    59.70010751     0.00124535
     134     dih       6       2       3       7   181.07879101    -0.00132336
     135     dih       6       2       3       8   -61.64692267     0.00362454
     136     dih       9       2       3       6   119.99699735    -0.00087340
     137     dih       9       2       3      10   239.98038564     0.00185378
     138     dih       9       2       3       1   179.69710486     0.00037195
     139     dih       9       2       3       7   -58.92421164    -0.00219676
     140     dih       9       2       3       8    58.35007468     0.00275113
     141     dih      10       2       3       9   120.01961436    -0.00185378
     142     dih      10       2       3       6   240.01661171    -0.00272718
     143     dih      10       2       3       1   -60.28328078    -0.00148182
     144     dih      10       2       3       7    61.09540272    -0.00405054
     145     dih      10       2       3       8   178.36968905     0.00089736
     146     dih       5       1       3       9   114.04154054    -0.05135600
     147     dih       5       1       3       6   234.55336860    -0.04925115
     148     dih       5       1       3      10    -6.61169335    -0.05284922
     149     dih       5       1       3       2   113.69336108    -0.05072426
     150     dih       5       1       3       7    81.91248780    -0.05866522
     151     dih       5       1       3       8   145.75718426    -0.04383410
     152     dih       2       1       3       9     0.34817946    -0.00063174
     153     dih       2       1       3       6   120.86000752     0.00147311
     154     dih       2       1       3      10   239.69494557    -0.00212496
     155     dih       2       1       3       7   -31.78087328    -0.00794096
     156     dih       2       1       3       8    32.06382318     0.00689015
     157     dih       4       1       3       9   244.86300974     0.05248006
     158     dih       4       1       3       6     5.37483781     0.05458491
     159     dih       4       1       3      10   124.20977586     0.05098684
     160     dih       4       1       3       2   244.51483029     0.05311180
     161     dih       4       1       3       7   212.73395701     0.04517084
     162     dih       4       1       3       8   -83.42134654     0.06000195
     163     dih       1       2       6       3   124.80183680     0.02024222
     164     dih       8       2       6       3   245.33021781    -0.00980765
     165     dih       7       2       6       3    -1.14364865     0.00163466
     166     dih       9       2       6       3   -32.06115313     0.00544604
     167     dih      10       2       6       3    31.93779660    -0.00663986
     168     dih       1       2       9       3     0.38239589    -0.00033997
     169     dih       8       2       9       3   117.84070606     0.00437075
     170     dih       7       2       9       3   241.70828598    -0.00189609
     171     dih       6       2       9       3    31.82175178    -0.00334680
     172     dih      10       2       9       3   -31.81362229     0.00337693
     173     dih       1       2      10       3   235.72168054    -0.02005716
     174     dih       8       2      10       3     1.69384662    -0.00118364
     175     dih       7       2      10       3   116.22443673     0.00746065
     176     dih       6       2      10       3   -31.93146700     0.00567913
     177     dih       9       2      10       3    32.04658966    -0.00451063
     178     dih       9       3       7       2   238.70772320    -0.00280891
     179     dih       6       3       7       2    -1.25299931     0.00197226
     180     dih      10       3       7       2   119.52309601     0.00597993
     181     dih       1       3       7       2    31.21717925    -0.02077998
     182     dih       8       3       7       2   -33.96356074     0.00972202
     183     dih       9       3       8       2   121.79986372     0.00257256
     184     dih       6       3       8       2   240.99903736    -0.00454402
     185     dih      10       3       8       2     1.89988400    -0.00170746
     186     dih       1       3       8       2   -31.03271415     0.02035171
     187     dih       7       3       8       2    33.45673494    -0.00796195
 
----------------------------------------------------------------------
Geometry Convergence after Step   2       (Hartree/Angstrom,Angstrom)
----------------------------------------------------------------------
current energy                               -2.32465711 Hartree
energy change                      -0.00639149     0.00012000    F
constrained gradient max            0.05073079     0.00100000    F
constrained gradient rms            0.01146031     0.00066667    F
gradient max                        0.05073079
gradient rms                        0.01146031
cart. step max                      0.05535988     0.01000000    F
cart. step rms                      0.02116961     0.00666667    F
 
 
--------
Geometry
--------
Formula: C4H7O
Atoms
  Index Symbol   x (angstrom)   y (angstrom)   z (angstrom)
      1      C     0.82353900    -0.21107155     0.86421072
      2      C     0.82231701    -0.25995486    -0.49401701
      3      C    -1.53167385    -0.47299347    -1.31281219
      4      H     0.85944563    -1.13430734     1.44451353
      5      C     0.73674090     1.04802925     1.61956824
      6      H    -1.77131061    -1.41088275    -0.82545616
      7      H     0.88984729     0.65854140    -1.06816920
      8      H     0.98407809    -1.19368043    -1.02275918
      9      H    -1.29991712    -0.48759756    -2.37225454
     10      H    -1.91558450     0.44386839    -0.88123959
     11      H     0.76541961     0.93752459     2.72245072
     12      O     0.63291404     2.16541329     1.13004376
 
Total System Charge             0.00000
Bonding info available!
 
 *** GOStep3 ***

 Energy gradients wrt nuclear displacements
 ==========================================

     Atom      Cartesian (a.u./angstrom)
                 X         Y         Z
 ----------------------------------------
     1 C     0.002183  0.000536 -0.000317
     2 C     0.001533  0.001918  0.003136
     3 C    -0.002375 -0.000262 -0.002017
     4 H     0.000003 -0.001430 -0.001108
     5 C     0.000296 -0.001732  0.004234
     6 H    -0.000111  0.000691 -0.000090
     7 H     0.000958 -0.000046  0.000268
     8 H    -0.001114  0.000764 -0.001104
     9 H    -0.000257  0.000699 -0.000498
    10 H    -0.001113  0.000692 -0.000277
    11 H    -0.000956  0.004216 -0.007143
    12 O     0.000952 -0.006046  0.004915
 ----------------------------------------
 Mulliken charges used for AMS results%charges...
Hessian eigenvector     1(     0.004) has overlap with TSRC:    0.47779E-02
Hessian eigenvector     2(     0.008) has overlap with TSRC:    0.10389E-01
Hessian eigenvector     3(     0.009) has overlap with TSRC:    0.48617E-02
Hessian eigenvector     4(     0.010) has overlap with TSRC:    0.68038E-02
Hessian eigenvector     5(     0.011) has overlap with TSRC:    0.20093E-01
Hessian eigenvector     6(     0.020) has overlap with TSRC:    0.10857E+00
Hessian eigenvector     7(     0.021) has overlap with TSRC:    0.38375E-01
Hessian eigenvector     8(     0.024) has overlap with TSRC:    0.24987E-01
Hessian eigenvector     9(     0.024) has overlap with TSRC:    0.15204E-01
Hessian eigenvector    10(     0.031) has overlap with TSRC:    0.12985E+00
Hessian eigenvector    11(     0.048) has overlap with TSRC:    0.90466E-02
Hessian eigenvector    12(     0.055) has overlap with TSRC:    0.38612E-02
Hessian eigenvector    13(     0.062) has overlap with TSRC:    0.29742E-02
Hessian eigenvector    14(     0.063) has overlap with TSRC:    0.23844E-02
Hessian eigenvector    15(     0.066) has overlap with TSRC:    0.32802E-01
Hessian eigenvector    16(     0.074) has overlap with TSRC:    0.38504E-01
Hessian eigenvector    17(     0.093) has overlap with TSRC:    0.24942E+00
Hessian eigenvector    18(     0.106) has overlap with TSRC:    0.38974E-01
Hessian eigenvector    19(     0.175) has overlap with TSRC:    0.43240E-04
Hessian eigenvector    20(     0.277) has overlap with TSRC:    0.56789E-02
Hessian eigenvector    21(     0.361) has overlap with TSRC:    0.17161E-03
Hessian eigenvector    22(     0.365) has overlap with TSRC:    0.11662E-01
Hessian eigenvector    23(     0.375) has overlap with TSRC:    0.24388E-01
Hessian eigenvector    24(     0.379) has overlap with TSRC:    0.99312E-02
Hessian eigenvector    25(     0.381) has overlap with TSRC:    0.29795E-01
Hessian eigenvector    26(     0.421) has overlap with TSRC:    0.50391E-01
Hessian eigenvector    27(     0.494) has overlap with TSRC:    0.15522E-02
Hessian eigenvector    28(     0.501) has overlap with TSRC:    0.12251E-03
Hessian eigenvector    29(     0.531) has overlap with TSRC:    0.95154E-04
Hessian eigenvector    30(     0.667) has overlap with TSRC:    0.18009E-02
Hessian eigenvector    17 has the largest overlap with TSRC:  0.24942
           Primitive Internal Coordinates (atoms in internal order)
-------------------------------------------------------------------------------
    index    type      i       j       k       l   value(A,deg)     Max Ovl Vect
-------------------------------------------------------------------------------
       1     bnd       1       5       0       0     1.47086157    -0.00225360
       2     bnd       1       2       0       0     1.35910766    -0.04603212
       3     bnd       2       8       0       0     1.08516284    -0.01213759
       4     bnd       3       9       0       0     1.08459326    -0.00674468
       5     bnd       1       4       0       0     1.09105681    -0.00032900
       6     bnd       5      11       0       0     1.10877569     0.00293328
       7     bnd       3       6       0       0     1.08377948    -0.00906159
       8     bnd       2       7       0       0     1.08528635    -0.01292521
       9     bnd       3      10       0       0     1.08364107    -0.00922778
      10     bnd       5      12       0       0     1.22432076    -0.00870575
      11     bnd       2       3       0       0     2.50141639     0.35288812
      12     bnd       1       3       0       0     3.21792782     0.42616038
      13     bnd       2       6       0       0     2.85681486     0.32404431
      14     bnd       2       9       0       0     2.84314528     0.33742173
      15     bnd       2      10       0       0     2.85331617     0.32040206
      16     bnd       3       7       0       0     2.68402422     0.31770911
      17     bnd       3       8       0       0     2.63296948     0.32130118
      18     ang       5       1       2       0   122.95301507    -0.04391449
      19     ang       5       1       4       0   116.94657656     0.13030117
      20     ang       5       1       3       0   111.95729246    -0.03916510
      21     ang       2       1       4       0   120.07429566    -0.08720683
      22     ang       2       1       3       0    47.18158941    -0.02201194
      23     ang       4       1       3       0   108.36318389    -0.05739831
      24     ang       1       2       8       0   121.18112881    -0.00864504
      25     ang       1       2       7       0   119.88064012    -0.02137400
      26     ang       1       2       3       0   109.33130695     0.07104594
      27     ang       1       2       6       0    97.54173482     0.08522703
      28     ang       1       2       9       0   131.58595102     0.04363751
      29     ang       1       2      10       0    97.33165366     0.07974321
      30     ang       8       2       7       0   117.46238778     0.01283420
      31     ang       8       2       3       0    84.69295700     0.00162877
      32     ang       8       2       6       0    74.46393065     0.00853040
      33     ang       8       2       9       0    73.76905841     0.01749715
      34     ang       8       2      10       0   106.80753774    -0.02415077
      35     ang       7       2       3       0    87.56218446    -0.00014287
      36     ang       7       2       6       0   109.63766682    -0.02636257
      37     ang       7       2       9       0    76.39179714     0.01404660
      38     ang       7       2      10       0    77.24115196     0.00943828
      39     ang       6       2       9       0    38.13367521    -0.04596163
      40     ang       6       2      10       0    38.04564249    -0.04342959
      41     ang       9       2      10       0    38.17298983    -0.04563205
      42     ang       9       3       6       0   118.34952259    -0.00388362
      43     ang       9       3      10       0   118.43238661    -0.00331926
      44     ang       9       3       2       0    96.88065724     0.00787192
      45     ang       9       3       1       0   120.36743618    -0.04113573
      46     ang       9       3       7       0    84.37186616     0.02446956
      47     ang       9       3       8       0    84.24665556     0.02729052
      48     ang       6       3      10       0   118.34454919     0.00390330
      49     ang       6       3       2       0    97.73476906     0.00087958
      50     ang       6       3       1       0    85.87386250     0.02945212
      51     ang       6       3       7       0   121.55593500    -0.02963790
      52     ang       6       3       8       0    85.69072062     0.01199735
      53     ang      10       3       2       0    97.52593427    -0.00112803
      54     ang      10       3       1       0    85.46859627     0.02155942
      55     ang      10       3       7       0    85.79249492     0.01205922
      56     ang      10       3       8       0   121.75059202    -0.03257940
      57     ang       1       3       7       0    40.86086160    -0.07023806
      58     ang       1       3       8       0    41.27356114    -0.06891625
      59     ang       7       3       8       0    40.82760718    -0.04872201
      60     ang       1       5      11       0   115.08591150    -0.00277154
      61     ang       1       5      12       0   125.51608535     0.00288583
      62     ang      11       5      12       0   119.39715767    -0.00009962
      63     ang       3       6       2       0    60.18436753     0.02535687
      64     ang       2       7       3       0    68.61031026     0.03068131
      65     ang       2       8       3       0    71.07849978     0.02994857
      66     ang       3       9       2       0    60.86436039     0.01956309
      67     ang       3      10       2       0    60.35630460     0.02700736
      68     dih       2       1       5      11   180.96876354    -0.01921758
      69     dih       2       1       5      12     1.30714774    -0.01668195
      70     dih       4       1       5      11     2.82930941     0.02995961
      71     dih       4       1       5      12   183.16769361     0.03249523
      72     dih       3       1       5      11   128.70269550     0.02720692
      73     dih       3       1       5      12   -50.95892031     0.02974254
      74     dih       5       1       2       8   174.00024236    -0.01277166
      75     dih       5       1       2       7     8.21114280     0.06806664
      76     dih       5       1       2       3   269.60862726     0.03159447
      77     dih       5       1       2       6   250.36828779     0.04812261
      78     dih       5       1       2       9   269.75285635     0.03571099
      79     dih       5       1       2      10   -71.25132034     0.01184446
      80     dih       4       1       2       8    -7.91633791    -0.06196218
      81     dih       4       1       2       7   186.29456252     0.01887612
      82     dih       4       1       2       3    87.69204698    -0.01759604
      83     dih       4       1       2       6    68.45170752    -0.00106791
      84     dih       4       1       2       9    87.83627607    -0.01347952
      85     dih       4       1       2      10   106.83209938    -0.03734605
      86     dih       3       1       2       8   264.39161510    -0.04436613
      87     dih       3       1       2       7    98.60251554     0.03647217
      88     dih       3       1       2       6   -19.24033947     0.01652814
      89     dih       3       1       2       9     0.14422909     0.00411652
      90     dih       3       1       2      10    19.14005240    -0.01975000
      91     dih       1       2       8       3   109.41319153     0.08360879
      92     dih       7       2       8       3   -84.46683653     0.00120716
      93     dih       6       2       8       3    19.92946119    -0.02675603
      94     dih       9       2       8       3   -19.77390387     0.02374522
      95     dih      10       2       8       3    -0.37940653     0.00374146
      96     dih       6       3       9       2   257.34105087    -0.00466254
      97     dih      10       3       9       2   102.43637064     0.00246575
      98     dih       1       3       9       2     0.13157309     0.00408778
      99     dih       7       3       9       2    20.32179809    -0.02574780
     100     dih       8       3       9       2   -20.71692235     0.02522990
     101     dih       9       3       6       2   102.16118396     0.00870821
     102     dih      10       3       6       2   257.08808513    -0.00020716
     103     dih       1       3       6       2   -20.31890894     0.04015866
     104     dih       7       3       6       2     0.58950473    -0.00148682
     105     dih       8       3       6       2    21.07147831    -0.02999733
     106     dih       1       2       7       3   249.04305678    -0.07953840
     107     dih       8       2       7       3    82.73488561     0.00032353
     108     dih       6       2       7       3     0.49629494    -0.00114828
     109     dih       9       2       7       3    19.47346670    -0.02420535
     110     dih      10       2       7       3   -19.76526888     0.02474470
     111     dih       9       3      10       2   257.93929855    -0.00767991
     112     dih       6       3      10       2   103.03336173     0.00137793
     113     dih       1       3      10       2    20.20045500    -0.04366367
     114     dih       7       3      10       2   -20.78362642     0.02771160
     115     dih       8       3      10       2    -0.46553806     0.00486677
     116     dih       1       2       3       9   179.71515776    -0.00792811
     117     dih       1       2       3       6   -60.34599998    -0.00999551
     118     dih       1       2       3      10    59.73602058    -0.00601406
     119     dih       1       2       3       7   120.89752561    -0.01143244
     120     dih       1       2       3       8   238.77133986     0.00138036
     121     dih       8       2       3       9   -59.05618210    -0.00930847
     122     dih       8       2       3       6    60.88266016    -0.01137588
     123     dih       8       2       3      10   180.96468071    -0.00739442
     124     dih       8       2       3       1   121.22866014    -0.00138036
     125     dih       8       2       3       7   242.12618575    -0.01281280
     126     dih       7       2       3       9    58.81763215     0.00350433
     127     dih       7       2       3       6   178.75647441     0.00143692
     128     dih       7       2       3      10   -61.16150504     0.00541838
     129     dih       7       2       3       1   239.10247439     0.01143244
     130     dih       7       2       3       8   117.87381425     0.01281280
     131     dih       6       2       3       9   240.06115774     0.00206741
     132     dih       6       2       3      10   120.08202056     0.00398145
     133     dih       6       2       3       1    60.34599998     0.00999551
     134     dih       6       2       3       7   181.24352559    -0.00143692
     135     dih       6       2       3       8   -60.88266016     0.01137588
     136     dih       9       2       3       6   119.93884226    -0.00206741
     137     dih       9       2       3      10   240.02086281     0.00191405
     138     dih       9       2       3       1   180.28484224     0.00792811
     139     dih       9       2       3       7   -58.81763215    -0.00350433
     140     dih       9       2       3       8    59.05618210     0.00930847
     141     dih      10       2       3       9   119.97913719    -0.00191405
     142     dih      10       2       3       6   239.91797944    -0.00398145
     143     dih      10       2       3       1   -59.73602058     0.00601406
     144     dih      10       2       3       7    61.16150504    -0.00541838
     145     dih      10       2       3       8   179.03531929     0.00739442
     146     dih       5       1       3       9   114.88618276    -0.03786332
     147     dih       5       1       3       6   235.51796653    -0.03424086
     148     dih       5       1       3      10    -5.58635825    -0.03692244
     149     dih       5       1       3       2   115.21394211    -0.02855134
     150     dih       5       1       3       7    83.21726892    -0.04016852
     151     dih       5       1       3       8   147.35250905    -0.02286986
     152     dih       2       1       3       9    -0.32775935    -0.00931198
     153     dih       2       1       3       6   120.30402442    -0.00568952
     154     dih       2       1       3      10   239.19969964    -0.00837110
     155     dih       2       1       3       7   -31.99667319    -0.01161718
     156     dih       2       1       3       8    32.13856694     0.00568147
     157     dih       4       1       3       9   245.32547936     0.05826476
     158     dih       4       1       3       6     5.95726313     0.06188722
     159     dih       4       1       3      10   124.85293835     0.05920565
     160     dih       4       1       3       2   245.65323871     0.06757675
     161     dih       4       1       3       7   213.65656552     0.05595956
     162     dih       4       1       3       8   -82.20819435     0.07325822
     163     dih       1       2       6       3   124.18895380     0.01167327
     164     dih       8       2       6       3   244.53779425    -0.01819156
     165     dih       7       2       6       3    -1.31913777     0.00171548
     166     dih       9       2       6       3   -32.10583299     0.00461292
     167     dih      10       2       6       3    31.91400918    -0.00654330
     168     dih       1       2       9       3    -0.35935510    -0.00988898
     169     dih       8       2       9       3   117.19627059    -0.00127681
     170     dih       7       2       9       3   241.57458715    -0.00246360
     171     dih       6       2       9       3    31.83908138    -0.00306393
     172     dih      10       2       9       3   -31.85001381     0.00283995
     173     dih       1       2      10       3   235.25885953    -0.02618616
     174     dih       8       2      10       3     1.00341352    -0.00790145
     175     dih       7       2      10       3   116.18848104     0.01050198
     176     dih       6       2      10       3   -31.85747817     0.00708345
     177     dih       9       2      10       3    32.05990157    -0.00492772
     178     dih       9       3       7       2   238.59181062    -0.00208191
     179     dih       6       3       7       2    -1.44607771     0.00208235
     180     dih      10       3       7       2   119.45016344     0.00658236
     181     dih       1       3       7       2    31.51571807    -0.01523460
     182     dih       8       3       7       2   -33.70168839     0.01364361
     183     dih       9       3       8       2   121.15112898    -0.00309696
     184     dih       6       3       8       2   240.24213970    -0.01285095
     185     dih      10       3       8       2     1.12470217    -0.00931878
     186     dih       1       3       8       2   -31.10629553     0.02013697
     187     dih       7       3       8       2    33.10842578    -0.01245311
 
----------------------------------------------------------------------
Geometry Convergence after Step   3       (Hartree/Angstrom,Angstrom)
----------------------------------------------------------------------
current energy                               -2.32601963 Hartree
energy change                      -0.00136253     0.00012000    F
constrained gradient max            0.00749767     0.00100000    F
constrained gradient rms            0.00227924     0.00066667    F
gradient max                        0.00749767
gradient rms                        0.00227924
[...]
     5     C       0.014248   0.011562  -0.174333
     6     H       0.062980  -0.011334   0.026042
     7     H       0.108727   0.286741   0.478123
     8     H      -0.354911   0.177422  -0.450010
     9     H       0.037345  -0.002614   0.006681
    10     H       0.099263  -0.001187   0.040876
    11     H      -0.157388  -0.046721  -0.168686
    12     O      -0.026842   0.145183   0.056278
 
 Mode:    17      Frequency (cm-1):      748.6097     Intensity (km/mol):       11.5846
 Index  Atom      ---- Displacements (x/y/z) ----
     1     C      -0.014016   0.017673  -0.016471
     2     C      -0.008185   0.004802   0.005795
     3     C      -0.092639  -0.000692  -0.030984
     4     H       0.017764   0.009985  -0.028940
     5     C      -0.002234  -0.005739   0.002059
     6     H       0.519727  -0.054473   0.186073
     7     H      -0.128763  -0.028040  -0.051174
     8     H      -0.128397  -0.024864   0.029069
     9     H       0.540379   0.031756   0.128634
    10     H       0.526479   0.045547   0.231184
    11     H       0.006270  -0.014364   0.001125
    12     O       0.002553  -0.009866  -0.001540
 
 Mode:    18      Frequency (cm-1):      916.4014     Intensity (km/mol):       63.3077
 Index  Atom      ---- Displacements (x/y/z) ----
     1     C       0.029499  -0.156558  -0.024628
     2     C      -0.014206  -0.111341  -0.160184
     3     C      -0.022227   0.001135  -0.005701
     4     H      -0.167880  -0.308417  -0.198245
     5     C      -0.008558   0.188857   0.282453
     6     H       0.058422  -0.005253   0.024830
     7     H       0.027352   0.063155   0.071639
     8     H       0.261088   0.084072  -0.493384
     9     H       0.064659   0.005171   0.016054
    10     H       0.041039   0.006642   0.019750
    11     H       0.001514   0.476395   0.294520
    12     O      -0.006411   0.038175  -0.052290
 
 Mode:    19      Frequency (cm-1):      941.4099     Intensity (km/mol):        7.7234
 Index  Atom      ---- Displacements (x/y/z) ----
     1     C      -0.057937  -0.029241  -0.020232
     2     C       0.125545   0.007416   0.011292
     3     C       0.048562   0.001278   0.015256
     4     H       0.183954  -0.071602  -0.088574
     5     C      -0.016794   0.024607   0.030900
     6     H      -0.060566   0.010621  -0.025940
     7     H      -0.550398  -0.038347  -0.123858
     8     H      -0.753820  -0.074940  -0.103161
     9     H      -0.059528  -0.005715  -0.012603
    10     H      -0.068828  -0.012198  -0.031146
    11     H       0.068133   0.066209   0.028255
    12     O       0.003641   0.004892  -0.005425
 
 Mode:    20      Frequency (cm-1):      972.7508     Intensity (km/mol):       15.0889
 Index  Atom      ---- Displacements (x/y/z) ----
     1     C       0.028870   0.046096  -0.011107
     2     C       0.021677  -0.025409   0.012214
     3     C       0.011724   0.005520   0.002974
     4     H      -0.661126   0.073426   0.053453
     5     C       0.069707  -0.002488  -0.007130
     6     H       0.003107   0.006160  -0.004335
     7     H      -0.648180   0.018404   0.000638
     8     H       0.259326   0.041941  -0.045598
     9     H      -0.018638   0.001918  -0.005503
    10     H      -0.024192   0.002844  -0.011575
    11     H      -0.216054  -0.070643   0.004790
    12     O      -0.016741  -0.022461   0.002799
 
 Mode:    21      Frequency (cm-1):      998.7927     Intensity (km/mol):        5.6182
 Index  Atom      ---- Displacements (x/y/z) ----
     1     C      -0.125839  -0.001620  -0.007224
     2     C       0.010483  -0.015911  -0.008257
     3     C      -0.002773  -0.001097   0.000036
     4     H       0.423719   0.052480   0.045013
     5     C       0.205432   0.026517   0.007182
     6     H      -0.000237  -0.000839   0.003082
     7     H       0.108829   0.040868   0.079264
     8     H       0.013859   0.019830  -0.078781
     9     H       0.005133   0.001082   0.002598
    10     H       0.003574  -0.001341   0.003573
    11     H      -0.848042  -0.072517   0.054928
    12     O      -0.047027  -0.008413  -0.000711
 
 Mode:    22      Frequency (cm-1):     1052.6674     Intensity (km/mol):        2.0522
 Index  Atom      ---- Displacements (x/y/z) ----
     1     C       0.010850  -0.135982   0.022642
     2     C      -0.017554   0.108007   0.027474
     3     C       0.001902   0.001116   0.001606
     4     H      -0.092375  -0.443603  -0.399166
     5     C       0.038690   0.006940  -0.030163
     6     H       0.000381  -0.000018  -0.008289
     7     H      -0.080939  -0.215819  -0.414583
     8     H       0.151164  -0.122137   0.545055
     9     H       0.001359  -0.002894   0.000081
    10     H       0.000591   0.002900  -0.000669
    11     H      -0.150147   0.121699  -0.017790
    12     O      -0.014714   0.056521   0.002436
 
 Mode:    23      Frequency (cm-1):     1267.5363     Intensity (km/mol):        8.8799
 Index  Atom      ---- Displacements (x/y/z) ----
     1     C       0.004401   0.080796  -0.093828
     2     C      -0.012111  -0.072571   0.115189
     3     C       0.008218   0.000795   0.000840
     4     H       0.036561  -0.357342  -0.716822
     5     C      -0.001824   0.006136   0.009272
     6     H      -0.009867   0.005302   0.012610
     7     H       0.012417   0.195212   0.502393
     8     H       0.003271  -0.025358   0.058929
     9     H      -0.016329   0.001686  -0.003799
    10     H      -0.011217  -0.009772   0.002378
    11     H       0.021355  -0.162580  -0.011253
    12     O      -0.001294   0.010862  -0.013811
 
 Mode:    24      Frequency (cm-1):     1378.7925     Intensity (km/mol):        3.6323
 Index  Atom      ---- Displacements (x/y/z) ----
     1     C       0.000412  -0.000361  -0.001638
     2     C      -0.000163   0.001122  -0.000051
     3     C       0.025041  -0.050834  -0.071139
     4     H      -0.002714   0.004065   0.004347
     5     C      -0.000020  -0.000455  -0.004439
     6     H      -0.212935   0.137627   0.706545
     7     H      -0.003525  -0.000591  -0.002597
     8     H       0.000479  -0.001972   0.007466
     9     H       0.002573   0.613065   0.146730
    10     H      -0.085065  -0.143758  -0.005674
    11     H      -0.004784   0.052137  -0.001601
    12     O       0.000321  -0.003714   0.004082
 
 Mode:    25      Frequency (cm-1):     1383.0161     Intensity (km/mol):        9.6094
 Index  Atom      ---- Displacements (x/y/z) ----
     1     C       0.001469  -0.009851  -0.064059
     2     C       0.000745   0.000591  -0.013070
     3     C       0.011454   0.051400  -0.027695
     4     H      -0.005168   0.109250   0.092612
     5     C      -0.002834  -0.006797  -0.029223
     6     H      -0.100707   0.083431   0.119912
     7     H      -0.030963   0.174193   0.234435
     8     H      -0.018641  -0.133728   0.277816
     9     H       0.089546  -0.322842  -0.117342
    10     H      -0.100163  -0.370056   0.345109
    11     H      -0.052499   0.599764   0.000919
    12     O       0.005646  -0.035338   0.040491
 
 Mode:    26      Frequency (cm-1):     1385.7550     Intensity (km/mol):        5.6586
 Index  Atom      ---- Displacements (x/y/z) ----
     1     C      -0.000841   0.010509  -0.035979
     2     C       0.000379  -0.006806  -0.000640
     3     C      -0.011279  -0.055676   0.040401
     4     H       0.001427   0.045044   0.001817
     5     C      -0.001688  -0.016174  -0.039064
     6     H       0.133644  -0.108481  -0.198282
     7     H      -0.012779   0.087823   0.134055
     8     H      -0.011888  -0.055533   0.108919
     9     H      -0.107666   0.328356   0.126431
    10     H       0.122675   0.444721  -0.403256
    11     H      -0.054704   0.602605  -0.011130
    12     O       0.005620  -0.033592   0.041683
 
 Mode:    27      Frequency (cm-1):     1397.6777     Intensity (km/mol):       49.8313
 Index  Atom      ---- Displacements (x/y/z) ----
     1     C      -0.009014   0.088177   0.105845
     2     C      -0.001328  -0.031542   0.027683
     3     C      -0.000988   0.015476  -0.009643
     4     H       0.015984  -0.219527  -0.329646
     5     C       0.003061  -0.047768  -0.072080
     6     H      -0.024760   0.022622   0.029703
     7     H       0.059398  -0.273506  -0.320331
     8     H       0.041636   0.252897  -0.572273
     9     H       0.029064  -0.100379  -0.036874
    10     H      -0.027871  -0.108093   0.102041
    11     H      -0.049932   0.442175  -0.057229
    12     O       0.003462  -0.019284   0.035775
 
 Mode:    28      Frequency (cm-1):     1538.1216     Intensity (km/mol):      133.6590
 Index  Atom      ---- Displacements (x/y/z) ----
     1     C      -0.011594   0.101237   0.288040
     2     C       0.044574  -0.046882  -0.280598
     3     C      -0.017567  -0.002521  -0.006625
     4     H       0.003680  -0.282366  -0.208144
     5     C       0.017532  -0.154982   0.000875
     6     H       0.013618  -0.004742   0.009015
     7     H      -0.151377   0.467662   0.387417
     8     H      -0.100326  -0.386502   0.337905
     9     H       0.008511   0.017170   0.005958
    10     H       0.009196   0.010930  -0.005696
    11     H      -0.000338  -0.016790  -0.011147
    12     O      -0.011042   0.089649  -0.033738
 
 Mode:    29      Frequency (cm-1):     1684.1300     Intensity (km/mol):      129.1001
 Index  Atom      ---- Displacements (x/y/z) ----
     1     C       0.002012   0.001725  -0.174484
     2     C      -0.007010   0.007902   0.135862
     3     C       0.003071   0.000846  -0.001056
     4     H      -0.026852   0.311852   0.224370
     5     C       0.055981  -0.495043   0.232882
     6     H      -0.010394   0.002969   0.007203
     7     H       0.024437  -0.195548  -0.105926
     8     H       0.021811   0.180866  -0.164071
     9     H      -0.008287  -0.001393  -0.004808
    10     H      -0.016668  -0.011424   0.003351
    11     H      -0.021248   0.459349   0.227405
    12     O      -0.038209   0.316496  -0.156764
 
 Mode:    30      Frequency (cm-1):     2814.1769     Intensity (km/mol):      178.9254
 Index  Atom      ---- Displacements (x/y/z) ----
     1     C       0.000061   0.001230  -0.002215
     2     C      -0.000004   0.000211   0.000049
     3     C      -0.000059   0.000033  -0.000070
     4     H       0.000421  -0.028929   0.033293
     5     C       0.003582   0.001348   0.081955
     6     H       0.000052   0.000455   0.000144
     7     H       0.000430   0.003789  -0.006358
     8     H       0.000084  -0.000137   0.002957
     9     H      -0.000096  -0.000303   0.000484
    10     H       0.000021  -0.000767  -0.000364
    11     H      -0.048812   0.038556  -0.993667
    12     O       0.000332  -0.002915   0.000901
 
 Mode:    31      Frequency (cm-1):     3058.1908     Intensity (km/mol):        0.0594
 Index  Atom      ---- Displacements (x/y/z) ----
     1     C       0.000083  -0.000320   0.000147
     2     C      -0.000357   0.000117   0.002165
     3     C      -0.011825  -0.002015  -0.007041
     4     H      -0.000210   0.004388  -0.002954
     5     C       0.000045  -0.000232  -0.000061
     6     H       0.088667   0.570615  -0.107421
     7     H       0.001856   0.019662  -0.013530
     8     H       0.003422  -0.020394  -0.009616
     9     H      -0.129810  -0.176371   0.552250
    10     H       0.179909  -0.370567  -0.362011
    11     H       0.000010   0.000166   0.000864
    12     O      -0.000021   0.000106  -0.000035
 
 Mode:    32      Frequency (cm-1):     3096.2006     Intensity (km/mol):       13.5543
 Index  Atom      ---- Displacements (x/y/z) ----
     1     C       0.001985  -0.062511   0.044645
     2     C      -0.005224   0.009773   0.021860
     3     C       0.000323  -0.000179  -0.000224
     4     H      -0.022586   0.734276  -0.528573
     5     C       0.000116   0.001024   0.004719
     6     H      -0.001161  -0.010093   0.002130
     7     H       0.014063   0.190102  -0.132105
     8     H       0.047581  -0.309811  -0.144021
     9     H       0.002194   0.003024  -0.009039
    10     H      -0.004178   0.008742   0.008763
    11     H      -0.001324  -0.002426  -0.035382
    12     O      -0.000079   0.000256  -0.000451
 
 Mode:    33      Frequency (cm-1):     3109.5120     Intensity (km/mol):        4.6404
 Index  Atom      ---- Displacements (x/y/z) ----
     1     C       0.000779  -0.026870   0.025600
     2     C       0.011653  -0.003593  -0.061010
     3     C      -0.001186   0.000133   0.000220
     4     H      -0.010038   0.318006  -0.230006
     5     C      -0.000130   0.002148   0.001960
     6     H       0.002307   0.016372  -0.002696
     7     H      -0.040105  -0.540241   0.377928
     8     H      -0.088537   0.569147   0.266876
     9     H      -0.002917  -0.004343   0.012828
    10     H       0.006926  -0.014203  -0.013797
    11     H      -0.000461  -0.002958  -0.019961
    12     O       0.000030  -0.000392   0.000283
 
 Mode:    34      Frequency (cm-1):     3203.6988     Intensity (km/mol):        0.8263
 Index  Atom      ---- Displacements (x/y/z) ----
     1     C       0.000193  -0.006519   0.004866
     2     C       0.004253  -0.098835   0.009230
     3     C       0.001283   0.005467  -0.003887
     4     H      -0.002311   0.065484  -0.048953
     5     C       0.000013   0.000006   0.000250
     6     H      -0.007733  -0.048642   0.008258
     7     H       0.044957   0.571699  -0.421309
     8     H      -0.095656   0.610789   0.300584
     9     H      -0.008315  -0.012091   0.040930
    10     H       0.000756  -0.001078  -0.002935
    11     H       0.000213  -0.000757   0.001881
    12     O      -0.000017   0.000243  -0.000188
 
 Mode:    35      Frequency (cm-1):     3232.4258     Intensity (km/mol):        3.0015
 Index  Atom      ---- Displacements (x/y/z) ----
     1     C      -0.000035   0.000334  -0.000224
     2     C      -0.000295   0.006416  -0.000718
     3     C       0.023637   0.066142  -0.070145
     4     H      -0.000001  -0.004015   0.003159
     5     C       0.000013   0.000068  -0.000024
     6     H      -0.106768  -0.647932   0.106528
     7     H      -0.003915  -0.039856   0.028569
     8     H       0.006196  -0.038163  -0.019140
     9     H      -0.149246  -0.207697   0.686081
    10     H      -0.024035   0.069637   0.041073
    11     H      -0.000129  -0.000062  -0.000030
    12     O       0.000014  -0.000041   0.000029
 
 Mode:    36      Frequency (cm-1):     3243.7867     Intensity (km/mol):        1.5684
 Index  Atom      ---- Displacements (x/y/z) ----
     1     C       0.000079   0.000012  -0.000103
     2     C      -0.000077   0.001068   0.000272
     3     C      -0.022773   0.074327   0.062437
     4     H      -0.000155  -0.000169   0.000159
     5     C       0.000040  -0.000057  -0.000045
     6     H      -0.078792  -0.432557   0.091262
     7     H      -0.000899  -0.002926   0.002140
     8     H       0.002854  -0.011537  -0.005009
     9     H       0.062333   0.108226  -0.290590
    10     H       0.285383  -0.558293  -0.543193
    11     H      -0.000227  -0.000112   0.000199
    12     O       0.000009   0.000013   0.000009

PES point character: Geometry corresponds to a transition state.
                     (Hint: Very small negative frequencies do not count towards being a
                     transition state, as they usually indicate noise on a very flat PES. See
                     the PESPointCharacter%NegativeFrequenciesTolerance keyword documentation.)




 ============================
 Statistical Thermal Analysis  ***  ideal gas assumed  ***
 ============================
  
 Pressure:                  1.000000 atm.
 Temperature:             298.150000 K



 Moments of Inertia [amu*bohr^2] and principal axis
 ==================================================

         238.5837        680.4562        797.6141
 ------------------------------------------------
           0.4664          0.6448          0.6056
           0.5659         -0.7437          0.3560
           0.6799          0.1767         -0.7117


 The rotational contribution to the molecular entropy includes
 a term, dependent on the symmetry number sigma. The results 
 reported below were computed using sigma = 1, determined from
 the point group symmetry of the input geometry (NOSYM). 
 If this is not the correct symmetry, try symmetrizing the molecule before
 running the calculation (note: linear molecules should be aligned along one
 of the Cartesian axes).
 Contributions from frequencies below 20 1/cm are not included in vibrational sums.
 Their contributions, if any, are reported separately.


     Temp                                                        Transl      Rotat     Vibrat     Total
     ----                                                        ------      -----     ------     -----

     298.15   Entropy (cal/mol-K):                               38.699     26.363     17.047     82.109
              Nuclear Internal Energy (kcal/mol):                 0.889      0.889     60.439     62.217
              Constant Volume Heat Capacity (cal/mol-K):          2.981      2.981     17.567     23.528
          (c) Constant Volume Heat Capacity (cal/mol-K):          2.981      2.981     16.074     22.036

       Summary of energy terms
                                                   hartree              eV         kcal/mol           kJ/mol
                                      --------------------     -----------       ----------      -----------
      Energy from Engine:               -2.325791379293655        -63.2880         -1459.46         -6106.36
      Nuclear Internal Energy:           0.099148966228994          2.6980            62.22           260.32
  (c) Nuclear Internal Energy:           0.098374504249165          2.6769            61.73           258.28
      Internal Energy U:                -2.226642413064661        -60.5900         -1397.24         -5846.05
      pV/n = RT:                         0.000944186013486          0.0257             0.59             2.48
      Enthalpy H:                       -2.225698227051175        -60.5643         -1396.65         -5843.57
      -T*S:                             -0.039012748440814         -1.0616           -24.48          -102.43
  (c) -T*S:                             -0.038512669056236         -1.0480           -24.17          -101.11
      Gibbs free energy:                -2.264710975491989        -61.6259         -1421.13         -5946.00
 
 
 
  (c) The properties marked with this symbol have been corrected using 'low vibrational frequency free rotor
      interpolation corrections'. For those terms all positive frequencies are used (also ones below 20 1/cm),
      but the contribution to the partition function of small vibrational frequencies is modified as described
      in the following paper:
      S. Grimme, 'Supramolecular Binding Thermodynamics by Dispersion-Corrected Density Functional Theory'
      (Chem. Eur. J. 2012, 18, 9955-9964)
      Configuration: Dampener Frequency          :   100.000 1/cm
                     Dampener Alpha              :     4.000
                     Averaging Moment of Inertia : 1.000E-44 kg m2

--------------
Atomic charges
--------------
  Index   Atom    Charge
      1      C    0.1905
      2      C    0.4720
      3      C    0.5197
      4      H   -0.2168
      5      C    0.6366
      6      H   -0.1611
      7      H   -0.1669
      8      H   -0.2059
      9      H   -0.1643
     10      H   -0.1361
     11      H   -0.2640
     12      O   -0.5037


Dipole moment vector    (Debye):    -0.31954515   -3.03674083   -0.61203856
              magnitude (Debye):     3.11424071


Final PES point is a transition state. Transition state search successful!


AMS application finished. Exiting.
NORMAL TERMINATION
     Total cpu time:     967.88
  Total system time:      33.19
 Total elapsed time:    1088.67
