

 Parallel Execution: Process Information
 ==============================================================================
 Rank   Node Name                              NodeID   MyNodeRank  NodeMaster
    0   node115                                   0          0          0
    1   node115                                   0          1         -1
    2   node115                                   0          2         -1
    3   node115                                   0          3         -1
 ==============================================================================


May use up to 122928MB of RAM as shared memory on node 0

 *******************************************************************************
 *                                                                             *
 *  --------------------------------                                           *
 *   Amsterdam Modeling Suite (AMS)              2021.102                      *
 *  --------------------------------                                           *
 *                                               r95042 2021-06-07             *
 *                                                                             *
 *                                                                             *
 *                              =================                              *
 *                              |               |                              *
 *                              |     A M S     |                              *
 *                              |               |                              *
 *                              =================                              *
 *                                                                             *
 *                                                                             *
 *   Online information and documentation:  https://www.scm.com/support/       *
 *   E-mail:  support@scm.com   info@scm.com                                   *
 *                                                                             *
 *   Scientific publications using AMS results must be properly referenced     *
 *   See the User Manuals (or the web site) for recommended citations          *
 *   The terms and conditions of the End User License Agreement apply to       *
 *   the use of AMS, https://www.scm.com/license-terms/                        *
 *                                                                             *
 **********************  x86_64_linux_intel / intelmpi  ************************
 
 Licensed to: VU/FEW (+ SARA) / ALGEMEEN / Amsterdam / THE NETHERLANDS
 SCM User ID: u7668
  
 AMS 2021.102  RunTime: Jan22-2022 23:36:43  ShM Nodes: 1  Procs: 4

 AMS jobname: 40.no_catalyst.H_H.TS
 AMS jobid  : 1988995421

 Start   directory: /scistor/tc/yhk800/MasterProject/calculations/no_catalyst_H_H/40.no_catalyst.H_H.TS/
 Results directory: /scistor/tc/yhk800/MasterProject/calculations/no_catalyst_H_H/40.no_catalyst.H_H.TS/
 Scratch directory: /scratch/3982/amstmp_40.no_catalyst.H_H.TS_kid0.1988995421/


 Communication costs MPI_COMM_WORLD:      1.758 usec per message,   0.0028 usec per 8-byte item
 Communication costs for intra-node:      0.885 usec per message,   0.0070 usec per 8-byte item

 RNG seed: 1516892134 2032255962 1709296887 -567975454 -1756219876 905137579 -1818715703 1826665396



                      ************************************************************************
                      *  ADF 2021.102  RunTime: Jan22-2022 23:36:44  ShM Nodes: 1  Procs: 4  *
                      ************************************************************************
  
       *****************************
       *  TRANSITION STATE SEARCH  *
       *****************************

Optimization Method                    Quasi Newton
Optimization Coordinates               Delocalized Coordinates
Optimize lattice                       F
 
 ------------------------------------------------------
 Convergence criteria (Hartree,Angstrom)
 ------------------------------------------------------
 Maximum gradient               0.001000000000
 Maximum rms gradient           0.000666666667
 Maximum step allowed           0.010000000000
 Maximum rms step allowed       0.006666666667
 Maximum energy change allowe   0.000120000000
 Maximum stress energy allowe   0.000500000000
 
Initial model Hessian                  Automatic Hessian
 
------------------------------------
Quasi-Newton Optimizer Parameters
------------------------------------
Hessian Update Method                  Bofill
Maximum number of steps                  250
First GDIIS cycle                          0
Maximum GDIIS vectors                      0
Trust radius (bohr)                        0.200000
Trust radius varies                        F
Constraints converged at all steps         T
Use projector                              T
 
 Rigid motions settings for: old optimizer
 Atomic rotations (x,y,z):     T T T
 Atomic translations (x,y,z):  T T T
 Tolerance:                   1.000000000000000E-006
 
           1  TSRC entries:
    i   type      a1    a2    a3    a4    coef
    1 Distance     2     3               -1.000
 
--------
Geometry
--------
Formula: C4H7O
Atoms
  Index Symbol   x (angstrom)   y (angstrom)   z (angstrom)
      1      C     0.81923298    -0.20832921     0.88020430
      2      C     0.85454985    -0.33748203    -0.46976816
      3      C    -1.55040422    -0.45230028    -1.30891718
      4      H     0.84546728    -1.09271191     1.51824543
      5      C     0.72283957     1.09104985     1.56732892
      6      H    -1.73785168    -1.50347048    -1.12277542
      7      H     0.92923485     0.54536852    -1.09676740
      8      H    -1.33825172    -0.13368742    -2.32319469
      9      H    -1.93097149     0.27802551    -0.60605693
     10      O     0.58777467     2.18109621     1.02459046
     11      H     1.01119767    -1.28962180    -0.93214390
     12      H     0.77828534     1.02192319     2.63365311
 
Total System Charge             0.00000
 
 
----------------
ADF Engine Input
----------------
 
 NumericalQuality VeryGood
 SCF
 Converge 1.0e-6
 Iterations 99
 End
 SYMMETRY NOSYM
 SpinPolarization 1.0
 Unrestricted Yes
 XC
 GGA OLYP
 End
 basis
 core None
 type TZ2P
 End
 

 Title: *** (NO TITLE) ***

 Using automatic Hessian for delocalized coordinates.
 *** GOStep1 ***

 Energy gradients wrt nuclear displacements
 ==========================================

     Atom      Cartesian (a.u./angstrom)
                 X         Y         Z
 ----------------------------------------
     1 C     0.000494 -0.001610  0.000782
     2 C     0.003078 -0.017239 -0.006108
     3 C     0.000409  0.000065  0.000177
     4 H    -0.000132 -0.001222  0.000020
     5 C     0.001936  0.000314  0.048738
     6 H    -0.000463 -0.000438 -0.000185
     7 H     0.000306 -0.000362 -0.000200
     8 H    -0.000093  0.000399 -0.000200
     9 H    -0.000190  0.000069  0.000574
    10 O    -0.000216  0.001579  0.001369
    11 H    -0.002577  0.017561  0.008615
    12 H    -0.002551  0.000884 -0.053582
 ----------------------------------------
 Mulliken charges used for AMS results%charges...
           Primitive Internal Coordinates (atoms in internal order)
-------------------------------------------------------------------------------
    index    type      i       j       k       l   value(A,deg)     TSRC Vect
-------------------------------------------------------------------------------
       1     bnd       1       5       0       0     1.47303017    -0.00000000
       2     bnd       1       2       0       0     1.35659625     0.06520686
       3     bnd       3       9       0       0     1.08269097     0.03255557
       4     bnd       1       4       0       0     1.09083339    -0.00000000
       5     bnd       3       6       0       0     1.08385612    -0.00000000
       6     bnd       2       7       0       0     1.08541743     0.01878227
       7     bnd       3       8       0       0     1.08410410     0.00000000
       8     bnd       5      10       0       0     1.22515657    -0.00000000
       9     bnd       2      11       0       0     1.07000000     0.01987105
      10     bnd       5      12       0       0     1.07000000    -0.00000000
      11     bnd       2       3       0       0     2.54973693    -0.20530353
      12     bnd       1       3       0       0     3.23526741    -0.12262584
      13     bnd       2       9       0       0     2.85596801    -0.10868781
      14     bnd       3       7       0       0     2.68122369    -0.13332985
      15     bnd       3      11       0       0     2.72118902    -0.13971777
      16     ang       5       1       2       0   123.35853837     0.00723810
      17     ang       5       1       4       0   116.35263840    -0.00929631
      18     ang       5       1       3       0   109.52534805     0.01717405
      19     ang       2       1       4       0   120.28119471     0.00192005
      20     ang       2       1       3       0    48.58939502    -0.02985303
      21     ang       4       1       3       0   110.62521849     0.00724286
      22     ang       1       2       7       0   119.94655142    -0.00982175
      23     ang       1       2      11       0   121.23471391    -0.01074039
      24     ang       1       2       3       0   107.89280029     0.01169898
      25     ang       1       2       9       0    90.09044029     0.00079931
      26     ang       7       2      11       0   117.65112534     0.00827849
      27     ang       7       2       3       0    84.91773130     0.02497414
      28     ang       7       2       9       0    82.19794055     0.02083704
      29     ang      11       2       3       0    87.46655196     0.02223819
      30     ang      11       2       9       0   108.29710397     0.03446510
      31     ang       9       3       6       0   118.81113276    -0.00581322
      32     ang       9       3       8       0   118.54875190    -0.00565832
      33     ang       9       3       2       0    95.02057281     0.03656184
      34     ang       9       3       1       0    76.54529275     0.02160089
      35     ang       9       3       7       0    91.30147429     0.02975374
      36     ang       9       3      11       0   116.65154715     0.05108394
      37     ang       6       3       8       0   118.65633659     0.00068265
      38     ang       6       3       2       0    98.64293079    -0.00460190
      39     ang       6       3       1       0    94.79555513    -0.00749216
      40     ang       6       3       7       0   120.47928300     0.01066554
      41     ang       6       3      11       0    80.82784655    -0.01738065
      42     ang       8       3       2       0    96.32095800    -0.00457025
      43     ang       8       3       1       0   117.87631440     0.01209490
      44     ang       8       3       7       0    77.50762325    -0.01678559
      45     ang       8       3      11       0    92.04913884    -0.00716135
      46     ang       1       3       7       0    40.62649850     0.02909100
      47     ang       1       3      11       0    40.53861550     0.02908460
      48     ang       7       3      11       0    39.91120487     0.02816207
      49     ang       1       5      10       0   125.83151866    -0.00000000
      50     ang       1       5      12       0   113.85907131    -0.00000000
      51     ang      10       5      12       0   120.30916702     0.00000000
      52     ang       2       7       3       0    71.30200419    -0.04158305
      53     ang       3       9       2       0    62.79165064    -0.04995481
      54     ang       2      11       3       0    69.40298342    -0.03846260
      55     dih       2       1       5      10     4.41733160    -0.01190005
      56     dih       2       1       5      12   184.23726439    -0.01190005
      57     dih       4       1       5      10   185.42162279    -0.00281451
      58     dih       4       1       5      12     5.24155557    -0.00281451
      59     dih       3       1       5      10   -48.22534752     0.01471456
      60     dih       3       1       5      12   131.59458526     0.01471456
      61     dih       5       1       2       7     7.20465389     0.03535668
      62     dih       5       1       2      11   174.56555838    -0.02919020
      63     dih       5       1       2       3   -87.30149691     0.00166348
      64     dih       5       1       2       9   -73.83455815     0.00989477
      65     dih       4       1       2       7   186.16254143     0.02582474
      66     dih       4       1       2      11    -6.47655407    -0.03872213
      67     dih       4       1       2       3    91.65639064    -0.00786846
      68     dih       4       1       2       9   105.12332939     0.00036283
      69     dih       3       1       2       7    94.50615080     0.03369320
      70     dih       3       1       2      11   261.86705530    -0.03085368
      71     dih       3       1       2       9    13.46693876     0.00823129
      72     dih       6       3       9       2   102.73754482     0.01475250
      73     dih       8       3       9       2   260.00186848    -0.01444609
      74     dih       1       3       9       2    14.65626190     0.00995944
      75     dih       7       3       9       2   -23.52812421    -0.01654449
      76     dih      11       3       9       2     8.58024124     0.00984417
      77     dih       1       2       7       3   252.25753906    -0.02704575
      78     dih      11       2       7       3    84.45114785     0.03749935
      79     dih       9       2       7       3   -22.16431045    -0.01206355
      80     dih       1       2      11       3   109.44118860     0.02598063
      81     dih       7       2      11       3   -82.91814049    -0.03928193
      82     dih       9       2      11       3     7.75948994     0.00624880
      83     dih       1       2       3       9    38.07388351     0.00120121
      84     dih       1       2       3       6   -82.10427147    -0.00023809
      85     dih       1       2       3       8   157.57316429     0.00115622
      86     dih       1       2       3       7   119.86253624    -0.00136189
      87     dih       1       2       3      11   237.91690779     0.00178714
      88     dih       7       2       3       9   -81.78865273     0.00256310
      89     dih       7       2       3       6   158.03319229     0.00112379
      90     dih       7       2       3       8    37.71062805     0.00251811
      91     dih       7       2       3       1   240.13746376     0.00136189
      92     dih       7       2       3      11   118.05437155     0.00314902
      93     dih      11       2       3       9   160.15697572    -0.00058592
      94     dih      11       2       3       6    39.97882074    -0.00202523
      95     dih      11       2       3       8   -80.34374350    -0.00063091
      96     dih      11       2       3       1   122.08309221    -0.00178714
      97     dih      11       2       3       7   241.94562845    -0.00314902
      98     dih       9       2       3       6   239.82184502    -0.00143931
      99     dih       9       2       3       8   119.49928078    -0.00004499
     100     dih       9       2       3       1   -38.07388351    -0.00120121
     101     dih       9       2       3       7    81.78865273    -0.00256310
     102     dih       9       2       3      11   199.84302428     0.00058592
     103     dih       5       1       3       9   -23.10756977    -0.00795065
     104     dih       5       1       3       6   218.39015441    -0.00292431
     105     dih       5       1       3       8    92.31902049    -0.00432051
     106     dih       5       1       3       2   117.72067388    -0.00237245
     107     dih       5       1       3       7    85.23727585    -0.00527897
     108     dih       5       1       3      11   148.52330511     0.00066491
     109     dih       2       1       3       9   219.17175635    -0.00557820
     110     dih       2       1       3       6   100.66948053    -0.00055186
     111     dih       2       1       3       8   -25.40165339    -0.00194806
     112     dih       2       1       3       7   -32.48339803    -0.00290652
     113     dih       2       1       3      11    30.80263123     0.00303736
     114     dih       4       1       3       9   106.43888230    -0.00120464
     115     dih       4       1       3       6   -12.06339352     0.00382169
     116     dih       4       1       3       8   221.86547257     0.00242550
     117     dih       4       1       3       2   247.26712595     0.00437355
     118     dih       4       1       3       7   214.78372793     0.00146704
     119     dih       4       1       3      11   -81.93024282     0.00741092
     120     dih       1       2       9       3   215.93386485    -0.00162523
     121     dih       7       2       9       3    95.69271974     0.01007029
     122     dih      11       2       9       3   -20.92653639    -0.00535500
     123     dih       9       3       7       2    99.52792142     0.01731295
     124     dih       6       3       7       2   -25.41175980    -0.00199093
     125     dih       8       3       7       2   218.51340913     0.00595430
     126     dih       1       3       7       2    32.10459448     0.00538859
     127     dih      11       3       7       2   -32.70548964    -0.00169221
     128     dih       9       3      11       2   -22.23091325    -0.00982981
     129     dih       6       3      11       2   220.04845436     0.00091661
     130     dih       8       3      11       2   101.34347976    -0.00178143
     131     dih       1       3      11       2   -31.34397900    -0.00537744
     132     dih       7       3      11       2    33.68532440     0.00156393
Hessian eigenvector     1(     0.005) has overlap with TSRC:    0.18925E-02
Hessian eigenvector     2(     0.009) has overlap with TSRC:    0.71287E-02
Hessian eigenvector     3(     0.009) has overlap with TSRC:    0.79645E-03
Hessian eigenvector     4(     0.010) has overlap with TSRC:    0.47059E-02
Hessian eigenvector     5(     0.011) has overlap with TSRC:    0.11665E-01
Hessian eigenvector     6(     0.018) has overlap with TSRC:    0.19600E+00
Hessian eigenvector     7(     0.029) has overlap with TSRC:    0.26088E-01
Hessian eigenvector     8(     0.034) has overlap with TSRC:    0.57607E-01
Hessian eigenvector     9(     0.036) has overlap with TSRC:    0.10608E+00
Hessian eigenvector    10(     0.043) has overlap with TSRC:    0.92349E-02
Hessian eigenvector    11(     0.049) has overlap with TSRC:    0.12645E-01
Hessian eigenvector    12(     0.055) has overlap with TSRC:    0.12276E-01
Hessian eigenvector    13(     0.058) has overlap with TSRC:    0.32954E-02
Hessian eigenvector    14(     0.071) has overlap with TSRC:    0.10864E+00
Hessian eigenvector    15(     0.076) has overlap with TSRC:    0.14802E-01
Hessian eigenvector    16(     0.078) has overlap with TSRC:    0.46129E-03
Hessian eigenvector    17(     0.094) has overlap with TSRC:    0.26241E+00
Hessian eigenvector    18(     0.108) has overlap with TSRC:    0.70573E-01
Hessian eigenvector    19(     0.224) has overlap with TSRC:    0.19651E-08
Hessian eigenvector    20(     0.248) has overlap with TSRC:    0.38019E-09
Hessian eigenvector    21(     0.380) has overlap with TSRC:    0.47951E-02
Hessian eigenvector    22(     0.391) has overlap with TSRC:    0.93834E-02
Hessian eigenvector    23(     0.425) has overlap with TSRC:    0.34000E-01
Hessian eigenvector    24(     0.434) has overlap with TSRC:    0.61283E-01
Hessian eigenvector    25(     0.500) has overlap with TSRC:    0.44950E-14
Hessian eigenvector    26(     0.503) has overlap with TSRC:    0.88281E-15
Hessian eigenvector    27(     0.503) has overlap with TSRC:    0.59902E-15
Hessian eigenvector    28(     0.509) has overlap with TSRC:    0.24302E-14
Hessian eigenvector    29(     0.522) has overlap with TSRC:    0.15413E-14
Hessian eigenvector    30(     0.601) has overlap with TSRC:    0.73563E-15
Hessian eigenvector    17 has the largest overlap with TSRC:  0.26241
           Primitive Internal Coordinates (atoms in internal order)
-------------------------------------------------------------------------------
    index    type      i       j       k       l   value(A,deg)     Max Ovl Vect
-------------------------------------------------------------------------------
       1     bnd       1       5       0       0     1.47303017     0.00000000
       2     bnd       1       2       0       0     1.35659625     0.04884132
       3     bnd       3       9       0       0     1.08269097     0.00702801
       4     bnd       1       4       0       0     1.09083339     0.00000000
       5     bnd       3       6       0       0     1.08385612     0.00000000
       6     bnd       2       7       0       0     1.08541743     0.01005341
       7     bnd       3       8       0       0     1.08410410     0.00000000
       8     bnd       5      10       0       0     1.22515657     0.00000000
       9     bnd       2      11       0       0     1.07000000     0.00857017
      10     bnd       5      12       0       0     1.07000000    -0.00000000
      11     bnd       2       3       0       0     2.54973693    -0.37109877
      12     bnd       1       3       0       0     3.23526741    -0.50065463
      13     bnd       2       9       0       0     2.85596801    -0.35865853
      14     bnd       3       7       0       0     2.68122369    -0.30411329
      15     bnd       3      11       0       0     2.72118902    -0.32145439
      16     ang       5       1       2       0   123.35853837     0.11982887
      17     ang       5       1       4       0   116.35263840    -0.21243554
      18     ang       5       1       3       0   109.52534805     0.08716487
      19     ang       2       1       4       0   120.28119471     0.09401645
      20     ang       2       1       3       0    48.58939502     0.04220992
      21     ang       4       1       3       0   110.62521849     0.06955797
      22     ang       1       2       7       0   119.94655142    -0.00215198
      23     ang       1       2      11       0   121.23471391     0.02303170
      24     ang       1       2       3       0   107.89280029    -0.10021852
      25     ang       1       2       9       0    90.09044029    -0.12292553
      26     ang       7       2      11       0   117.65112534    -0.00453648
      27     ang       7       2       3       0    84.91773130     0.01660199
      28     ang       7       2       9       0    82.19794055     0.01409172
      29     ang      11       2       3       0    87.46655196     0.00887481
      30     ang      11       2       9       0   108.29710397     0.03617085
      31     ang       9       3       6       0   118.81113276     0.00194748
      32     ang       9       3       8       0   118.54875190     0.01130539
      33     ang       9       3       2       0    95.02057281    -0.01003110
      34     ang       9       3       1       0    76.54529275    -0.05705521
      35     ang       9       3       7       0    91.30147429    -0.01236859
      36     ang       9       3      11       0   116.65154715     0.01709029
      37     ang       6       3       8       0   118.65633659    -0.00962757
      38     ang       6       3       2       0    98.64293079     0.00184828
      39     ang       6       3       1       0    94.79555513    -0.00531092
      40     ang       6       3       7       0   120.47928300     0.02750598
      41     ang       6       3      11       0    80.82784655    -0.01940622
      42     ang       8       3       2       0    96.32095800    -0.00066570
      43     ang       8       3       1       0   117.87631440     0.05177918
      44     ang       8       3       7       0    77.50762325    -0.02217247
      45     ang       8       3      11       0    92.04913884    -0.01115988
      46     ang       1       3       7       0    40.62649850     0.07259502
      47     ang       1       3      11       0    40.53861550     0.07688219
      48     ang       7       3      11       0    39.91120487     0.04689470
      49     ang       1       5      10       0   125.83151866    -0.00000019
      50     ang       1       5      12       0   113.85907131    -0.00000025
      51     ang      10       5      12       0   120.30916702    -0.00000020
      52     ang       2       7       3       0    71.30200419    -0.04586008
      53     ang       3       9       2       0    62.79165064    -0.01883258
      54     ang       2      11       3       0    69.40298342    -0.03755588
      55     dih       2       1       5      10     4.41733160     0.06338687
      56     dih       2       1       5      12   184.23726439     0.06315099
      57     dih       4       1       5      10   185.42162279    -0.03012259
      58     dih       4       1       5      12     5.24155557    -0.03035848
      59     dih       3       1       5      10   -48.22534752    -0.02904061
      60     dih       3       1       5      12   131.59458526    -0.02927650
      61     dih       5       1       2       7     7.20465389    -0.09248934
      62     dih       5       1       2      11   174.56555838    -0.00584140
      63     dih       5       1       2       3   -87.30149691    -0.05134598
      64     dih       5       1       2       9   -73.83455815    -0.03733022
      65     dih       4       1       2       7   186.16254143     0.00162957
      66     dih       4       1       2      11    -6.47655407     0.08827751
      67     dih       4       1       2       3    91.65639064     0.04277293
      68     dih       4       1       2       9   105.12332939     0.05678869
      69     dih       3       1       2       7    94.50615080    -0.04114336
      70     dih       3       1       2      11   261.86705530     0.04550458
      71     dih       3       1       2       9    13.46693876     0.01401576
      72     dih       6       3       9       2   102.73754482    -0.00329176
      73     dih       8       3       9       2   260.00186848     0.00437197
      74     dih       1       3       9       2    14.65626190     0.03527994
      75     dih       7       3       9       2   -23.52812421    -0.02905159
      76     dih      11       3       9       2     8.58024124     0.01013079
      77     dih       1       2       7       3   252.25753906     0.10664475
      78     dih      11       2       7       3    84.45114785     0.01961494
      79     dih       9       2       7       3   -22.16431045    -0.02829043
      80     dih       1       2      11       3   109.44118860    -0.10898023
      81     dih       7       2      11       3   -82.91814049    -0.02406262
      82     dih       9       2      11       3     7.75948994     0.01010453
      83     dih       1       2       3       9    38.07388351    -0.00943862
      84     dih       1       2       3       6   -82.10427147    -0.00951788
      85     dih       1       2       3       8   157.57316429     0.00020118
      86     dih       1       2       3       7   119.86253624    -0.00523509
      87     dih       1       2       3      11   237.91690779    -0.01253381
      88     dih       7       2       3       9   -81.78865273    -0.00420353
      89     dih       7       2       3       6   158.03319229    -0.00428279
      90     dih       7       2       3       8    37.71062805     0.00543627
      91     dih       7       2       3       1   240.13746376     0.00523509
      92     dih       7       2       3      11   118.05437155    -0.00729871
      93     dih      11       2       3       9   160.15697572     0.00309519
      94     dih      11       2       3       6    39.97882074     0.00301593
      95     dih      11       2       3       8   -80.34374350     0.01273499
      96     dih      11       2       3       1   122.08309221     0.01253381
      97     dih      11       2       3       7   241.94562845     0.00729871
      98     dih       9       2       3       6   239.82184502    -0.00007926
      99     dih       9       2       3       8   119.49928078     0.00963980
     100     dih       9       2       3       1   -38.07388351     0.00943862
     101     dih       9       2       3       7    81.78865273     0.00420353
     102     dih       9       2       3      11   199.84302428    -0.00309519
     103     dih       5       1       3       9   -23.10756977     0.08872188
     104     dih       5       1       3       6   218.39015441     0.08354910
     105     dih       5       1       3       8    92.31902049     0.07388986
     106     dih       5       1       3       2   117.72067388     0.08669927
     107     dih       5       1       3       7    85.23727585     0.09638556
     108     dih       5       1       3      11   148.52330511     0.06845067
     109     dih       2       1       3       9   219.17175635     0.00202261
     110     dih       2       1       3       6   100.66948053    -0.00315017
     111     dih       2       1       3       8   -25.40165339    -0.01280942
     112     dih       2       1       3       7   -32.48339803     0.00968629
     113     dih       2       1       3      11    30.80263123    -0.01824860
     114     dih       4       1       3       9   106.43888230    -0.06946999
     115     dih       4       1       3       6   -12.06339352    -0.07464277
     116     dih       4       1       3       8   221.86547257    -0.08430201
     117     dih       4       1       3       2   247.26712595    -0.07149260
     118     dih       4       1       3       7   214.78372793    -0.06180631
     119     dih       4       1       3      11   -81.93024282    -0.08974120
     120     dih       1       2       9       3   215.93386485     0.01457746
     121     dih       7       2       9       3    95.69271974    -0.00152737
     122     dih      11       2       9       3   -20.92653639    -0.00144392
     123     dih       9       3       7       2    99.52792142    -0.00719017
     124     dih       6       3       7       2   -25.41175980    -0.01260210
     125     dih       8       3       7       2   218.51340913     0.00956349
     126     dih       1       3       7       2    32.10459448     0.03242727
     127     dih      11       3       7       2   -32.70548964    -0.00961222
     128     dih       9       3      11       2   -22.23091325    -0.00036036
     129     dih       6       3      11       2   220.04845436     0.00542103
     130     dih       8       3      11       2   101.34347976     0.01242407
     131     dih       1       3      11       2   -31.34397900    -0.02164930
     132     dih       7       3      11       2    33.68532440     0.00948193
 
----------------------------------------------------------------------
Geometry Convergence after Step   1       (Hartree/Angstrom,Angstrom)
----------------------------------------------------------------------
current energy                               -2.32437389 Hartree
energy change                      -2.32437389     0.00012000    F
constrained gradient max            0.05357861     0.00100000    F
constrained gradient rms            0.01291166     0.00066667    F
gradient max                        0.05357861
gradient rms                        0.01291166
cart. step max                      0.03286687     0.01000000    F
cart. step rms                      0.00698496     0.00666667    F
 
 
--------
Geometry
--------
Formula: C4H7O
Atoms
  Index Symbol   x (angstrom)   y (angstrom)   z (angstrom)
      1      C     0.81667387    -0.20654300     0.87973593
      2      C     0.85080356    -0.33308103    -0.47146364
      3      C    -1.55238585    -0.45512459    -1.31341323
      4      H     0.84506804    -1.09135901     1.51612169
      5      C     0.72633850     1.09091182     1.57033225
      6      H    -1.73710433    -1.50569374    -1.12271052
      7      H     0.92385994     0.55132919    -1.09659191
      8      H    -1.33867272    -0.14095943    -2.32858202
      9      H    -1.93576619     0.27752735    -0.61480103
     10      O     0.59707078     2.17701889     1.01919925
     11      H     1.01017935    -1.29387380    -0.93994820
     12      H     0.78503814     1.02970750     2.66651998
 
Total System Charge             0.00000
 
 *** GOStep2 ***

 Energy gradients wrt nuclear displacements
 ==========================================

     Atom      Cartesian (a.u./angstrom)
                 X         Y         Z
 ----------------------------------------
     1 C    -0.000262  0.000418 -0.001270
     2 C     0.001422 -0.005869 -0.001991
     3 C     0.000151 -0.000025  0.000161
     4 H    -0.000006 -0.000336 -0.000003
     5 C     0.000323 -0.001198  0.019717
     6 H    -0.000347 -0.000179 -0.000263
     7 H     0.000145  0.000054 -0.000032
     8 H    -0.000119  0.000315 -0.000018
     9 H    -0.000080 -0.000071  0.000398
    10 O    -0.000053  0.001652 -0.001810
    11 H    -0.000495  0.004769  0.002253
    12 H    -0.000678  0.000470 -0.017143
 ----------------------------------------
 Mulliken charges used for AMS results%charges...
Hessian eigenvector     1(     0.008) has overlap with TSRC:    0.19270E-03
Hessian eigenvector     2(     0.009) has overlap with TSRC:    0.65740E-02
Hessian eigenvector     3(     0.010) has overlap with TSRC:    0.65375E-03
Hessian eigenvector     4(     0.010) has overlap with TSRC:    0.91740E-02
Hessian eigenvector     5(     0.015) has overlap with TSRC:    0.20302E-01
Hessian eigenvector     6(     0.018) has overlap with TSRC:    0.19601E+00
Hessian eigenvector     7(     0.029) has overlap with TSRC:    0.22909E-01
Hessian eigenvector     8(     0.034) has overlap with TSRC:    0.52502E-01
Hessian eigenvector     9(     0.036) has overlap with TSRC:    0.10641E+00
Hessian eigenvector    10(     0.043) has overlap with TSRC:    0.10619E-01
Hessian eigenvector    11(     0.049) has overlap with TSRC:    0.10543E-01
Hessian eigenvector    12(     0.055) has overlap with TSRC:    0.12512E-01
Hessian eigenvector    13(     0.058) has overlap with TSRC:    0.19573E-02
Hessian eigenvector    14(     0.071) has overlap with TSRC:    0.10103E+00
Hessian eigenvector    15(     0.076) has overlap with TSRC:    0.10628E-01
Hessian eigenvector    16(     0.078) has overlap with TSRC:    0.14549E-02
Hessian eigenvector    17(     0.093) has overlap with TSRC:    0.26848E+00
Hessian eigenvector    18(     0.108) has overlap with TSRC:    0.61774E-01
Hessian eigenvector    19(     0.225) has overlap with TSRC:    0.16793E-02
Hessian eigenvector    20(     0.248) has overlap with TSRC:    0.21679E-02
Hessian eigenvector    21(     0.339) has overlap with TSRC:    0.12056E-01
Hessian eigenvector    22(     0.380) has overlap with TSRC:    0.49648E-02
Hessian eigenvector    23(     0.409) has overlap with TSRC:    0.30606E-01
Hessian eigenvector    24(     0.427) has overlap with TSRC:    0.13487E-01
Hessian eigenvector    25(     0.436) has overlap with TSRC:    0.62573E-01
Hessian eigenvector    26(     0.500) has overlap with TSRC:    0.16441E-04
Hessian eigenvector    27(     0.503) has overlap with TSRC:    0.28887E-05
Hessian eigenvector    28(     0.503) has overlap with TSRC:    0.10791E-05
Hessian eigenvector    29(     0.522) has overlap with TSRC:    0.11235E-03
Hessian eigenvector    30(     0.600) has overlap with TSRC:    0.19022E-03
Hessian eigenvector    17 has the largest overlap with TSRC:  0.26848
           Primitive Internal Coordinates (atoms in internal order)
-------------------------------------------------------------------------------
    index    type      i       j       k       l   value(A,deg)     Max Ovl Vect
-------------------------------------------------------------------------------
       1     bnd       1       5       0       0     1.47257352    -0.00220145
       2     bnd       1       2       0       0     1.35754079    -0.04935644
       3     bnd       3       9       0       0     1.08250559    -0.00762548
       4     bnd       1       4       0       0     1.09027172    -0.00061011
       5     bnd       3       6       0       0     1.08359770    -0.00037309
       6     bnd       2       7       0       0     1.08549713    -0.01047309
       7     bnd       3       8       0       0     1.08394683    -0.00018100
       8     bnd       5      10       0       0     1.22478010    -0.00357379
       9     bnd       2      11       0       0     1.08074103     0.00325825
      10     bnd       5      12       0       0     1.09946312     0.03641869
      11     bnd       2       3       0       0     2.54933190     0.37953868
      12     bnd       1       3       0       0     3.23792218     0.50786417
      13     bnd       2       9       0       0     2.85628416     0.35902812
      14     bnd       3       7       0       0     2.68174457     0.31248737
      15     bnd       3      11       0       0     2.72207950     0.33738718
      16     ang       5       1       2       0   123.39792861    -0.10931723
      17     ang       5       1       4       0   116.28945144     0.19217823
      18     ang       5       1       3       0   109.90176165    -0.08118459
      19     ang       2       1       4       0   120.30927073    -0.08419873
      20     ang       2       1       3       0    48.47629682    -0.04152499
      21     ang       4       1       3       0   110.61613917    -0.06060096
      22     ang       1       2       7       0   119.93050686     0.00030031
      23     ang       1       2      11       0   121.20041354    -0.02164919
      24     ang       1       2       3       0   108.02806543     0.10012043
      25     ang       1       2       9       0    90.31484882     0.12195667
      26     ang       7       2      11       0   117.69466025     0.00446871
      27     ang       7       2       3       0    84.96599349    -0.01619781
      28     ang       7       2       9       0    82.10166711    -0.01291553
      29     ang      11       2       3       0    87.32284685    -0.00675611
      30     ang      11       2       9       0   108.18985539    -0.03431451
      31     ang       9       3       6       0   118.83119240    -0.00173639
      32     ang       9       3       8       0   118.56009031    -0.01062460
      33     ang       9       3       2       0    95.06675986     0.00608948
      34     ang       9       3       1       0    76.70514858     0.05269805
      35     ang       9       3       7       0    91.19395301     0.00973549
      36     ang       9       3      11       0   116.96252795    -0.02012451
      37     ang       6       3       8       0   118.64840524     0.00745356
      38     ang       6       3       2       0    98.56817286     0.00351416
      39     ang       6       3       1       0    94.58583570     0.01203001
      40     ang       6       3       7       0   120.46653055    -0.02337935
      41     ang       6       3      11       0    80.65356861     0.02312856
      42     ang       8       3       2       0    96.29066979     0.00251025
      43     ang       8       3       1       0   117.89467751    -0.05111952
      44     ang       8       3       7       0    77.57817564     0.02412464
      45     ang       8       3      11       0    91.84471848     0.01318472
      46     ang       1       3       7       0    40.60896196    -0.07416210
      47     ang       1       3      11       0    40.70667200    -0.07589842
      48     ang       7       3      11       0    40.11842441    -0.04663963
      49     ang       1       5      10       0   125.22336067     0.00266948
      50     ang       1       5      12       0   114.53522623     0.00310690
      51     ang      10       5      12       0   120.24139699    -0.00577297
      52     ang       2       7       3       0    71.25491007     0.04625849
      53     ang       3       9       2       0    62.75371225     0.02278001
      54     ang       2      11       3       0    69.31170329     0.03422181
      55     dih       2       1       5      10     4.34317874    -0.06044732
      56     dih       2       1       5      12   184.38950117    -0.05919580
      57     dih       4       1       5      10   185.00849961     0.02824166
      58     dih       4       1       5      12     5.05482204     0.02949318
      59     dih       3       1       5      10   -48.37091678     0.02841817
      60     dih       3       1       5      12   131.67540565     0.02966969
      61     dih       5       1       2       7     6.88689764     0.09235576
      62     dih       5       1       2      11   174.21698417     0.00282723
      63     dih       5       1       2       3   -87.75345984     0.05146558
      64     dih       5       1       2       9   -74.17300746     0.03623474
      65     dih       4       1       2       7   186.19594799     0.00295209
      66     dih       4       1       2      11    -6.47396549    -0.08657643
      67     dih       4       1       2       3    91.55559050    -0.03793809
      68     dih       4       1       2       9   105.13604289    -0.05316892
      69     dih       3       1       2       7    94.64035748     0.04089018
      70     dih       3       1       2      11   261.97044401    -0.04863835
      71     dih       3       1       2       9    13.58045238    -0.01523083
      72     dih       6       3       9       2   102.68199827     0.00726319
      73     dih       8       3       9       2   260.00846228    -0.00438687
      74     dih       1       3       9       2    14.76190354    -0.03668288
      75     dih       7       3       9       2   -23.50169007     0.02973669
      76     dih      11       3       9       2     8.55132919    -0.00919492
      77     dih       1       2       7       3   252.07460338    -0.10659575
      78     dih      11       2       7       3    84.30736243    -0.01697893
      79     dih       9       2       7       3   -22.13877926     0.02823652
      80     dih       1       2      11       3   109.50518400     0.11042490
      81     dih       7       2      11       3   -82.89130596     0.02246653
      82     dih       9       2      11       3     7.63090387    -0.00935784
      83     dih       1       2       3       9    38.46151173     0.00547613
      84     dih       1       2       3       6   -81.73353012     0.00521364
      85     dih       1       2       3       8   157.97555612    -0.00386549
      86     dih       1       2       3       7   119.87257733     0.00340498
      87     dih       1       2       3      11   237.98400263     0.01033244
      88     dih       7       2       3       9   -81.41106560     0.00207115
      89     dih       7       2       3       6   158.39389255     0.00180866
      90     dih       7       2       3       8    38.10297879    -0.00727048
      91     dih       7       2       3       1   240.12742267    -0.00340498
      92     dih       7       2       3      11   118.11142530     0.00692746
      93     dih      11       2       3       9   160.47750910    -0.00485631
      94     dih      11       2       3       6    40.28246725    -0.00511880
      95     dih      11       2       3       8   -80.00844651    -0.01419794
      96     dih      11       2       3       1   122.01599737    -0.01033244
      97     dih      11       2       3       7   241.88857470    -0.00692746
      98     dih       9       2       3       6   239.80495815    -0.00026250
      99     dih       9       2       3       8   119.51404439    -0.00934163
     100     dih       9       2       3       1   -38.46151173    -0.00547613
     101     dih       9       2       3       7    81.41106560    -0.00207115
     102     dih       9       2       3      11   199.52249090     0.00485631
     103     dih       5       1       3       9   -22.98478903    -0.08256725
     104     dih       5       1       3       6   218.45063700    -0.07623862
     105     dih       5       1       3       8    92.53001097    -0.06903018
     106     dih       5       1       3       2   117.47496651    -0.07755480
     107     dih       5       1       3       7    84.98390819    -0.08791340
     108     dih       5       1       3      11   148.51304538    -0.05911844
     109     dih       2       1       3       9   219.54024446    -0.00501245
     110     dih       2       1       3       6   100.97567048     0.00131618
     111     dih       2       1       3       8   -24.94495555     0.00852462
     112     dih       2       1       3       7   -32.49105832    -0.01035860
     113     dih       2       1       3      11    31.03807887     0.01843636
     114     dih       4       1       3       9   106.76685186     0.06051025
     115     dih       4       1       3       6   -11.79772211     0.06683888
     116     dih       4       1       3       8   222.28165186     0.07404732
     117     dih       4       1       3       2   247.22660740     0.06552270
     118     dih       4       1       3       7   214.73554908     0.05516410
     119     dih       4       1       3      11   -81.73531373     0.08395906
     120     dih       1       2       9       3   216.26076768    -0.01822177
     121     dih       7       2       9       3    96.06387168    -0.00030336
     122     dih      11       2       9       3   -20.57119938    -0.00069280
     123     dih       9       3       7       2    99.89130075     0.00365018
     124     dih       6       3       7       2   -24.98889373     0.00892133
     125     dih       8       3       7       2   218.90742970    -0.01195819
     126     dih       1       3       7       2    32.08184016    -0.03146802
     127     dih      11       3       7       2   -32.87927014     0.00785402
     128     dih       9       3      11       2   -21.92950577    -0.00115340
     129     dih       6       3      11       2   220.38662743    -0.00871942
     130     dih       8       3      11       2   101.64669097    -0.01300750
     131     dih       1       3      11       2   -31.21950181     0.02401171
     132     dih       7       3      11       2    33.49940126    -0.01076737
 
----------------------------------------------------------------------
Geometry Convergence after Step   2       (Hartree/Angstrom,Angstrom)
----------------------------------------------------------------------
current energy                               -2.32557990 Hartree
energy change                      -0.00120601     0.00012000    F
constrained gradient max            0.01972316     0.00100000    F
constrained gradient rms            0.00460048     0.00066667    F
gradient max                        0.01972316
gradient rms                        0.00460048
cart. step max                      0.01305369     0.01000000    F
cart. step rms                      0.00379185     0.00666667    T
 
 
--------
Geometry
--------
Formula: C4H7O
Atoms
  Index Symbol   x (angstrom)   y (angstrom)   z (angstrom)
      1      C     0.81734461    -0.20544328     0.87784500
      2      C     0.84809958    -0.33078154    -0.47373892
      3      C    -1.55231898    -0.45555483    -1.31439150
      4      H     0.84558682    -1.08959848     1.51475616
      5      C     0.73318824     1.09117189     1.56877083
      6      H    -1.73616039    -1.50463017    -1.11563084
      7      H     0.92175859     0.55313134    -1.09950682
      8      H    -1.33721704    -0.14949546    -2.33166624
      9      H    -1.93591384     0.28236251    -0.62157947
     10      O     0.59578847     2.17723180     1.02312546
     11      H     1.00774296    -1.29608619    -0.94315878
     12      H     0.78320409     1.02755256     2.67957367
 
Total System Charge             0.00000
 
 *** GOStep3 ***

 Energy gradients wrt nuclear displacements
 ==========================================

     Atom      Cartesian (a.u./angstrom)
                 X         Y         Z
 ----------------------------------------
     1 C    -0.001698  0.000325 -0.000943
     2 C     0.000536 -0.000433  0.000197
     3 C    -0.000213 -0.000049  0.000056
     4 H    -0.000085 -0.000084  0.000150
     5 C     0.004093  0.000729  0.002436
     6 H    -0.000206 -0.000058 -0.000297
     7 H     0.000032  0.000129 -0.000106
     8 H    -0.000069  0.000245  0.000052
     9 H     0.000002 -0.000131  0.000357
    10 O    -0.001384 -0.000651  0.000156
    11 H     0.000532 -0.000339  0.000061
    12 H    -0.001540  0.000317 -0.002119
 ----------------------------------------
 Mulliken charges used for AMS results%charges...
Hessian eigenvector     1(     0.001) has overlap with TSRC:    0.50123E-01
Hessian eigenvector     2(     0.009) has overlap with TSRC:    0.32458E-02
Hessian eigenvector     3(     0.010) has overlap with TSRC:    0.16382E-01
Hessian eigenvector     4(     0.012) has overlap with TSRC:    0.19582E-01
Hessian eigenvector     5(     0.018) has overlap with TSRC:    0.19887E+00
Hessian eigenvector     6(     0.028) has overlap with TSRC:    0.23040E-01
Hessian eigenvector     7(     0.033) has overlap with TSRC:    0.16083E-01
Hessian eigenvector     8(     0.034) has overlap with TSRC:    0.62435E-01
Hessian eigenvector     9(     0.036) has overlap with TSRC:    0.11235E+00
Hessian eigenvector    10(     0.043) has overlap with TSRC:    0.10441E-01
Hessian eigenvector    11(     0.048) has overlap with TSRC:    0.11997E-01
Hessian eigenvector    12(     0.055) has overlap with TSRC:    0.11025E-01
Hessian eigenvector    13(     0.058) has overlap with TSRC:    0.32542E-02
Hessian eigenvector    14(     0.070) has overlap with TSRC:    0.10828E+00
Hessian eigenvector    15(     0.076) has overlap with TSRC:    0.91359E-02
Hessian eigenvector    16(     0.078) has overlap with TSRC:    0.29658E-02
Hessian eigenvector    17(     0.092) has overlap with TSRC:    0.24936E+00
Hessian eigenvector    18(     0.108) has overlap with TSRC:    0.77110E-01
Hessian eigenvector    19(     0.226) has overlap with TSRC:    0.22380E-02
Hessian eigenvector    20(     0.247) has overlap with TSRC:    0.17398E-02
Hessian eigenvector    21(     0.328) has overlap with TSRC:    0.25754E-02
Hessian eigenvector    22(     0.380) has overlap with TSRC:    0.55209E-02
Hessian eigenvector    23(     0.406) has overlap with TSRC:    0.22585E-01
Hessian eigenvector    24(     0.426) has overlap with TSRC:    0.21505E-01
Hessian eigenvector    25(     0.435) has overlap with TSRC:    0.64088E-01
Hessian eigenvector    26(     0.500) has overlap with TSRC:    0.14287E-03
Hessian eigenvector    27(     0.503) has overlap with TSRC:    0.13217E-04
Hessian eigenvector    28(     0.503) has overlap with TSRC:    0.95993E-06
Hessian eigenvector    29(     0.522) has overlap with TSRC:    0.59606E-03
Hessian eigenvector    30(     0.600) has overlap with TSRC:    0.51927E-03
Hessian eigenvector    17 has the largest overlap with TSRC:  0.24936
           Primitive Internal Coordinates (atoms in internal order)
-------------------------------------------------------------------------------
    index    type      i       j       k       l   value(A,deg)     Max Ovl Vect
-------------------------------------------------------------------------------
       1     bnd       1       5       0       0     1.47162214    -0.00144104
       2     bnd       1       2       0       0     1.35773143    -0.04810239
       3     bnd       3       9       0       0     1.08243038    -0.00676884
       4     bnd       1       4       0       0     1.09003847    -0.00036872
       5     bnd       3       6       0       0     1.08344937    -0.00021826
       6     bnd       2       7       0       0     1.08550132    -0.00943913
       7     bnd       3       8       0       0     1.08387687    -0.00010262
       8     bnd       5      10       0       0     1.22316544    -0.00234153
       9     bnd       2      11       0       0     1.08519772    -0.00196486
      10     bnd       5      12       0       0     1.11374680     0.02121577
      11     bnd       2       3       0       0     2.54642385     0.35236701
      12     bnd       1       3       0       0     3.23786384     0.49804200
      13     bnd       2       9       0       0     2.85456357     0.35016895
      14     bnd       3       7       0       0     2.68042591     0.28773255
      15     bnd       3      11       0       0     2.71996762     0.29996836
      16     ang       5       1       2       0   123.36738268    -0.12988612
      17     ang       5       1       4       0   116.21978492     0.22218278
      18     ang       5       1       3       0   110.12613241    -0.08491802
      19     ang       2       1       4       0   120.41042415    -0.09372609
      20     ang       2       1       3       0    48.35218675    -0.04881310
      21     ang       4       1       3       0   110.60448231    -0.07318889
      22     ang       1       2       7       0   120.01550993     0.00869134
      23     ang       1       2      11       0   121.06803060    -0.03032356
      24     ang       1       2       3       0   108.16812130     0.10753879
      25     ang       1       2       9       0    90.55210665     0.13422698
      26     ang       7       2      11       0   117.70889287     0.00441083
      27     ang       7       2       3       0    85.04076055    -0.01631183
      28     ang       7       2       9       0    82.03424698    -0.01882894
      29     ang      11       2       3       0    87.26513565    -0.01235321
      30     ang      11       2       9       0   108.18793635    -0.03738975
      31     ang       9       3       6       0   118.85162586    -0.00149915
      32     ang       9       3       8       0   118.59077788    -0.01068597
      33     ang       9       3       2       0    95.12671210     0.01483249
      34     ang       9       3       1       0    76.89966838     0.06749294
      35     ang       9       3       7       0    91.10281994     0.01126849
      36     ang       9       3      11       0   117.18464604    -0.00754149
      37     ang       6       3       8       0   118.63768518     0.01127269
      38     ang       6       3       2       0    98.44351297    -0.01079496
      39     ang       6       3       1       0    94.28800724    -0.01097471
      40     ang       6       3       7       0   120.41691676    -0.03259129
      41     ang       6       3      11       0    80.52887357     0.01167258
      42     ang       8       3       2       0    96.25372268    -0.00203037
      43     ang       8       3       1       0   117.93074974    -0.05134843
      44     ang       8       3       7       0    77.63150203     0.02190850
      45     ang       8       3      11       0    91.63709266     0.00269041
      46     ang       1       3       7       0    40.63560695    -0.07024468
      47     ang       1       3      11       0    40.76692675    -0.07644629
      48     ang       7       3      11       0    40.23474103    -0.04292334
      49     ang       1       5      10       0   125.40142906     0.00070054
      50     ang       1       5      12       0   114.54208106     0.00018883
      51     ang      10       5      12       0   120.04482105    -0.00103781
      52     ang       2       7       3       0    71.16474308     0.04400201
      53     ang       3       9       2       0    62.68348549     0.01351002
      54     ang       2      11       3       0    69.24917043     0.03791979
      55     dih       2       1       5      10     4.98052366    -0.03956550
      56     dih       2       1       5      12   183.73111261    -0.09456368
      57     dih       4       1       5      10   185.54413404     0.05522018
      58     dih       4       1       5      12     4.29472300     0.00022199
      59     dih       3       1       5      10   -47.70978675     0.05895620
      60     dih       3       1       5      12   131.04080220     0.00395802
      61     dih       5       1       2       7     6.81470351     0.09172250
      62     dih       5       1       2      11   173.97184825     0.00039358
      63     dih       5       1       2       3   -88.03321634     0.04339626
      64     dih       5       1       2       9   -74.29835813     0.03604195
      65     dih       4       1       2       7   186.22842546    -0.00363594
      66     dih       4       1       2      11    -6.61442980    -0.09496486
      67     dih       4       1       2       3    91.38050561    -0.05196217
      68     dih       4       1       2       9   105.11536381    -0.05931648
      69     dih       3       1       2       7    94.84791985     0.04832624
      70     dih       3       1       2      11   262.00506459    -0.04300268
      71     dih       3       1       2       9    13.73485821    -0.00735431
      72     dih       6       3       9       2   102.57660978    -0.00419856
      73     dih       8       3       9       2   260.01127314    -0.00410394
      74     dih       1       3       9       2    14.90122596    -0.02942771
      75     dih       7       3       9       2   -23.49186414     0.02834156
      76     dih      11       3       9       2     8.46196728    -0.01370384
      77     dih       1       2       7       3   251.86100615    -0.11588113
      78     dih      11       2       7       3    84.27978675    -0.02339916
      79     dih       9       2       7       3   -22.13018733     0.02828045
      80     dih       1       2      11       3   109.61262543     0.11422700
      81     dih       7       2      11       3   -82.94369334     0.02557527
      82     dih       9       2      11       3     7.50285393    -0.01485869
      83     dih       1       2       3       9    38.94906025     0.03021494
      84     dih       1       2       3       6   -81.25677575     0.03044325
      85     dih       1       2       3       8   158.49890296     0.02161515
      86     dih       1       2       3       7   119.99897287     0.01282755
      87     dih       1       2       3      11   238.12443494     0.02040379
      88     dih       7       2       3       9   -81.04991262     0.01738738
      89     dih       7       2       3       6   158.74425138     0.01761570
      90     dih       7       2       3       8    38.49993009     0.00878760
      91     dih       7       2       3       1   240.00102713    -0.01282755
      92     dih       7       2       3      11   118.12546207     0.00757623
      93     dih      11       2       3       9   160.82462532     0.00981115
      94     dih      11       2       3       6    40.61878932     0.01003946
      95     dih      11       2       3       8   -79.62553198     0.00121137
      96     dih      11       2       3       1   121.87556506    -0.02040379
      97     dih      11       2       3       7   241.87453793    -0.00757623
      98     dih       9       2       3       6   239.79416400     0.00022831
      99     dih       9       2       3       8   119.54984270    -0.00859978
     100     dih       9       2       3       1   -38.94906025    -0.03021494
     101     dih       9       2       3       7    81.04991262    -0.01738738
     102     dih       9       2       3      11   199.17537468    -0.00981115
     103     dih       5       1       3       9   -22.73742614    -0.08432079
     104     dih       5       1       3       6   218.61773036    -0.08294140
     105     dih       5       1       3       8    92.90428157    -0.06386782
     106     dih       5       1       3       2   117.25830828    -0.10152891
     107     dih       5       1       3       7    84.81109857    -0.10896101
     108     dih       5       1       3      11   148.47461386    -0.07629602
     109     dih       2       1       3       9   220.00426558     0.01720812
     110     dih       2       1       3       6   101.35942208     0.01858751
     111     dih       2       1       3       8   -24.35402672     0.03766109
     112     dih       2       1       3       7   -32.44720972    -0.00743210
     113     dih       2       1       3      11    31.21630557     0.02523288
     114     dih       4       1       3       9   107.09046471     0.08566858
     115     dih       4       1       3       6   -11.55437879     0.08704797
     116     dih       4       1       3       8   222.73217241     0.10612155
     117     dih       4       1       3       2   247.08619913     0.06846046
     118     dih       4       1       3       7   214.63898942     0.06102836
     119     dih       4       1       3      11   -81.69749529     0.09369334
     120     dih       1       2       9       3   216.67798694     0.00294511
     121     dih       7       2       9       3    96.42737631     0.01384207
     122     dih      11       2       9       3   -20.20258867     0.01533299
     123     dih       9       3       7       2   100.24547601     0.02118704
     124     dih       6       3       7       2   -24.57197563     0.02908204
     125     dih       8       3       7       2   219.30978194     0.00536098
     126     dih       1       3       7       2    31.99389003    -0.03791502
     127     dih      11       3       7       2   -32.96491252     0.00807408
     128     dih       9       3      11       2   -21.57822438     0.01319170
     129     dih       6       3      11       2   220.75805514     0.00985929
     130     dih       8       3      11       2   101.98620427    -0.00057354
     131     dih       1       3      11       2   -31.20793493     0.01995847
     132     dih       7       3      11       2    33.42648527    -0.01037340
 
----------------------------------------------------------------------
Geometry Convergence after Step   3       (Hartree/Angstrom,Angstrom)
----------------------------------------------------------------------
current energy                               -2.32573143 Hartree
energy change                      -0.00015153     0.00012000    F
constrained gradient max            0.00410537     0.00100000    F
constrained gradient rms            0.00102463     0.00066667    F
gradient max                        0.00410537
gradient rms                        0.00102463
cart. step max                      0.03213745     0.01000000    F
cart. step rms                      0.01192521     0.00666667    F
 
 
--------
Geometry
--------
Formula: C4H7O
Atoms
  Index Symbol   x (angstrom)   y (angstrom)   z (angstrom)
      1      C     0.81041846    -0.20377336     0.87777113
      2      C     0.83783355    -0.32137896    -0.47499184
      3      C    -1.55180593    -0.46041164    -1.31998337
      4      H     0.84010515    -1.08981151     1.51149002
      5      C     0.71691937     1.08797443     1.57435978
      6      H    -1.73464375    -1.50420453    -1.09473641
      7      H     0.91271580     0.56364408    -1.09887392
      8      H    -1.32992085    -0.18163291    -2.34359133
      9      H    -1.93937466     0.29535375    -0.64885042
     10      O     0.60909977     2.18185327     1.03815195
     11      H     1.00569893    -1.28587470    -0.94614011
     12      H     0.81405727     1.01812224     2.68979306
 
Total System Charge             0.00000
 
 *** GOStep4 ***

 Energy gradients wrt nuclear displacements
 ==========================================

     Atom      Cartesian (a.u./angstrom)
                 X         Y         Z
 ----------------------------------------
     1 C     0.004578 -0.000541 -0.000238
     2 C    -0.000251  0.002510  0.001322
     3 C    -0.001219 -0.000068 -0.000279
     4 H    -0.000195  0.000293  0.000387
     5 C    -0.013339 -0.001182 -0.006376
     6 H     0.000058 -0.000089 -0.000352
     7 H     0.000594 -0.000152 -0.000437
     8 H     0.000071  0.000139  0.000094
     9 H     0.000069 -0.000010  0.000417
    10 O     0.004430  0.000737  0.000517
    11 H     0.000449 -0.001777 -0.000203
    12 H     0.004756  0.000141  0.005150
 ----------------------------------------
 Mulliken charges used for AMS results%charges...
Hessian eigenvector     1(     0.001) has overlap with TSRC:    0.61456E-01
Hessian eigenvector     2(     0.009) has overlap with TSRC:    0.45187E-02
Hessian eigenvector     3(     0.010) has overlap with TSRC:    0.22073E-01
Hessian eigenvector     4(     0.012) has overlap with TSRC:    0.32195E-01
Hessian eigenvector     5(     0.018) has overlap with TSRC:    0.19689E+00
Hessian eigenvector     6(     0.028) has overlap with TSRC:    0.35390E-01
Hessian eigenvector     7(     0.033) has overlap with TSRC:    0.62847E-01
Hessian eigenvector     8(     0.036) has overlap with TSRC:    0.99742E-01
Hessian eigenvector     9(     0.043) has overlap with TSRC:    0.10263E-01
Hessian eigenvector    10(     0.047) has overlap with TSRC:    0.32253E-01
Hessian eigenvector    11(     0.049) has overlap with TSRC:    0.22237E-02
Hessian eigenvector    12(     0.055) has overlap with TSRC:    0.11138E-01
Hessian eigenvector    13(     0.058) has overlap with TSRC:    0.18093E-02
Hessian eigenvector    14(     0.070) has overlap with TSRC:    0.10777E+00
Hessian eigenvector    15(     0.076) has overlap with TSRC:    0.90367E-02
Hessian eigenvector    16(     0.078) has overlap with TSRC:    0.33056E-02
Hessian eigenvector    17(     0.092) has overlap with TSRC:    0.24947E+00
Hessian eigenvector    18(     0.108) has overlap with TSRC:    0.77232E-01
Hessian eigenvector    19(     0.226) has overlap with TSRC:    0.20658E-02
Hessian eigenvector    20(     0.247) has overlap with TSRC:    0.11269E-02
Hessian eigenvector    21(     0.333) has overlap with TSRC:    0.40198E-02
Hessian eigenvector    22(     0.380) has overlap with TSRC:    0.62829E-02
Hessian eigenvector    23(     0.407) has overlap with TSRC:    0.24207E-01
Hessian eigenvector    24(     0.426) has overlap with TSRC:    0.20898E-01
Hessian eigenvector    25(     0.435) has overlap with TSRC:    0.64294E-01
Hessian eigenvector    26(     0.500) has overlap with TSRC:    0.15216E-03
Hessian eigenvector    27(     0.503) has overlap with TSRC:    0.14369E-04
Hessian eigenvector    28(     0.503) has overlap with TSRC:    0.32521E-05
Hessian eigenvector    29(     0.522) has overlap with TSRC:    0.59902E-03
Hessian eigenvector    30(     0.600) has overlap with TSRC:    0.47266E-03
Hessian eigenvector    17 has the largest overlap with TSRC:  0.24947
           Primitive Internal Coordinates (atoms in internal order)
-------------------------------------------------------------------------------
    index    type      i       j       k       l   value(A,deg)     Max Ovl Vect
-------------------------------------------------------------------------------
       1     bnd       1       5       0       0     1.47057478    -0.00146215
       2     bnd       1       2       0       0     1.35814223    -0.04812319
       3     bnd       3       9       0       0     1.08250186    -0.00677315
       4     bnd       1       4       0       0     1.08974517    -0.00037237
       5     bnd       3       6       0       0     1.08336027    -0.00021930
       6     bnd       2       7       0       0     1.08540407    -0.00944337
       7     bnd       3       8       0       0     1.08384677    -0.00010454
       8     bnd       5      10       0       0     1.22299420    -0.00233437
       9     bnd       2      11       0       0     1.08646744    -0.00187766
      10     bnd       5      12       0       0     1.12183176     0.02151218
      11     bnd       2       3       0       0     2.53844788     0.35245964
      12     bnd       1       3       0       0     3.23667918     0.49802516
      13     bnd       2       9       0       0     2.85017043     0.35024234
      14     bnd       3       7       0       0     2.67795573     0.28781854
      15     bnd       3      11       0       0     2.71329673     0.29999813
      16     ang       5       1       2       0   123.30905215    -0.12963589
      17     ang       5       1       4       0   116.13371944     0.22209202
      18     ang       5       1       3       0   110.17478398    -0.08467811
      19     ang       2       1       4       0   120.54867406    -0.09388296
      20     ang       2       1       3       0    48.05170540    -0.04877141
      21     ang       4       1       3       0   110.50447386    -0.07328834
      22     ang       1       2       7       0   120.21868608     0.00857238
      23     ang       1       2      11       0   120.79210065    -0.03019831
      24     ang       1       2       3       0   108.49966736     0.10749301
      25     ang       1       2       9       0    91.28074651     0.13411222
      26     ang       7       2      11       0   117.64085940     0.00442393
      27     ang       7       2       3       0    85.31197673    -0.01631050
      28     ang       7       2       9       0    81.70471814    -0.01874787
      29     ang      11       2       3       0    87.27591184    -0.01239870
      30     ang      11       2       9       0   108.43267868    -0.03747157
      31     ang       9       3       6       0   118.90364551    -0.00150972
      32     ang       9       3       8       0   118.63607570    -0.01071060
      33     ang       9       3       2       0    95.30311989     0.01482677
      34     ang       9       3       1       0    77.58243672     0.06739864
      35     ang       9       3       7       0    90.64892582     0.01134846
      36     ang       9       3      11       0   117.67480968    -0.00756729
      37     ang       6       3       8       0   118.60236221     0.01127782
      38     ang       6       3       2       0    98.18881889    -0.01074297
      39     ang       6       3       1       0    93.34739989    -0.01079549
      40     ang       6       3       7       0   120.43675942    -0.03258372
      41     ang       6       3      11       0    80.63718360     0.01165385
      42     ang       8       3       2       0    96.17523963    -0.00200114
      43     ang       8       3       1       0   118.12983920    -0.05137770
      44     ang       8       3       7       0    77.94885988     0.02188502
      45     ang       8       3      11       0    90.88297453     0.00281102
      46     ang       1       3       7       0    40.70769330    -0.07027587
      47     ang       1       3      11       0    40.76817583    -0.07640740
      48     ang       7       3      11       0    40.31522690    -0.04291372
      49     ang       1       5      10       0   125.70309413     0.00082634
      50     ang       1       5      12       0   114.25404378     0.00010069
      51     ang      10       5      12       0   119.95132677    -0.00108215
      52     ang       2       7       3       0    70.86238253     0.04400902
      53     ang       3       9       2       0    62.47608370     0.01352193
      54     ang       2      11       3       0    69.14772934     0.03795018
      55     dih       2       1       5      10     2.60011138    -0.03825146
      56     dih       2       1       5      12   186.10346707    -0.09572545
      57     dih       4       1       5      10   183.66084150     0.05636431
      58     dih       4       1       5      12     7.16419719    -0.00110968
      59     dih       3       1       5      10   -49.75939798     0.06010064
      60     dih       3       1       5      12   133.74395771     0.00262666
      61     dih       5       1       2       7     7.50672476     0.09149069
      62     dih       5       1       2      11   173.93834630     0.00026657
      63     dih       5       1       2       3   -87.95291982     0.04323439
      64     dih       5       1       2       9   -73.63544963     0.03577260
      65     dih       4       1       2       7   186.40094518    -0.00369059
      66     dih       4       1       2      11    -7.16743328    -0.09491471
      67     dih       4       1       2       3    90.94130060    -0.05194689
      68     dih       4       1       2       9   105.25877078    -0.05940869
      69     dih       3       1       2       7    95.45964458     0.04825630
      70     dih       3       1       2      11   261.89126612    -0.04296782
      71     dih       3       1       2       9    14.31747019    -0.00746180
      72     dih       6       3       9       2   102.39503971    -0.00414380
      73     dih       8       3       9       2   259.99278399    -0.00412985
      74     dih       1       3       9       2    15.44870707    -0.02953271
      75     dih       7       3       9       2   -23.40514440     0.02833576
      76     dih      11       3       9       2     7.82282604    -0.01360448
      77     dih       1       2       7       3   251.29677288    -0.11581808
      78     dih      11       2       7       3    84.44652490    -0.02345203
      79     dih       9       2       7       3   -22.07310406     0.02827878
      80     dih       1       2      11       3   109.96415501     0.11416531
      81     dih       7       2      11       3   -83.26477093     0.02559947
      82     dih       9       2      11       3     6.89985301    -0.01477777
      83     dih       1       2       3       9    40.82485392     0.02987537
      84     dih       1       2       3       6   -79.42511231     0.03010598
      85     dih       1       2       3       8   160.43902425     0.02125425
      86     dih       1       2       3       7   120.33603537     0.01269880
      87     dih       1       2       3      11   238.36472174     0.02029378
      88     dih       7       2       3       9   -79.51118145     0.01717657
      89     dih       7       2       3       6   160.23885232     0.01740718
      90     dih       7       2       3       8    40.10298888     0.00855545
      91     dih       7       2       3       1   239.66396463    -0.01269880
      92     dih       7       2       3      11   118.02868637     0.00759498
      93     dih      11       2       3       9   162.46013218     0.00958159
      94     dih      11       2       3       6    42.21016595     0.00981221
      95     dih      11       2       3       8   -77.92569749     0.00096047
      96     dih      11       2       3       1   121.63527826    -0.02029378
      97     dih      11       2       3       7   241.97131363    -0.00759498
      98     dih       9       2       3       6   239.75003377     0.00023061
      99     dih       9       2       3       8   119.61417033    -0.00862112
     100     dih       9       2       3       1   -40.82485392    -0.02987537
     101     dih       9       2       3       7    79.51118145    -0.01717657
     102     dih       9       2       3      11   197.53986782    -0.00958159
     103     dih       5       1       3       9   -21.04474142    -0.08451810
     104     dih       5       1       3       6   220.08138066    -0.08309046
     105     dih       5       1       3       8    94.97852311    -0.06413710
     106     dih       5       1       3       2   117.15441105    -0.10139183
     107     dih       5       1       3       7    84.83988573    -0.10888211
     108     dih       5       1       3      11   148.58706134    -0.07620611
     109     dih       2       1       3       9   221.80084753     0.01687374
     110     dih       2       1       3       6   102.92696961     0.01830138
     111     dih       2       1       3       8   -22.17588794     0.03725473
     112     dih       2       1       3       7   -32.31452532    -0.00749027
     113     dih       2       1       3      11    31.43265029     0.02518572
     114     dih       4       1       3       9   108.62851729     0.08546243
     115     dih       4       1       3       6   -10.24536063     0.08689007
     116     dih       4       1       3       8   224.65178182     0.10584342
     117     dih       4       1       3       2   246.82766976     0.06858869
     118     dih       4       1       3       7   214.51314444     0.06109842
     119     dih       4       1       3      11   -81.73967995     0.09377441
     120     dih       1       2       9       3   218.32502109     0.00264152
     121     dih       7       2       9       3    97.96109486     0.01364714
     122     dih      11       2       9       3   -18.50020318     0.01510086
     123     dih       9       3       7       2   101.72212186     0.02099197
     124     dih       6       3       7       2   -22.83900207     0.02883808
     125     dih       8       3       7       2   220.90886806     0.00512359
     126     dih       1       3       7       2    31.77530821    -0.03783992
     127     dih      11       3       7       2   -33.07203688     0.00806520
     128     dih       9       3      11       2   -19.80644944     0.01293679
     129     dih       6       3      11       2   222.37504189     0.00962737
     130     dih       8       3      11       2   103.51260954    -0.00079171
     131     dih       1       3      11       2   -31.25384272     0.02002242
     132     dih       7       3      11       2    33.44445384    -0.01040034
 
----------------------------------------------------------------------
Geometry Convergence after Step   4       (Hartree/Angstrom,Angstrom)
----------------------------------------------------------------------
current energy                               -2.32562237 Hartree
energy change                       0.00010907     0.00012000    T
constrained gradient max            0.01332934     0.00100000    F
constrained gradient rms            0.00300536     0.00066667    F
gradient max                        0.01332934
gradient rms                        0.00300536
cart. step max                      0.02283107     0.01000000    F
cart. step rms                      0.00655017     0.00666667    T
 
 
--------
Geometry
--------
Formula: C4H7O
Atoms
  Index Symbol   x (angstrom)   y (angstrom)   z (angstrom)
      1      C     0.81784102    -0.20474432     0.87573535
      2      C     0.84140190    -0.32608750    -0.47712116
      3      C    -1.54959711    -0.45510117    -1.31533362
      4      H     0.84819741    -1.09009612     1.51037220
      5      C     0.72683355     1.08758060     1.57190716
      6      H    -1.73694811    -1.49759837    -1.08772590
      7      H     0.91856587     0.55777427    -1.10233654
      8      H    -1.32967521    -0.17880180    -2.34006172
      9      H    -1.93251899     0.30333366    -0.64465063
     10      O     0.58626870     2.17775029     1.03503260
     11      H     1.00396557    -1.29053801    -0.94725937
     12      H     0.79676851     1.01638863     2.68584017
 
Total System Charge             0.00000
 
 *** GOStep5 ***

 Energy gradients wrt nuclear displacements
 ==========================================

     Atom      Cartesian (a.u./angstrom)
                 X         Y         Z
 ----------------------------------------
     1 C     0.001008 -0.000336 -0.000054
     2 C     0.000086  0.000337  0.000335
     3 C    -0.001280 -0.000042 -0.000360
     4 H    -0.000274  0.000321  0.000218
     5 C    -0.000913 -0.000126 -0.002703
     6 H     0.000024 -0.000070 -0.000268
     7 H     0.000570 -0.000198 -0.000301
     8 H     0.000056  0.000210  0.000076
     9 H     0.000053 -0.000120  0.000347
    10 O    -0.000007  0.000562  0.000182
    11 H     0.000368 -0.000287  0.000245
    12 H     0.000307 -0.000250  0.002284
 ----------------------------------------
 Mulliken charges used for AMS results%charges...
[...]
     9     H      -0.115382  -0.001215  -0.048334
    10     O       0.023689  -0.150338  -0.057239
    11     H       0.320558  -0.182514   0.462678
    12     H       0.142031   0.052795   0.175405
 
 Mode:    17      Frequency (cm-1):      730.0380     Intensity (km/mol):       14.1775
 Index  Atom      ---- Displacements (x/y/z) ----
     1     C       0.014477  -0.020810   0.017037
     2     C       0.009740  -0.004523  -0.002712
     3     C       0.093989   0.000832   0.030786
     4     H      -0.022259  -0.010239   0.032671
     5     C       0.002368   0.004834  -0.007098
     6     H      -0.522668   0.050852  -0.182667
     7     H       0.118769   0.033216   0.058987
     8     H      -0.544847  -0.035291  -0.133641
     9     H      -0.523687  -0.042312  -0.229698
    10     O      -0.002746   0.012689   0.002826
    11     H       0.111299   0.026174  -0.036829
    12     H      -0.008680   0.010392  -0.006283
 
 Mode:    18      Frequency (cm-1):      919.9978     Intensity (km/mol):       58.9629
 Index  Atom      ---- Displacements (x/y/z) ----
     1     C       0.034354  -0.145508  -0.020890
     2     C      -0.027874  -0.112961  -0.154923
     3     C      -0.023716   0.001052  -0.006830
     4     H      -0.210143  -0.283697  -0.175327
     5     C      -0.002694   0.182169   0.267355
     6     H       0.052903  -0.004481   0.022912
     7     H       0.064561   0.070862   0.090749
     8     H       0.055732   0.005904   0.013853
     9     H       0.037376   0.005754   0.018290
    10     O      -0.006321   0.034765  -0.048870
    11     H       0.347602   0.087556  -0.480225
    12     H      -0.010411   0.462310   0.276688
 
 Mode:    19      Frequency (cm-1):      939.5713     Intensity (km/mol):       10.8957
 Index  Atom      ---- Displacements (x/y/z) ----
     1     C      -0.058629  -0.035944  -0.021170
     2     C       0.127696   0.000252   0.002872
     3     C       0.044679   0.001339   0.014598
     4     H       0.183407  -0.085556  -0.093653
     5     C      -0.018553   0.033946   0.043958
     6     H      -0.049293   0.008774  -0.021148
     7     H      -0.549127  -0.031635  -0.114089
     8     H      -0.048884  -0.005774  -0.010320
     9     H      -0.060065  -0.010773  -0.026665
    10     O       0.003995   0.006618  -0.007764
    11     H      -0.748619  -0.065137  -0.131669
    12     H       0.075733   0.089900   0.041419
 
 Mode:    20      Frequency (cm-1):      970.5133     Intensity (km/mol):       15.6645
 Index  Atom      ---- Displacements (x/y/z) ----
     1     C      -0.030716  -0.046398   0.010284
     2     C      -0.023127   0.021459  -0.014604
     3     C      -0.011425  -0.005249  -0.002913
     4     H       0.664628  -0.077290  -0.048990
     5     C      -0.066243   0.006852   0.010683
     6     H      -0.000998  -0.006146   0.005014
     7     H       0.655156  -0.015884   0.008453
     8     H       0.015501  -0.001367   0.005131
     9     H       0.021746  -0.003496   0.011025
    10     O       0.016309   0.021758  -0.003331
    11     H      -0.249187  -0.035172   0.030704
    12     H       0.200204   0.071914   0.000440
 
 Mode:    21      Frequency (cm-1):      996.2614     Intensity (km/mol):        5.3113
 Index  Atom      ---- Displacements (x/y/z) ----
     1     C       0.126407  -0.000196   0.007657
     2     C      -0.011308   0.015918   0.007245
     3     C       0.002103   0.000627   0.000000
     4     H      -0.405475  -0.047535  -0.042059
     5     C      -0.210573  -0.023508  -0.007451
     6     H       0.001334   0.000380  -0.002826
     7     H      -0.091072  -0.037906  -0.072736
     8     H      -0.004708  -0.000440  -0.002068
     9     H      -0.001608   0.001399  -0.002533
    10     O       0.048754   0.008061   0.000672
    11     H      -0.020775  -0.018244   0.074310
    12     H       0.860308   0.059650  -0.051486
 
 Mode:    22      Frequency (cm-1):     1052.3469     Intensity (km/mol):        2.0798
 Index  Atom      ---- Displacements (x/y/z) ----
     1     C      -0.009890   0.139484  -0.024710
     2     C       0.015927  -0.108399  -0.025724
     3     C      -0.001892  -0.000840  -0.001683
     4     H       0.092354   0.454074   0.401071
     5     C      -0.036046  -0.007749   0.029194
     6     H       0.000792  -0.000343   0.008405
     7     H       0.076945   0.219094   0.412785
     8     H      -0.002729   0.002832  -0.000300
     9     H      -0.000717  -0.003987   0.001623
    10     O       0.013337  -0.058479  -0.001895
    11     H      -0.136981   0.118500  -0.540457
    12     H       0.138510  -0.129921   0.019896
 
 Mode:    23      Frequency (cm-1):     1267.2300     Intensity (km/mol):        8.5800
 Index  Atom      ---- Displacements (x/y/z) ----
     1     C       0.005134   0.081475  -0.091656
     2     C      -0.012224  -0.072100   0.114152
     3     C       0.007613   0.001135   0.000710
     4     H       0.035276  -0.364831  -0.715695
     5     C      -0.001773   0.005406   0.007692
     6     H      -0.009206   0.004180   0.011871
     7     H       0.008602   0.199896   0.499627
     8     H      -0.015179   0.000158  -0.004161
     9     H      -0.010142  -0.010974   0.003479
    10     O      -0.001017   0.010416  -0.013302
    11     H       0.003289  -0.026172   0.058011
    12     H       0.018381  -0.157071  -0.009916
 
 Mode:    24      Frequency (cm-1):     1376.4106     Intensity (km/mol):        2.7442
 Index  Atom      ---- Displacements (x/y/z) ----
     1     C      -0.000223  -0.001391  -0.003432
     2     C       0.000199  -0.000741  -0.001517
     3     C      -0.025745   0.047615   0.073590
     4     H       0.002245   0.005443   0.005684
     5     C      -0.000220   0.000731   0.003217
     6     H       0.213904  -0.092084  -0.710259
     7     H       0.001341   0.015517   0.021303
     8     H       0.016066  -0.611059  -0.182635
     9     H       0.075422   0.135679   0.018650
    10     O       0.000033   0.001450  -0.001789
    11     H      -0.001725  -0.009699   0.017506
    12     H       0.001664  -0.017071   0.002542
 
 Mode:    25      Frequency (cm-1):     1380.6155     Intensity (km/mol):        3.5287
 Index  Atom      ---- Displacements (x/y/z) ----
     1     C      -0.001407   0.011234   0.033907
     2     C      -0.000574  -0.003034   0.010611
     3     C      -0.014458  -0.072510   0.042130
     4     H       0.004574  -0.066459  -0.069445
     5     C       0.001288   0.000682   0.008302
     6     H       0.158154  -0.112650  -0.232204
     7     H       0.018880  -0.100422  -0.125531
     8     H      -0.135209   0.405280   0.181183
     9     H       0.136655   0.568753  -0.461705
    10     O      -0.001789   0.013944  -0.015731
    11     H       0.009507   0.079913  -0.172171
    12     H       0.016235  -0.238099  -0.001031
 
 Mode:    26      Frequency (cm-1):     1385.0513     Intensity (km/mol):       12.5700
 Index  Atom      ---- Displacements (x/y/z) ----
     1     C       0.000906  -0.002311  -0.070222
     2     C       0.001047  -0.003201  -0.010453
     3     C      -0.002725  -0.028362   0.017795
     4     H      -0.002667   0.112963   0.074937
     5     C      -0.002425  -0.018263  -0.042650
     6     H       0.060047  -0.043493  -0.088844
     7     H      -0.031619   0.189198   0.258551
     8     H      -0.055159   0.160227   0.071966
     9     H       0.052076   0.222704  -0.181185
    10     O       0.006200  -0.042860   0.053834
    11     H      -0.024238  -0.134314   0.283003
    12     H      -0.058785   0.793721  -0.016295
 
 Mode:    27      Frequency (cm-1):     1398.4439     Intensity (km/mol):       48.7047
 Index  Atom      ---- Displacements (x/y/z) ----
     1     C      -0.008229   0.089179   0.098424
     2     C      -0.001724  -0.030931   0.029226
     3     C      -0.002277   0.011878  -0.004290
     4     H       0.014832  -0.206936  -0.315283
     5     C       0.002297  -0.051410  -0.075791
     6     H      -0.009902   0.010798   0.001832
     7     H       0.056008  -0.268846  -0.305973
     8     H       0.020990  -0.080990  -0.033294
     9     H      -0.014931  -0.072176   0.063946
    10     O       0.003507  -0.022491   0.040837
    11     H       0.042203   0.241917  -0.559559
    12     H      -0.046598   0.510338  -0.066172
 
 Mode:    28      Frequency (cm-1):     1542.7440     Intensity (km/mol):      130.2695
 Index  Atom      ---- Displacements (x/y/z) ----
     1     C      -0.012291   0.105595   0.299360
     2     C       0.044561  -0.049685  -0.287937
     3     C      -0.017094  -0.002490  -0.006874
     4     H       0.004184  -0.294330  -0.209110
     5     C       0.014035  -0.147957  -0.002686
     6     H       0.012795  -0.004278   0.010415
     7     H      -0.143016   0.471443   0.373547
     8     H       0.008335   0.016621   0.006669
     9     H       0.009297   0.009691  -0.003905
    10     O      -0.008835   0.084610  -0.032405
    11     H      -0.099763  -0.382029   0.331834
    12     H       0.000575  -0.034307  -0.017354
 
 Mode:    29      Frequency (cm-1):     1696.3900     Intensity (km/mol):      135.3707
 Index  Atom      ---- Displacements (x/y/z) ----
     1     C      -0.002423  -0.003517   0.167576
     2     C       0.005968  -0.007945  -0.129655
     3     C      -0.002139  -0.001013   0.001208
     4     H       0.023600  -0.307472  -0.217229
     5     C      -0.049359   0.514812  -0.248526
     6     H       0.009134  -0.001988  -0.006753
     7     H      -0.018349   0.185365   0.093257
     8     H       0.007340   0.002559   0.005147
     9     H       0.014805   0.011711  -0.003689
    10     O       0.034013  -0.331455   0.169702
    11     H      -0.019517  -0.168908   0.155165
    12     H       0.014151  -0.442079  -0.225931
 
 Mode:    30      Frequency (cm-1):     2822.6791     Intensity (km/mol):      182.0896
 Index  Atom      ---- Displacements (x/y/z) ----
     1     C       0.000080   0.001089  -0.002272
     2     C      -0.000010   0.000234   0.000034
     3     C      -0.000053   0.000056  -0.000050
     4     H       0.000169  -0.028290   0.032984
     5     C       0.003159   0.002592   0.082009
     6     H       0.000056   0.000453   0.000105
     7     H       0.000426   0.003594  -0.006129
     8     H      -0.000163  -0.000342   0.000546
     9     H       0.000107  -0.000889  -0.000548
    10     O       0.000282  -0.002936   0.000973
    11     H       0.000073  -0.000208   0.002775
    12     H      -0.042946   0.025000  -0.994396
 
 Mode:    31      Frequency (cm-1):     3065.9385     Intensity (km/mol):        0.0501
 Index  Atom      ---- Displacements (x/y/z) ----
     1     C       0.000083  -0.000314   0.000132
     2     C      -0.000349   0.000113   0.002270
     3     C      -0.011123  -0.002038  -0.007222
     4     H      -0.000168   0.004265  -0.002951
     5     C       0.000042  -0.000228  -0.000072
     6     H       0.073816   0.578448  -0.076522
     7     H       0.001965   0.020578  -0.014434
     8     H      -0.127479  -0.210020   0.542667
     9     H       0.183898  -0.344497  -0.381242
    10     O      -0.000018   0.000103  -0.000034
    11     H       0.003352  -0.021186  -0.009767
    12     H       0.000009   0.000137   0.001036
 
 Mode:    32      Frequency (cm-1):     3107.9231     Intensity (km/mol):       12.6348
 Index  Atom      ---- Displacements (x/y/z) ----
     1     C       0.001268  -0.056020   0.039461
     2     C      -0.006983   0.009634   0.032733
     3     C       0.000537  -0.000177  -0.000259
     4     H      -0.013954   0.657349  -0.480652
     5     C       0.000117   0.000636   0.004239
     6     H      -0.001253  -0.013461   0.001925
     7     H       0.022269   0.290307  -0.206455
     8     H       0.002781   0.004621  -0.011443
     9     H      -0.005715   0.010717   0.012124
    10     O      -0.000075   0.000313  -0.000503
    11     H       0.058379  -0.405541  -0.184131
    12     H      -0.001057  -0.002129  -0.030378
 
 Mode:    33      Frequency (cm-1):     3118.2205     Intensity (km/mol):        5.9939
 Index  Atom      ---- Displacements (x/y/z) ----
     1     C       0.000711  -0.037633   0.033689
     2     C       0.010148   0.000047  -0.056344
     3     C      -0.001099   0.000132   0.000191
     4     H      -0.009708   0.445108  -0.326517
     5     C      -0.000081   0.002310   0.002748
     6     H       0.001689   0.014795  -0.001614
     7     H      -0.039005  -0.507211   0.362444
     8     H      -0.002748  -0.004619   0.011545
     9     H       0.006686  -0.012336  -0.013514
    10     O       0.000007  -0.000347   0.000211
    11     H      -0.071671   0.491999   0.224799
    12     H      -0.000600  -0.003787  -0.025739
 
 Mode:    34      Frequency (cm-1):     3211.9042     Intensity (km/mol):        0.8510
 Index  Atom      ---- Displacements (x/y/z) ----
     1     C       0.000147  -0.006824   0.005255
     2     C       0.003999  -0.098863   0.008515
     3     C       0.001350   0.006341  -0.004221
     4     H      -0.001622   0.069285  -0.052603
     5     C      -0.000007   0.000037   0.000304
     6     H      -0.007355  -0.054971   0.006199
     7     H       0.044777   0.552195  -0.415483
     8     H      -0.009611  -0.016864   0.046648
     9     H       0.000644  -0.000394  -0.002756
    10     O      -0.000017   0.000234  -0.000189
    11     H      -0.092254   0.630304   0.302343
    12     H       0.000326  -0.000810   0.001325
 
 Mode:    35      Frequency (cm-1):     3240.6124     Intensity (km/mol):        2.9321
 Index  Atom      ---- Displacements (x/y/z) ----
     1     C       0.000030  -0.000426   0.000312
     2     C       0.000311  -0.007346   0.000742
     3     C      -0.021929  -0.070723   0.066071
     4     H      -0.000022   0.004981  -0.003997
     5     C      -0.000004  -0.000059   0.000035
     6     H       0.089767   0.657491  -0.071881
     7     H       0.004278   0.043550  -0.032007
     8     H       0.146211   0.247594  -0.670612
     9     H       0.023849  -0.064646  -0.042773
    10     O      -0.000009   0.000044  -0.000028
    11     H      -0.006875   0.045634   0.022103
    12     H       0.000028   0.000024  -0.000040
 
 Mode:    36      Frequency (cm-1):     3252.8477     Intensity (km/mol):        1.5664
 Index  Atom      ---- Displacements (x/y/z) ----
     1     C       0.000093   0.000028  -0.000126
     2     C      -0.000073   0.001030   0.000339
     3     C      -0.024348   0.069938   0.066804
     4     H      -0.000100  -0.000380   0.000323
     5     C       0.000039  -0.000058  -0.000059
     6     H      -0.066508  -0.433679   0.067341
     7     H      -0.000796  -0.002004   0.001573
     8     H       0.061060   0.126005  -0.285187
     9     H       0.292896  -0.522883  -0.576805
    10     O       0.000007   0.000010   0.000008
    11     H       0.002680  -0.011830  -0.005006
    12     H      -0.000133  -0.000038   0.000381

PES point character: Geometry corresponds to a transition state.
                     (Hint: Very small negative frequencies do not count towards being a
                     transition state, as they usually indicate noise on a very flat PES. See
                     the PESPointCharacter%NegativeFrequenciesTolerance keyword documentation.)




 ============================
 Statistical Thermal Analysis  ***  ideal gas assumed  ***
 ============================
  
 Pressure:                  1.000000 atm.
 Temperature:             298.150000 K



 Moments of Inertia [amu*bohr^2] and principal axis
 ==================================================

         237.3423        687.3280        802.2344
 ------------------------------------------------
           0.4746         -0.6350         -0.6096
           0.5652          0.7507         -0.3420
           0.6748         -0.1822          0.7151


 The rotational contribution to the molecular entropy includes
 a term, dependent on the symmetry number sigma. The results 
 reported below were computed using sigma = 1, determined from
 the point group symmetry of the input geometry (NOSYM). 
 If this is not the correct symmetry, try symmetrizing the molecule before
 running the calculation (note: linear molecules should be aligned along one
 of the Cartesian axes).
 Contributions from frequencies below 20 1/cm are not included in vibrational sums.
 Their contributions, if any, are reported separately.


     Temp                                                        Transl      Rotat     Vibrat     Total
     ----                                                        ------      -----     ------     -----

     298.15   Entropy (cal/mol-K):                               38.699     26.373     19.842     84.914
              Nuclear Internal Energy (kcal/mol):                 0.889      0.889     60.455     62.232
              Constant Volume Heat Capacity (cal/mol-K):          2.981      2.981     17.773     23.735
          (c) Constant Volume Heat Capacity (cal/mol-K):          2.981      2.981     15.758     21.719

       Summary of energy terms
                                                   hartree              eV         kcal/mol           kJ/mol
                                      --------------------     -----------       ----------      -----------
      Energy from Engine:               -2.325678849771081        -63.2849         -1459.39         -6106.07
      Nuclear Internal Energy:           0.099173311008131          2.6986            62.23           260.38
  (c) Nuclear Internal Energy:           0.098164046065920          2.6712            61.60           257.73
      Internal Energy U:                -2.226505538762950        -60.5863         -1397.15         -5845.69
      pV/n = RT:                         0.000944186013486          0.0257             0.59             2.48
      Enthalpy H:                       -2.225561352749464        -60.5606         -1396.56         -5843.21
      -T*S:                             -0.040345558196992         -1.0979           -25.32          -105.93
  (c) -T*S:                             -0.039123581309251         -1.0646           -24.55          -102.72
      Gibbs free energy:                -2.265906910946456        -61.6585         -1421.88         -5949.14
 
 
 
  (c) The properties marked with this symbol have been corrected using 'low vibrational frequency free rotor
      interpolation corrections'. For those terms all positive frequencies are used (also ones below 20 1/cm),
      but the contribution to the partition function of small vibrational frequencies is modified as described
      in the following paper:
      S. Grimme, 'Supramolecular Binding Thermodynamics by Dispersion-Corrected Density Functional Theory'
      (Chem. Eur. J. 2012, 18, 9955-9964)
      Configuration: Dampener Frequency          :   100.000 1/cm
                     Dampener Alpha              :     4.000
                     Averaging Moment of Inertia : 1.000E-44 kg m2

--------------
Atomic charges
--------------
  Index   Atom    Charge
      1      C    0.1875
      2      C    0.4770
      3      C    0.5179
      4      H   -0.2178
      5      C    0.6389
      6      H   -0.1608
      7      H   -0.1686
      8      H   -0.1642
      9      H   -0.1372
     10      O   -0.5006
     11      H   -0.2064
     12      H   -0.2655


Dipole moment vector    (Debye):    -0.34550400   -3.00106645   -0.56422028
              magnitude (Debye):     3.07312827


Final PES point is a transition state. Transition state search successful!


AMS application finished. Exiting.
NORMAL TERMINATION
     Total cpu time:    8762.35
  Total system time:      81.15
 Total elapsed time:   17737.30
 WARNING: total elapsed time is much higher than the (CPU+system) time. 
 Make sure the machine is not oversubscribed and has enough memory, SCM_TMPDIR p
 oints to a fast file system, and the network is fast enough.
