

 Parallel Execution: Process Information
 ==============================================================================
 Rank   Node Name                              NodeID   MyNodeRank  NodeMaster
    0   node120                                   0          0          0
    1   node120                                   0          1         -1
    2   node120                                   0          2         -1
    3   node120                                   0          3         -1
 ==============================================================================


May use up to 122928MB of RAM as shared memory on node 0

 *******************************************************************************
 *                                                                             *
 *  --------------------------------                                           *
 *   Amsterdam Modeling Suite (AMS)              2021.102                      *
 *  --------------------------------                                           *
 *                                               r95042 2021-06-07             *
 *                                                                             *
 *                                                                             *
 *                              =================                              *
 *                              |               |                              *
 *                              |     A M S     |                              *
 *                              |               |                              *
 *                              =================                              *
 *                                                                             *
 *                                                                             *
 *   Online information and documentation:  https://www.scm.com/support/       *
 *   E-mail:  support@scm.com   info@scm.com                                   *
 *                                                                             *
 *   Scientific publications using AMS results must be properly referenced     *
 *   See the User Manuals (or the web site) for recommended citations          *
 *   The terms and conditions of the End User License Agreement apply to       *
 *   the use of AMS, https://www.scm.com/license-terms/                        *
 *                                                                             *
 **********************  x86_64_linux_intel / intelmpi  ************************
 
 Licensed to: VU/FEW (+ SARA) / ALGEMEEN / Amsterdam / THE NETHERLANDS
 SCM User ID: u7668
  
 AMS 2021.102  RunTime: Jan29-2022 12:04:19  ShM Nodes: 1  Procs: 4

 AMS jobname: 35.achiral_catalyst.H_tBu_AlF3.P1
 AMS jobid  : 1433761774

 Start   directory: /scistor/tc/yhk800/MasterProject/calculations/achiral_catalyst_H_tBu_AlF3/35.achiral_catalyst.H_tBu_AlF3.P1/
 Results directory: /scistor/tc/yhk800/MasterProject/calculations/achiral_catalyst_H_tBu_AlF3/35.achiral_catalyst.H_tBu_AlF3.P1/
 Scratch directory: /scratch/5502/amstmp_35.achiral_catalyst.H_tBu_AlF3.P1_kid0.1433761774/


 Communication costs MPI_COMM_WORLD:      0.745 usec per message,   0.0100 usec per 8-byte item
 Communication costs for intra-node:      0.201 usec per message,   0.0095 usec per 8-byte item

 RNG seed: -575671788 55068802 1792416311 2055578868 2055248231 -1505831719 -627777384 791253016



                      ************************************************************************
                      *  ADF 2021.102  RunTime: Jan29-2022 12:04:20  ShM Nodes: 1  Procs: 4  *
                      ************************************************************************
  
       ***************************
       *  GEOMETRY OPTIMIZATION  *
       ***************************

Optimization Method                    Quasi Newton
Optimization Coordinates               Delocalized Coordinates
Optimize lattice                       F
 
 ------------------------------------------------------
 Convergence criteria (Hartree,Angstrom)
 ------------------------------------------------------
 Maximum gradient               0.001000000000
 Maximum rms gradient           0.000666666667
 Maximum step allowed           0.010000000000
 Maximum rms step allowed       0.006666666667
 Maximum energy change allowe   0.000280000000
 Maximum stress energy allowe   0.000500000000
 
Initial model Hessian                  Automatic Hessian
 
------------------------------------
Quasi-Newton Optimizer Parameters
------------------------------------
Hessian Update Method                  BFGS
Maximum number of steps                  250
First GDIIS cycle                          0
Maximum GDIIS vectors                      0
Trust radius (bohr)                        0.200000
Trust radius varies                        T
Constraints converged at all steps         T
Use projector                              T
 
 Rigid motions settings for: old optimizer
 Atomic rotations (x,y,z):     T T T
 Atomic translations (x,y,z):  T T T
 Tolerance:                   1.000000000000000E-006
 
--------
Geometry
--------
Formula: C8H15AlF3O
Atoms
  Index Symbol   x (angstrom)   y (angstrom)   z (angstrom)
      1      H     0.30883566    -1.71322737     0.34845077
      2      C    -0.85933175     0.07325638     0.95361639
      3      C     0.30566658    -0.62207952     0.35697327
      4      C     1.44363467     0.02246096    -0.23005168
      5      O     2.41991567    -0.55928782    -0.73004528
      6      H    -0.69195270     1.15283717     0.94428296
      7      H    -2.09949902     0.10683830     2.73788510
      8      H    -0.38777363    -0.20492454     3.06899219
      9      C    -1.20706757    -0.41125312     2.37345100
     10      H    -1.40849480    -1.48746718     2.39475159
     11      C    -1.70937506     0.20354156    -1.38496935
     12      C    -2.07744753    -0.18985427     0.04886961
     13      C    -3.24807681     0.65887181     0.55426345
     14      C    -2.42346101    -1.68006514     0.12422237
     15      H    -2.66121687    -1.96192776     1.15056780
     16      H    -2.55085832     0.03060734    -2.05797047
     17      H    -0.86007945    -0.38556238    -1.73283836
     18      H    -1.44001103     1.25935324    -1.43040126
     19      H    -4.13281786     0.49873837    -0.06421966
     20      H    -2.98931684     1.71782142     0.52219591
     21      H    -3.49151556     0.39312814     1.58357255
     22      H    -3.28501950    -1.90595353    -0.50635057
     23      H    -1.57908657    -2.28215009    -0.21324594
     24      H     2.13175883    -0.63340533    -0.72119785
     25     Al     1.54062743     0.82456511    -0.28082009
     26      F     1.11198776     0.10330154     1.10206069
     27      F     0.61499631     0.66385211    -1.59751699
     28      F     2.89489823     1.70654167    -0.34700398
 
Total System Charge             0.00000
 
 
----------------
ADF Engine Input
----------------
 
 NumericalQuality VeryGood
 SCF
 Converge 1.0e-6
 Iterations 99
 End
 SYMMETRY NOSYM
 SpinPolarization 1.0
 Unrestricted Yes
 XC
 GGA OLYP
 End
 basis
 core None
 type TZ2P
 End
 

 Title: *** (NO TITLE) ***

 Using automatic Hessian for delocalized coordinates.
 *** GOStep1 ***

 Energy gradients wrt nuclear displacements
 ==========================================

     Atom      Cartesian (a.u./angstrom)
                 X         Y         Z
 ----------------------------------------
     1 H    -0.017662  0.004037 -0.034842
     2 C     0.172912  0.026342  0.059767
     3 C     0.185050  0.242621  0.062631
     4 C     0.781688  7.446862 -0.182353
     5 O   -29.167119 -7.739495  0.805654
     6 H    -0.005953 -0.003432  0.000739
     7 H    -0.011264 -0.000265  0.001174
     8 H     0.002374  0.000241 -0.005464
     9 C    -0.043224  0.002404 -0.015035
    10 H    -0.006415 -0.009436 -0.005964
    11 C     0.043938  0.012341 -0.000127
    12 C     0.024725 -0.005484  0.006904
    13 C     0.005180  0.006028  0.006323
    14 C     0.013032 -0.002376  0.005742
    15 H     0.008529  0.008864  0.008061
    16 H     0.008075  0.000181  0.002175
    17 H     0.026493  0.002414  0.006048
    18 H     0.005649  0.004043  0.005728
    19 H     0.004627 -0.001865  0.000590
    20 H     0.002318 -0.006048 -0.000050
    21 H     0.012471 -0.004560  0.003325
    22 H     0.001038  0.004055  0.002655
    23 H     0.003796  0.009567  0.004363
    24 H    28.888424  8.283909 -0.390913
    25 Al   -0.948553 -7.879805  0.552346
    26 F    -0.012637 -0.187677 -1.182919
    27 F     0.063860 -0.172782  0.286247
    28 F    -0.041352 -0.040683 -0.002804
 ----------------------------------------
 Mulliken charges used for AMS results%charges...
 
----------------------------------------------------------------------
Geometry Convergence after Step   1       (Hartree/Angstrom,Angstrom)
----------------------------------------------------------------------
current energy                                1.60486855 Hartree
energy change                       1.60486855     0.00028000    F
constrained gradient max           29.16708451     0.00100000    F
constrained gradient rms            4.80039265     0.00066667    F
gradient max                       29.16708451
gradient rms                        4.80039265
cart. step max                      0.03631605     0.01000000    F
cart. step rms                      0.00513187     0.00666667    T
 
 
--------
Geometry
--------
Formula: C8H15AlF3O
Atoms
  Index Symbol   x (angstrom)   y (angstrom)   z (angstrom)
      1      H     0.30963476    -1.71415152     0.34898117
      2      C    -0.85932631     0.07282992     0.95358030
      3      C     0.30629887    -0.62298107     0.35735659
      4      C     1.44414388     0.01840329    -0.22945690
      5      O     2.45623172    -0.55375706    -0.73082596
      6      H    -0.69179271     1.15241215     0.94429518
      7      H    -2.09956915     0.10627342     2.73776995
      8      H    -0.38796020    -0.20556398     3.06906269
      9      C    -1.20717715    -0.41180993     2.37339099
     10      H    -1.40861307    -1.48796236     2.39467487
     11      C    -1.71150260     0.20315653    -1.38558661
     12      C    -2.07847872    -0.18990764     0.04854925
     13      C    -3.24851205     0.65950546     0.55450018
     14      C    -2.42511141    -1.68012032     0.12386615
     15      H    -2.66256873    -1.96219091     1.15020292
     16      H    -2.55373178     0.03041632    -2.05777469
     17      H    -0.86287613    -0.38628571    -1.73420168
     18      H    -1.44180746     1.25883298    -1.43149661
     19      H    -4.13364617     0.49980270    -0.06356965
     20      H    -2.98924672     1.71835726     0.52224215
     21      H    -3.49175374     0.39405949     1.58392408
     22      H    -3.28707103    -1.90553715    -0.50635878
     23      H    -1.58121512    -2.28262941    -0.21410830
     24      H     2.10725686    -0.64200700    -0.71827681
     25     Al     1.54369837     0.82991388    -0.28141415
     26      F     1.11277492     0.10285981     1.10471796
     27      F     0.61484532     0.66273902    -1.59787724
     28      F     2.89699483     1.71389889    -0.34864288
 
Total System Charge             0.00000
 
 *** GOStep2 ***

 Energy gradients wrt nuclear displacements
 ==========================================

     Atom      Cartesian (a.u./angstrom)
                 X         Y         Z
 ----------------------------------------
     1 H    -0.015590  0.005134 -0.035734
     2 C     0.172572  0.024772  0.059963
     3 C     0.174779  0.245924  0.062352
     4 C     0.769192  7.117659 -0.174177
     5 O   -17.313806 -4.530495  0.601735
     6 H    -0.005713 -0.003543  0.000634
     7 H    -0.011165 -0.000205  0.001164
     8 H     0.002364  0.000259 -0.005364
     9 C    -0.043206  0.002199 -0.014930
    10 H    -0.006514 -0.009344 -0.005902
    11 C     0.043610  0.012363 -0.000314
    12 C     0.024136 -0.005301  0.006580
    13 C     0.005017  0.006041  0.006288
    14 C     0.012904 -0.002422  0.005755
    15 H     0.008435  0.008830  0.008011
    16 H     0.007843  0.000190  0.002134
    17 H     0.026163  0.002459  0.006103
    18 H     0.005504  0.003957  0.005783
    19 H     0.004494 -0.001849  0.000586
    20 H     0.002236 -0.006013 -0.000051
    21 H     0.012345 -0.004533  0.003322
    22 H     0.000949  0.004021  0.002635
    23 H     0.003691  0.009488  0.004294
    24 H    17.036361  5.079847 -0.184809
    25 Al   -0.932327 -7.546548  0.522754
    26 F    -0.008282 -0.194546 -1.162555
    27 F     0.064677 -0.173012  0.287302
    28 F    -0.040668 -0.045333 -0.003557
 ----------------------------------------
 Mulliken charges used for AMS results%charges...

 dE(predicted):    -0.19456E+01, dE(actual):    -0.15379E+01, Trust radius:    0.400000, all in a.u.
 
----------------------------------------------------------------------
Geometry Convergence after Step   2       (Hartree/Angstrom,Angstrom)
----------------------------------------------------------------------
current energy                                0.06694934 Hartree
energy change                      -1.53791921     0.00028000    F
constrained gradient max           17.31378891     0.00100000    F
constrained gradient rms            2.98359635     0.00066667    F
gradient max                       17.31378891
gradient rms                        2.98359635
cart. step max                      0.07472642     0.01000000    F
cart. step rms                      0.01249685     0.00666667    F
 
 
--------
Geometry
--------
Formula: C8H15AlF3O
Atoms
  Index Symbol   x (angstrom)   y (angstrom)   z (angstrom)
      1      H     0.31655721    -1.71819397     0.35337500
      2      C    -0.85913729     0.07085173     0.95333211
      3      C     0.31187423    -0.62681512     0.36030139
      4      C     1.45152826    -0.00273373    -0.22596317
      5      O     2.53095814    -0.55620141    -0.73015026
      6      H    -0.69153848     1.15058212     0.94410865
      7      H    -2.09991145     0.10260935     2.73699455
      8      H    -0.38878519    -0.20834824     3.06947918
      9      C    -1.20734895    -0.41476136     2.37300328
     10      H    -1.40800344    -1.49069567     2.39424649
     11      C    -1.72441139     0.20074306    -1.38931778
     12      C    -2.08436439    -0.19040444     0.04668033
     13      C    -3.25125552     0.66248967     0.55595600
     14      C    -2.43383600    -1.68082489     0.12186656
     15      H    -2.66929208    -1.96428594     1.14815513
     16      H    -2.57109115     0.02859775    -2.05646015
     17      H    -0.87952871    -0.39027627    -1.74248408
     18      H    -1.45337001     1.25576060    -1.43829900
     19      H    -4.13867213     0.50480290    -0.05957711
     20      H    -2.98957095     1.72089871     0.52242976
     21      H    -3.49313200     0.39880848     1.58609853
     22      H    -3.29809497    -1.90393689    -0.50620950
     23      H    -1.59249076    -2.28540447    -0.21917678
     24      H     2.07869413    -0.66527536    -0.70780083
     25     Al     1.56274455     0.86215107    -0.28526725
     26      F     1.11550575     0.10140804     1.11937720
     27      F     0.62352317     0.66154037    -1.60388166
     28      F     2.91236868     1.75547098    -0.35329242
 
Total System Charge             0.00000
 
 *** GOStep3 ***

 Energy gradients wrt nuclear displacements
 ==========================================

     Atom      Cartesian (a.u./angstrom)
                 X         Y         Z
 ----------------------------------------
     1 H    -0.009255  0.010828 -0.043620
     2 C     0.172250  0.021488  0.063431
     3 C     0.129303  0.236271  0.055864
     4 C     0.723480  5.692671 -0.175634
     5 O    -7.712782 -1.931487  0.450957
     6 H    -0.005727 -0.003590  0.001159
     7 H    -0.010762 -0.000009  0.001443
     8 H     0.002441  0.000320 -0.005015
     9 C    -0.042123  0.002834 -0.014237
    10 H    -0.006451 -0.008968 -0.005941
    11 C     0.040936  0.011749 -0.001315
    12 C     0.021234 -0.005049  0.004610
    13 C     0.004610  0.006129  0.006146
    14 C     0.012421 -0.002818  0.005631
    15 H     0.008301  0.008679  0.007698
    16 H     0.007164  0.000305  0.001906
    17 H     0.023455  0.001877  0.006521
    18 H     0.004563  0.003653  0.005939
    19 H     0.004256 -0.001777  0.000601
    20 H     0.002202 -0.005765  0.000007
    21 H     0.012141 -0.004399  0.003272
    22 H     0.000970  0.003826  0.002578
    23 H     0.003720  0.009110  0.003992
    24 H     7.432900  2.450338 -0.039265
    25 Al   -0.841465 -6.093444  0.441286
    26 F     0.001216 -0.185715 -1.068767
    27 F     0.063823 -0.166157  0.294132
    28 F    -0.042821 -0.050901 -0.003379
 ----------------------------------------
 Mulliken charges used for AMS results%charges...

 dE(predicted):    -0.17549E+01, dE(actual):    -0.16756E+01, Trust radius:    0.800000, all in a.u.
 
----------------------------------------------------------------------
Geometry Convergence after Step   3       (Hartree/Angstrom,Angstrom)
----------------------------------------------------------------------
current energy                               -1.60864299 Hartree
energy change                      -1.67559233     0.00028000    F
constrained gradient max            7.71276727     0.00100000    F
constrained gradient rms            1.53175081     0.00066667    F
gradient max                        7.71276727
gradient rms                        1.53175081
cart. step max                      0.13858743     0.01000000    F
cart. step rms                      0.03551888     0.00666667    F
 
 
--------
Geometry
--------
Formula: C8H15AlF3O
Atoms
  Index Symbol   x (angstrom)   y (angstrom)   z (angstrom)
      1      H     0.34871808    -1.73159472     0.37238552
      2      C    -0.85714601     0.06452737     0.94899271
      3      C     0.34016413    -0.63793070     0.37183976
      4      C     1.48912737    -0.06866710    -0.20807515
      5      O     2.63422392    -0.59605345    -0.71130720
      6      H    -0.69127351     1.14522401     0.93879627
      7      H    -2.09800886     0.08769278     2.73159825
      8      H    -0.38804587    -0.21540298     3.06766980
      9      C    -1.20400440    -0.42499301     2.36881448
     10      H    -1.39876222    -1.50045001     2.39145153
     11      C    -1.78145017     0.18929294    -1.40646834
     12      C    -2.10771366    -0.19313397     0.03842392
     13      C    -3.26201142     0.67270487     0.56229478
     14      C    -2.46760152    -1.68462587     0.11399079
     15      H    -2.69340297    -1.97461889     1.14012445
     16      H    -2.64796960     0.01759600    -2.04943310
     17      H    -0.95247725    -0.40720290    -1.78093340
     18      H    -1.50688244     1.24192469    -1.47075788
     19      H    -4.15930198     0.52142313    -0.04136036
     20      H    -2.99230100     1.72965718     0.52199476
     21      H    -3.49700972     0.41738060     1.59588852
     22      H    -3.34206143    -1.89875393    -0.50381891
     23      H    -1.63744204    -2.29748708    -0.24098756
     24      H     2.11361855    -0.71417296    -0.67645270
     25     Al     1.63855620     0.97265091    -0.29465427
     26      F     1.12570375     0.10062251     1.17251482
     27      F     0.68280250     0.66888923    -1.63115658
     28      F     2.98187086     1.89405841    -0.35385074
 
Total System Charge             0.00000
 
 *** GOStep4 ***

 Energy gradients wrt nuclear displacements
 ==========================================

     Atom      Cartesian (a.u./angstrom)
                 X         Y         Z
 ----------------------------------------
     1 H     0.014329  0.020574 -0.031328
     2 C     0.165227  0.029634  0.064101
     3 C     0.095598  0.205848  0.100161
     4 C     0.781529  3.917084 -0.405399
     5 O    -4.687511 -1.058910  0.371590
     6 H    -0.001253 -0.004260 -0.001393
     7 H    -0.007176  0.001472 -0.002677
     8 H     0.002767  0.000756 -0.003579
     9 C    -0.032500 -0.008887 -0.013389
    10 H    -0.007168 -0.006402 -0.003431
    11 C     0.027455  0.009694 -0.002256
    12 C     0.009235 -0.005594 -0.005998
    13 C     0.003976  0.007552  0.006618
    14 C     0.010815 -0.003744  0.004932
    15 H     0.008064  0.007435  0.006078
    16 H     0.005155 -0.000188  0.001348
    17 H     0.014119 -0.000245  0.006432
    18 H     0.002542  0.000738  0.006099
    19 H     0.003958 -0.002100  0.000690
    20 H     0.002309 -0.005424  0.000142
    21 H     0.010970 -0.003867  0.002927
    22 H     0.001554  0.002692  0.002254
    23 H     0.003165  0.006287  0.002855
    24 H     4.376210  1.564262 -0.046470
    25 Al   -0.674336 -4.424758  0.517939
    26 F    -0.119567 -0.064763 -0.810778
    27 F     0.031380 -0.122952  0.238934
    28 F    -0.040846 -0.061933 -0.006402
 ----------------------------------------
 Mulliken charges used for AMS results%charges...

 dE(predicted):    -0.13012E+01, dE(actual):    -0.14760E+01, Trust radius:    1.000000, all in a.u.
 
----------------------------------------------------------------------
Geometry Convergence after Step   4       (Hartree/Angstrom,Angstrom)
----------------------------------------------------------------------
current energy                               -3.08464848 Hartree
energy change                      -1.47600549     0.00028000    F
constrained gradient max            4.68750863     0.00100000    F
constrained gradient rms            0.98866279     0.00066667    F
gradient max                        4.68750863
gradient rms                        0.98866279
cart. step max                      0.17569485     0.01000000    F
cart. step rms                      0.03955554     0.00666667    F
 
 
--------
Geometry
--------
Formula: C8H15AlF3O
Atoms
  Index Symbol   x (angstrom)   y (angstrom)   z (angstrom)
      1      H     0.37001656    -1.75873075     0.39905827
      2      C    -0.86210942     0.05566523     0.95925897
      3      C     0.36233732    -0.65640997     0.38723081
      4      C     1.50500340    -0.13770992    -0.18750033
      5      O     2.75238024    -0.65714885    -0.70721768
      6      H    -0.70106116     1.13845787     0.94864423
      7      H    -2.09106083     0.06950202     2.75790604
      8      H    -0.37963192    -0.21966785     3.07863901
      9      C    -1.19768418    -0.43408902     2.38409197
     10      H    -1.38294348    -1.50933806     2.40824609
     11      C    -1.81213464     0.18664472    -1.41055654
     12      C    -2.13263882    -0.19723277     0.03642435
     13      C    -3.28635543     0.67568214     0.56109443
     14      C    -2.50865186    -1.68938123     0.10104812
     15      H    -2.74136101    -1.99213288     1.12151075
     16      H    -2.68613393     0.02027709    -2.04659273
     17      H    -0.99100011    -0.41047302    -1.79740313
     18      H    -1.53256171     1.23806797    -1.47983732
     19      H    -4.18376267     0.53086321    -0.04575483
     20      H    -3.01272581     1.73311117     0.52300990
     21      H    -3.53228600     0.42495847     1.59287019
     22      H    -3.38551023    -1.88816169    -0.52014674
     23      H    -1.68665685    -2.31072239    -0.25920793
     24      H     2.12332947    -0.78431646    -0.64548925
     25     Al     1.72527151     1.11201010    -0.33521012
     26      F     1.14690168     0.09423036     1.23151765
     27      F     0.72197846     0.67484832    -1.67707555
     28      F     3.06897068     2.06975327    -0.41103443
 
Total System Charge             0.00000
 
 *** GOStep5 ***

 Energy gradients wrt nuclear displacements
 ==========================================

     Atom      Cartesian (a.u./angstrom)
                 X         Y         Z
 ----------------------------------------
     1 H     0.019721  0.005832 -0.023455
     2 C     0.146566  0.031183  0.071528
     3 C     0.150063  0.208364  0.063858
     4 C     0.422888  1.409730 -0.266226
     5 O    -2.119787 -0.428068  0.207012
     6 H    -0.001322  0.000439 -0.002420
     7 H    -0.005159 -0.000050 -0.001370
     8 H     0.002633  0.000404 -0.003345
     9 C    -0.032031 -0.010188 -0.006606
    10 H    -0.005218 -0.002300 -0.002079
    11 C     0.022556  0.006106 -0.002812
    12 C    -0.002060 -0.002559 -0.013436
    13 C     0.000065  0.006355  0.006394
    14 C     0.007609 -0.006429  0.004103
    15 H     0.006852  0.005745  0.003235
    16 H     0.003606 -0.000622  0.000871
    17 H     0.009004  0.000597  0.005544
    18 H     0.002064  0.000207  0.004898
    19 H     0.002329 -0.001763  0.000643
    20 H     0.002269 -0.003809  0.000300
    21 H     0.008834 -0.002449  0.001239
    22 H     0.000571  0.002154  0.001711
    23 H     0.002391  0.005258  0.002972
    24 H     1.865958  0.864146  0.038394
    25 Al   -0.343017 -1.890788  0.338467
    26 F    -0.158132 -0.069574 -0.568682
    27 F     0.004405 -0.096979  0.140992
    28 F    -0.013659 -0.030941 -0.001729
 ----------------------------------------
 Mulliken charges used for AMS results%charges...

 dE(predicted):    -0.11599E+01, dE(actual):    -0.11190E+01, Trust radius:    1.000000, all in a.u.
 
----------------------------------------------------------------------
Geometry Convergence after Step   5       (Hartree/Angstrom,Angstrom)
----------------------------------------------------------------------
current energy                               -4.20362109 Hartree
energy change                      -1.11897261     0.00028000    F
constrained gradient max            2.11978333     0.00100000    F
constrained gradient rms            0.42926897     0.00066667    F
gradient max                        2.11978333
gradient rms                        0.42926897
cart. step max                      0.21184560     0.01000000    F
cart. step rms                      0.06400885     0.00666667    F
 
 
--------
Geometry
--------
Formula: C8H15AlF3O
Atoms
  Index Symbol   x (angstrom)   y (angstrom)   z (angstrom)
      1      H     0.39347249    -1.77214997     0.43368707
      2      C    -0.86855619     0.04465274     0.93323990
      3      C     0.39750461    -0.66736018     0.40471758
      4      C     1.57852452    -0.14265978    -0.13939831
      5      O     2.96422583    -0.67326990    -0.65433617
      6      H    -0.71832542     1.12838331     0.92151149
      7      H    -2.06171129     0.04530710     2.75513222
      8      H    -0.34532416    -0.20604419     3.04995262
      9      C    -1.16699146    -0.44144129     2.36667719
     10      H    -1.32567240    -1.51963495     2.40242814
     11      C    -1.94257544     0.16007002    -1.44521773
     12      C    -2.17812736    -0.20786167     0.02224659
     13      C    -3.31264423     0.68129883     0.57062776
     14      C    -2.58152705    -1.69709288     0.08676321
     15      H    -2.79925223    -2.01639997     1.10584932
     16      H    -2.85962484    -0.00845129    -2.01942406
     17      H    -1.15681044    -0.44461854    -1.88635430
     18      H    -1.66510201     1.20901457    -1.55251476
     19      H    -4.22540014     0.54006820    -0.01545415
     20      H    -3.03524439     1.73848832     0.51577813
     21      H    -3.54927883     0.44944100     1.60928652
     22      H    -3.47930059    -1.87069585    -0.51318489
     23      H    -1.78847002    -2.33826244    -0.30527397
     24      H     2.24833804    -0.83402168    -0.59572958
     25     Al     1.86567075     1.19888356    -0.32449753
     26      F     1.18554366     0.11809157     1.33265151
     27      F     0.88024126     0.73588356    -1.71944622
     28      F     3.21633657     2.16893885    -0.37219342
 
Total System Charge             0.00000
 
 *** GOStep6 ***

 Energy gradients wrt nuclear displacements
 ==========================================

     Atom      Cartesian (a.u./angstrom)
                 X         Y         Z
 ----------------------------------------
     1 H     0.017191 -0.002827 -0.015541
     2 C     0.104306  0.038436  0.060295
     3 C     0.109286  0.143088  0.055743
     4 C     0.344801  0.801191 -0.217400
     5 O    -1.080235 -0.243837  0.116419
     6 H    -0.002440 -0.001718 -0.000706
     7 H    -0.001473  0.000949 -0.002967
     8 H     0.003188  0.000326 -0.000598
     9 C    -0.018220 -0.012203 -0.007759
    10 H    -0.002911 -0.000149 -0.000713
    11 C     0.006212 -0.000816 -0.002545
    12 C    -0.010067  0.002827 -0.016306
    13 C    -0.000563  0.004815  0.003208
    14 C     0.004289 -0.005604  0.000248
    15 H     0.004742  0.003324  0.000813
    16 H     0.000739 -0.001083 -0.000051
    17 H    -0.002565  0.001318  0.005211
    18 H    -0.000770 -0.002050  0.003666
    19 H     0.000773 -0.001313  0.000862
    20 H     0.001736 -0.002149  0.000460
    21 H     0.006005 -0.001121  0.000589
    22 H     0.000238  0.001030  0.001267
    23 H     0.001053  0.002535  0.002161
    24 H     0.870205  0.560907  0.067771
    25 Al   -0.278138 -1.105358  0.283492
    26 F    -0.091202 -0.062717 -0.417219
    27 F     0.000282 -0.092291  0.089204
    28 F     0.013539 -0.025509 -0.009604
 ----------------------------------------
 Mulliken charges used for AMS results%charges...
 Rebuilding optimization coordinates

 dE(predicted):    -0.39424E+00, dE(actual):    -0.41161E+00, Trust radius:    1.000000, all in a.u.
 
----------------------------------------------------------------------
Geometry Convergence after Step   6       (Hartree/Angstrom,Angstrom)
----------------------------------------------------------------------
current energy                               -4.61523053 Hartree
energy change                      -0.41160944     0.00028000    F
constrained gradient max            1.10534525     0.00100000    F
constrained gradient rms            0.23807295     0.00066667    F
gradient max                        1.10534525
gradient rms                        0.23807295
cart. step max                      0.21160038     0.01000000    F
cart. step rms                      0.07936291     0.00666667    F
 
 
--------
Geometry
--------
Formula: C8H15AlF3O
Atoms
  Index Symbol   x (angstrom)   y (angstrom)   z (angstrom)
      1      H     0.29825557    -1.78539831     0.49044699
      2      C    -0.91259148     0.03242404     1.01746431
      3      C     0.33998951    -0.68459501     0.44852917
      4      C     1.51138173    -0.18734303    -0.16601820
      5      O     3.00430607    -0.72975000    -0.84499170
      6      H    -0.76921760     1.11849002     0.99833116
      7      H    -2.05143022     0.04084129     2.88940543
      8      H    -0.32965950    -0.18254249     3.12664396
      9      C    -1.16474639    -0.43420978     2.46943720
     10      H    -1.30623211    -1.51426030     2.52179483
     11      C    -1.80159609     0.18673791    -1.37610227
     12      C    -2.18650546    -0.22159265     0.05584385
     13      C    -3.37099982     0.65169850     0.52673164
     14      C    -2.60826755    -1.70963645     0.06528704
     15      H    -2.91046926    -2.05547704     1.05535691
     16      H    -2.65681266     0.03950175    -2.04407327
     17      H    -0.96848140    -0.40265918    -1.76172800
     18      H    -1.50969216     1.23863099    -1.43435344
     19      H    -4.22925680     0.51212302    -0.13822007
     20      H    -3.10470081     1.71450056     0.50861010
     21      H    -3.70443844     0.41028346     1.53697537
     22      H    -3.46042212    -1.86026518    -0.60494908
     23      H    -1.79723832    -2.35623918    -0.28235453
     24      H     2.19661980    -0.96337886    -0.72658458
     25     Al     1.89842902     1.27630579    -0.43317816
     26      F     1.24105426     0.13984098     1.42853723
     27      F     0.78372362     0.85164151    -1.77552394
     28      F     3.23891789     2.25288472    -0.58379380
 
Total System Charge             0.00000
 
 *** GOStep7 ***

 Energy gradients wrt nuclear displacements
 ==========================================

     Atom      Cartesian (a.u./angstrom)
                 X         Y         Z
 ----------------------------------------
     1 H     0.008704 -0.003597 -0.013357
     2 C     0.064321  0.032896  0.045705
     3 C     0.073664  0.080758  0.015092
     4 C     0.190094  0.300475 -0.167328
     5 O    -0.394720 -0.122996  0.083698
     6 H    -0.005535  0.000613  0.000387
     7 H     0.003226 -0.001055  0.001039
     8 H     0.000106 -0.000523  0.001273
     9 C    -0.006943 -0.005538  0.002244
    10 H    -0.000076  0.002259 -0.000544
    11 C     0.017804  0.004980 -0.000236
    12 C    -0.011414  0.000666 -0.015424
    13 C    -0.005694  0.000365  0.002870
    14 C    -0.001317 -0.005068  0.002181
    15 H     0.001741 -0.000142 -0.001422
    16 H     0.001484 -0.000341  0.000665
    17 H     0.008864 -0.000487  0.000449
    18 H     0.003397  0.003251  0.000474
    19 H    -0.000416 -0.000847  0.000999
    20 H     0.001293 -0.000489  0.000481
    21 H     0.001118  0.001898 -0.001810
    22 H    -0.000651  0.000332  0.000861
    23 H     0.002378  0.001791  0.001642
    24 H     0.290797  0.305148  0.031651
    25 Al   -0.160014 -0.458851  0.222042
    26 F    -0.072714 -0.029395 -0.239026
    27 F    -0.031724 -0.087825  0.042290
    28 F     0.022227 -0.018277 -0.016897
 ----------------------------------------
 Mulliken charges used for AMS results%charges...

 dE(predicted):    -0.27538E+00, dE(actual):    -0.31002E+00, Trust radius:    1.000000, all in a.u.
 
----------------------------------------------------------------------
Geometry Convergence after Step   7       (Hartree/Angstrom,Angstrom)
----------------------------------------------------------------------
current energy                               -4.92525447 Hartree
energy change                      -0.31002394     0.00028000    F
constrained gradient max            0.45883837     0.00100000    F
constrained gradient rms            0.10306024     0.00066667    F
gradient max                        0.45883837
gradient rms                        0.10306024
cart. step max                      0.21246672     0.01000000    F
cart. step rms                      0.05762912     0.00666667    F
 
 
--------
Geometry
--------
Formula: C8H15AlF3O
Atoms
  Index Symbol   x (angstrom)   y (angstrom)   z (angstrom)
      1      H     0.28934549    -1.77658759     0.48473559
      2      C    -0.91059234     0.02260062     0.98174857
      3      C     0.36047372    -0.67913736     0.44541164
      4      C     1.55282398    -0.18628920    -0.13672213
      5      O     3.10091519    -0.74095218    -0.87279266
      6      H    -0.76709191     1.10891575     0.95654027
      7      H    -2.08834380     0.04052060     2.82902465
      8      H    -0.36681985    -0.15582170     3.10220392
      9      C    -1.18524610    -0.42714699     2.43347836
     10      H    -1.31468500    -1.50916741     2.49690721
     11      C    -1.90523275     0.14113878    -1.41612933
     12      C    -2.20190003    -0.23933330     0.04318991
     13      C    -3.36143460     0.64772493     0.54615328
     14      C    -2.63767810    -1.72195736     0.09155684
     15      H    -2.90728169    -2.05010723     1.09816140
     16      H    -2.80154423    -0.01802453    -2.02567916
     17      H    -1.09938807    -0.45421273    -1.84631025
     18      H    -1.62118805     1.19152927    -1.51543127
     19      H    -4.24119686     0.50737724    -0.09028598
     20      H    -3.09288469     1.70981574     0.50750219
     21      H    -3.66516077     0.41734704     1.56945830
     22      H    -3.51741261    -1.87002547    -0.54304797
     23      H    -1.85333051    -2.38785264    -0.28081823
     24      H     2.25298189    -1.00502974    -0.75900904
     25     Al     2.03847155     1.31345700    -0.39569796
     26      F     1.27507750     0.14585930     1.50615495
     27      F     0.95679109     1.06410823    -1.76423975
     28      F     3.38145081     2.28980801    -0.47853917
 
Total System Charge             0.00000
 
 *** GOStep8 ***

 Energy gradients wrt nuclear displacements
 ==========================================

     Atom      Cartesian (a.u./angstrom)
                 X         Y         Z
 ----------------------------------------
     1 H     0.003882 -0.000812 -0.008730
     2 C     0.049587  0.016399  0.041368
     3 C     0.057776  0.076284  0.018632
     4 C     0.141546  0.195571 -0.135021
     5 O    -0.212437 -0.087462  0.041355
     6 H    -0.004160  0.001517  0.000215
     7 H     0.000129 -0.000101  0.002052
     8 H     0.000137 -0.000390  0.001117
     9 C    -0.008417 -0.002281 -0.001678
    10 H    -0.000962  0.000965 -0.001234
    11 C     0.004732 -0.001275 -0.000061
    12 C    -0.010758  0.004065 -0.012828
    13 C    -0.001535 -0.001107  0.001673
    14 C     0.000408 -0.002466  0.001249
    15 H     0.001244 -0.000261  0.000719
    16 H    -0.000461  0.000189  0.000058
    17 H     0.000424  0.000764  0.001203
    18 H    -0.000043  0.000897  0.000006
    19 H    -0.000486 -0.000561  0.000612
    20 H     0.000658  0.000406  0.000225
    21 H     0.001291  0.000944  0.000884
    22 H    -0.000629  0.000318  0.000469
    23 H     0.001289  0.000960  0.000995
    24 H     0.163921  0.219489  0.040285
    25 Al   -0.137904 -0.306962  0.182293
    26 F    -0.053088 -0.023952 -0.183043
    27 F    -0.014656 -0.076552  0.026430
    28 F     0.018514 -0.014585 -0.019245
 ----------------------------------------
 Mulliken charges used for AMS results%charges...

 dE(predicted):    -0.87365E-01, dE(actual):    -0.94402E-01, Trust radius:    1.000000, all in a.u.
 
----------------------------------------------------------------------
Geometry Convergence after Step   8       (Hartree/Angstrom,Angstrom)
----------------------------------------------------------------------
current energy                               -5.01965652 Hartree
energy change                      -0.09440205     0.00028000    F
constrained gradient max            0.30695098     0.00100000    F
constrained gradient rms            0.07013885     0.00066667    F
gradient max                        0.30695098
gradient rms                        0.07013885
cart. step max                      0.21195537     0.01000000    F
cart. step rms                      0.06822592     0.00666667    F
 
 
--------
Geometry
--------
Formula: C8H15AlF3O
Atoms
  Index Symbol   x (angstrom)   y (angstrom)   z (angstrom)
      1      H     0.20286139    -1.78510116     0.52998682
      2      C    -0.94247482     0.01170880     1.04745800
      3      C     0.30288768    -0.69111262     0.48894171
      4      C     1.45993673    -0.20685334    -0.14396105
      5      O     3.02126436    -0.78024485    -1.04558455
      6      H    -0.79523146     1.09671944     1.01139399
      7      H    -2.07936940     0.04674655     2.91496828
      8      H    -0.35018072    -0.12977426     3.15311417
      9      C    -1.18074012    -0.42006992     2.50999750
     10      H    -1.29789772    -1.50274029     2.59694773
     11      C    -1.78217153     0.14129989    -1.35821787
     12      C    -2.19510049    -0.25769328     0.07090918
     13      C    -3.38457137     0.62828929     0.50126342
     14      C    -2.64476314    -1.73695045     0.07568761
     15      H    -2.98314992    -2.07600689     1.05775542
     16      H    -2.62608778    -0.00538561    -2.04061748
     17      H    -0.94227113    -0.44884521    -1.73511404
     18      H    -1.48437688     1.19124018    -1.42177802
     19      H    -4.21656874     0.49099382    -0.19727830
     20      H    -3.11738770     1.69129411     0.48516625
     21      H    -3.76374503     0.39349235     1.49794171
     22      H    -3.48407058    -1.86775643    -0.61517449
     23      H    -1.84924793    -2.41081871    -0.25802555
     24      H     2.12574475    -1.10513736    -0.88747774
     25     Al     2.05060022     1.35391559    -0.47232979
     26      F     1.33103921     0.15850566     1.58503828
     27      F     0.90786439     1.27606360    -1.76106057
     28      F     3.38712698     2.32277818    -0.62242645
 
Total System Charge             0.00000
 
 *** GOStep9 ***

 Energy gradients wrt nuclear displacements
 ==========================================

     Atom      Cartesian (a.u./angstrom)
                 X         Y         Z
 ----------------------------------------
     1 H     0.000103 -0.000065 -0.005223
     2 C     0.032002  0.006338  0.034338
     3 C     0.023983  0.087639  0.028238
     4 C     0.064650  0.057450 -0.096889
     5 O    -0.013568 -0.040159 -0.011378
     6 H    -0.003455  0.001873 -0.000824
     7 H     0.003206 -0.001179  0.002669
     8 H    -0.000850 -0.001138  0.001853
     9 C    -0.002627  0.001570  0.002823
    10 H     0.000330  0.001199 -0.000168
    11 C     0.010732  0.000195  0.003074
    12 C    -0.009460  0.001855 -0.008295
    13 C    -0.003195 -0.002417  0.001485
    14 C    -0.001888 -0.002052  0.000916
    15 H     0.000053 -0.001034 -0.001164
    16 H     0.000064  0.000511  0.000689
    17 H     0.005560 -0.000236 -0.000141
    18 H     0.002156  0.003178 -0.000816
    19 H    -0.000548 -0.000373  0.000509
    20 H     0.000088  0.000735 -0.000112
    21 H    -0.000762  0.002081 -0.001337
    22 H    -0.000626 -0.000248  0.000226
    23 H     0.001448  0.000315  0.000388
    24 H     0.030207  0.124365  0.048358
    25 Al   -0.076183 -0.125060  0.140138
    26 F    -0.057797 -0.034476 -0.135099
    27 F    -0.013935 -0.070263  0.018362
    28 F     0.010312 -0.010601 -0.022621
 ----------------------------------------
 Mulliken charges used for AMS results%charges...

 dE(predicted):    -0.10100E+00, dE(actual):    -0.87769E-01, Trust radius:    1.000000, all in a.u.
 
----------------------------------------------------------------------
Geometry Convergence after Step   9       (Hartree/Angstrom,Angstrom)
----------------------------------------------------------------------
current energy                               -5.10742529 Hartree
energy change                      -0.08776877     0.00028000    F
constrained gradient max            0.14017361     0.00100000    F
constrained gradient rms            0.03769080     0.00066667    F
gradient max                        0.14017361
gradient rms                        0.03769080
cart. step max                      0.21407427     0.01000000    F
cart. step rms                      0.04772014     0.00666667    F
 
 
--------
Geometry
--------
Formula: C8H15AlF3O
Atoms
  Index Symbol   x (angstrom)   y (angstrom)   z (angstrom)
      1      H     0.18844279    -1.77534916     0.51935116
      2      C    -0.94370959     0.01325160     1.02448556
      3      C     0.30721619    -0.68323017     0.49430487
      4      C     1.45136728    -0.19789702    -0.11054219
      5      O     3.02026981    -0.81777608    -1.04686846
      6      H    -0.79745793     1.09746565     0.99118323
      7      H    -2.11092252     0.05057893     2.85943791
      8      H    -0.37966539    -0.11638557     3.12961798
      9      C    -1.20053233    -0.41710839     2.48022705
     10      H    -1.31537546    -1.50067013     2.57216982
     11      C    -1.85467288     0.11115699    -1.39449549
     12      C    -2.19584498    -0.26944109     0.05904874
     13      C    -3.37243041     0.61730478     0.51640499
     14      C    -2.63957300    -1.74830311     0.09310462
     15      H    -2.94932045    -2.07309807     1.08986997
     16      H    -2.72825627    -0.05261829    -2.03430678
     17      H    -1.03148176    -0.47911847    -1.80586489
     18      H    -1.56950274     1.16094724    -1.48684923
     19      H    -4.22397480     0.47130239    -0.15630999
     20      H    -3.11029356     1.68076432     0.48439392
     21      H    -3.71813505     0.38549699     1.52657912
     22      H    -3.49793667    -1.88744216    -0.57199277
     23      H    -1.85621136    -2.42852952    -0.25560057
     24      H     2.08274240    -1.17068844    -0.92164363
     25     Al     2.15889046     1.39245569    -0.45627843
     26      F     1.38051186     0.19289304     1.67568399
     27      F     1.06250210     1.49013787    -1.72636603
     28      F     3.51327353     2.33245726    -0.58122028
 
Total System Charge             0.00000
 
 *** GOStep10 ***

 Energy gradients wrt nuclear displacements
 ==========================================

     Atom      Cartesian (a.u./angstrom)
                 X         Y         Z
 ----------------------------------------
     1 H    -0.003326  0.000949 -0.006344
     2 C     0.025988 -0.001278  0.034500
     3 C     0.014746  0.095954  0.036204
     4 C     0.032212 -0.011345 -0.054374
     5 O     0.070947 -0.012830 -0.047731
     6 H    -0.003612  0.001478 -0.000614
     7 H     0.000329 -0.000238  0.001479
     8 H    -0.000495 -0.000915  0.000935
     9 C    -0.003664  0.002330 -0.001532
    10 H    -0.000565 -0.000675 -0.000033
    11 C     0.001327 -0.000830  0.001070
    12 C    -0.005199  0.003056 -0.005100
    13 C     0.001344 -0.001856  0.000682
    14 C     0.000857 -0.000493 -0.000304
    15 H     0.000246 -0.000403  0.000469
    16 H    -0.000265  0.000118 -0.000447
    17 H     0.002010  0.000684 -0.000730
    18 H    -0.000245 -0.000624 -0.000506
    19 H    -0.000244 -0.000552  0.000015
    20 H    -0.000315  0.000607 -0.000182
    21 H     0.000253  0.000815  0.000763
    22 H    -0.000375  0.000065 -0.000030
    23 H     0.000445 -0.000182  0.000342
    24 H    -0.028398  0.071542  0.058318
    25 Al   -0.052686 -0.042025  0.096749
    26 F    -0.060098 -0.037436 -0.112334
    27 F     0.005976 -0.058468  0.023402
    28 F     0.002807 -0.007448 -0.024667
 ----------------------------------------
 Mulliken charges used for AMS results%charges...

 dE(predicted):    -0.63328E-01, dE(actual):    -0.48508E-01, Trust radius:    1.000000, all in a.u.
 
----------------------------------------------------------------------
Geometry Convergence after Step  10       (Hartree/Angstrom,Angstrom)
----------------------------------------------------------------------
current energy                               -5.15593305 Hartree
energy change                      -0.04850776     0.00028000    F
constrained gradient max            0.11232281     0.00100000    F
constrained gradient rms            0.02884931     0.00066667    F
gradient max                        0.11232281
gradient rms                        0.02884931
cart. step max                      0.21351585     0.01000000    F
cart. step rms                      0.03918288     0.00666667    F
 
 
--------
Geometry
--------
Formula: C8H15AlF3O
Atoms
  Index Symbol   x (angstrom)   y (angstrom)   z (angstrom)
      1      H     0.18068785    -1.77950053     0.51989552
      2      C    -0.94887363     0.00488852     1.01838737
      3      C     0.30215312    -0.68753277     0.50635215
      4      C     1.39815324    -0.18106941    -0.08526559
      5      O     2.93576822    -0.85986485    -1.06141159
      6      H    -0.80072064     1.08759670     0.98153939
      7      H    -2.10284445     0.05327970     2.85133900
      8      H    -0.36466882    -0.09707324     3.11080604
      9      C    -1.19057832    -0.41499897     2.47722567
     10      H    -1.29572565    -1.49815012     2.58409350
     11      C    -1.85722780     0.08506112    -1.39753403
     12      C    -2.19650108    -0.28915812     0.05841037
     13      C    -3.37124965     0.60649435     0.50437375
     14      C    -2.64955113    -1.76413644     0.09630867
     15      H    -2.96567658    -2.08261788     1.09302761
     16      H    -2.73312917    -0.07762672    -2.03371248
     17      H    -1.04063994    -0.51420790    -1.80835363
     18      H    -1.56589755     1.13305980    -1.49428923
     19      H    -4.21943529     0.46194054    -0.17266805
     20      H    -3.10338311     1.66791147     0.46813168
     21      H    -3.72432029     0.37983252     1.51305706
     22      H    -3.50644924    -1.89901316    -0.57119113
     23      H    -1.87253903    -2.45311142    -0.24903073
     24      H     1.95549105    -1.23704579    -0.97986496
     25     Al     2.21821156     1.43741838    -0.46387493
     26      F     1.45175998     0.24449305     1.76947297
     27      F     1.14687834     1.70365372    -1.68594533
     28      F     3.59022724     2.34803453    -0.58175490
 
Total System Charge             0.00000
 
 *** GOStep11 ***

 Energy gradients wrt nuclear displacements
 ==========================================

     Atom      Cartesian (a.u./angstrom)
                 X         Y         Z
 ----------------------------------------
     1 H    -0.005179  0.001097 -0.007394
     2 C     0.019327 -0.002352  0.024009
     3 C     0.041301  0.099039  0.018118
     4 C    -0.039095 -0.070104 -0.018969
     5 O     0.131845  0.006666 -0.061265
     6 H    -0.003112  0.000623 -0.000085
     7 H     0.000200  0.000236 -0.000061
     8 H     0.000048 -0.000619  0.000153
     9 C    -0.000452  0.001478 -0.003330
    10 H    -0.000238 -0.000604  0.000352
    11 C    -0.000118 -0.000788  0.001203
    12 C    -0.002534  0.000880 -0.000963
    13 C     0.001503 -0.001359 -0.000509
    14 C     0.000182 -0.000164 -0.001362
    15 H    -0.000085 -0.000254  0.000200
    16 H    -0.000283 -0.000257 -0.000065
    17 H     0.000934  0.000983 -0.000083
    18 H    -0.000495 -0.000732 -0.000397
    19 H    -0.000291 -0.000259  0.000073
    20 H    -0.000427  0.000336 -0.000449
    21 H     0.000195  0.000512  0.000371
    22 H    -0.000146 -0.000170 -0.000038
    23 H    -0.000283 -0.000138  0.000047
    24 H    -0.079765  0.027412  0.054557
    25 Al   -0.029888  0.019432  0.055718
    26 F    -0.052069 -0.027867 -0.067122
    27 F     0.022399 -0.050435  0.033613
    28 F    -0.003473 -0.002591 -0.026321
 ----------------------------------------
 Mulliken charges used for AMS results%charges...
 Rebuilding optimization coordinates

 dE(predicted):    -0.45985E-01, dE(actual):    -0.36404E-01, Trust radius:    1.000000, all in a.u.
 
----------------------------------------------------------------------
Geometry Convergence after Step  11       (Hartree/Angstrom,Angstrom)
----------------------------------------------------------------------
current energy                               -5.19233661 Hartree
energy change                      -0.03640357     0.00028000    F
constrained gradient max            0.13184811     0.00100000    F
constrained gradient rms            0.02850554     0.00066667    F
gradient max                        0.13184811
gradient rms                        0.02850554
cart. step max                      0.21729988     0.01000000    F
cart. step rms                      0.04224717     0.00666667    F
 
 
--------
Geometry
--------
Formula: C8H15AlF3O
Atoms
  Index Symbol   x (angstrom)   y (angstrom)   z (angstrom)
      1      H     0.18636953    -1.78977039     0.51594096
      2      C    -0.95045872    -0.00655896     1.00168015
      3      C     0.30229623    -0.69695198     0.51077305
      4      C     1.36177670    -0.14867919    -0.06750070
      5      O     2.83819071    -0.89157582    -1.06633340
      6      H    -0.79499327     1.07416198     0.95799659
      7      H    -2.10563979     0.06015234     2.83076124
      8      H    -0.36414372    -0.07516212     3.09074436
      9      C    -1.18985571    -0.40928230     2.46612632
     10      H    -1.28820761    -1.49123790     2.58860565
     11      C    -1.87297093     0.04641351    -1.41483764
     12      C    -2.19671282    -0.30967664     0.05006231
     13      C    -3.36262829     0.59884489     0.49586377
     14      C    -2.65686123    -1.78043983     0.11215606
     15      H    -2.96884546    -2.08164417     1.11545995
     16      H    -2.76137033    -0.10402337    -2.03596986
     17      H    -1.07858637    -0.57653305    -1.83342321
     18      H    -1.56144359     1.08763813    -1.52444790
     19      H    -4.21320416     0.46000387    -0.17910473
     20      H    -3.08462545     1.65713238     0.45611469
     21      H    -3.71551669     0.37663784     1.50564323
     22      H    -3.51834031    -1.91929797    -0.54827001
     23      H    -1.88721049    -2.48011044    -0.22845212
     24      H     1.82006674    -1.26161871    -1.06364939
     25     Al     2.28231996     1.48561909    -0.45634948
     26      F     1.53094169     0.28208450     1.84868823
     27      F     1.23423541     1.92095361    -1.63000190
     28      F     3.68533722     2.35147778    -0.53075205
 
Total System Charge             0.00000
 
 *** GOStep12 ***

 Energy gradients wrt nuclear displacements
 ==========================================

     Atom      Cartesian (a.u./angstrom)
                 X         Y         Z
 ----------------------------------------
     1 H    -0.007710 -0.000396 -0.005726
     2 C     0.012064 -0.003062  0.012458
     3 C     0.061560  0.093916  0.004695
     4 C    -0.095355 -0.091638  0.003419
     5 O     0.171490  0.012217 -0.061445
     6 H    -0.001650 -0.000357  0.000201
     7 H    -0.000534  0.000756 -0.001127
     8 H    -0.000231 -0.000418 -0.000234
     9 C     0.001838  0.000237 -0.004033
    10 H    -0.000328 -0.000465  0.000315
    11 C    -0.001796 -0.000601  0.000035
    12 C     0.000257 -0.000402  0.000382
    13 C     0.002018 -0.000602 -0.000289
    14 C     0.000373  0.000375 -0.000952
    15 H    -0.000154 -0.000166  0.000443
    16 H    -0.000092 -0.000435 -0.000114
    17 H    -0.000250  0.001080  0.000138
    18 H    -0.000746 -0.000851 -0.000244
    19 H    -0.000083 -0.000160  0.000115
    20 H    -0.000402  0.000086 -0.000435
    21 H     0.000188  0.000105  0.000679
    22 H     0.000157 -0.000032  0.000026
    23 H    -0.000546 -0.000245 -0.000110
    24 H    -0.113304  0.002956  0.044954
    25 Al   -0.009631  0.049545  0.030324
    26 F    -0.039793 -0.019361 -0.032916
    27 F     0.028586 -0.045266  0.035196
    28 F    -0.005924  0.003183 -0.025756
 ----------------------------------------
 Mulliken charges used for AMS results%charges...

 dE(predicted):    -0.24736E-01, dE(actual):    -0.23412E-01, Trust radius:    1.000000, all in a.u.
 
----------------------------------------------------------------------
Geometry Convergence after Step  12       (Hartree/Angstrom,Angstrom)
----------------------------------------------------------------------
current energy                               -5.21574873 Hartree
energy change                      -0.02341212     0.00028000    F
constrained gradient max            0.17149143     0.00100000    F
constrained gradient rms            0.03275067     0.00066667    F
gradient max                        0.17149143
gradient rms                        0.03275067
cart. step max                      0.18176753     0.01000000    F
cart. step rms                      0.03755504     0.00666667    F
 
 
--------
Geometry
--------
Formula: C8H15AlF3O
Atoms
  Index Symbol   x (angstrom)   y (angstrom)   z (angstrom)
      1      H     0.19864149    -1.79988670     0.50573482
      2      C    -0.95181678    -0.01885845     0.98682522
      3      C     0.30240990    -0.70647915     0.50839669
      4      C     1.34552437    -0.11270858    -0.05929300
      5      O     2.75143239    -0.90932355    -1.06075195
      6      H    -0.78975223     1.06038041     0.93595817
      7      H    -2.10000507     0.06419827     2.82333170
      8      H    -0.35441993    -0.05481612     3.07088425
      9      C    -1.18340630    -0.40403164     2.45917107
     10      H    -1.27259322    -1.48474781     2.59676209
     11      C    -1.88822875     0.00506340    -1.42726470
     12      C    -2.20101080    -0.32889109     0.04549669
     13      C    -3.35933582     0.59468549     0.48330105
     14      C    -2.67209132    -1.79426719     0.12987646
     15      H    -2.98399983    -2.07768812     1.13812292
     16      H    -2.78891488    -0.12687910    -2.03439917
     17      H    -1.12025197    -0.64696555    -1.85063677
     18      H    -1.54962788     1.03656685    -1.55066002
     19      H    -4.20853295     0.46230939    -0.19457994
     20      H    -3.06921401     1.64933856     0.44076254
     21      H    -3.71866995     0.37899895     1.49204960
     22      H    -3.53611897    -1.93571599    -0.52657250
     23      H    -1.90926316    -2.50538534    -0.20260707
     24      H     1.71262579    -1.25058274    -1.15341952
     25     Al     2.33609458     1.53004918    -0.44890346
     26      F     1.59909412     0.30564189     1.90365788
     27      F     1.31068645     2.10272113    -1.58383928
     28      F     3.77066401     2.34583068    -0.45987958
 
Total System Charge             0.00000
 
 *** GOStep13 ***

 Energy gradients wrt nuclear displacements
 ==========================================

     Atom      Cartesian (a.u./angstrom)
                 X         Y         Z
 ----------------------------------------
     1 H    -0.010261 -0.001565 -0.003733
     2 C     0.006830 -0.002806  0.003843
     3 C     0.058648  0.076134  0.005101
     4 C    -0.116035 -0.083629  0.010478
     5 O     0.194959  0.007804 -0.055185
     6 H     0.000060 -0.001049  0.000528
     7 H    -0.000511  0.000833 -0.001294
     8 H    -0.000359 -0.000217 -0.000396
     9 C     0.003020 -0.000495 -0.003646
    10 H    -0.000255 -0.000121  0.000270
    11 C    -0.003069 -0.000508 -0.000435
    12 C     0.002726 -0.001438  0.001734
    13 C     0.001626 -0.000027 -0.000598
    14 C     0.000024  0.000817 -0.000934
    15 H    -0.000218 -0.000022  0.000265
    16 H    -0.000097 -0.000568 -0.000054
    17 H    -0.001152  0.001003  0.000344
    18 H    -0.000839 -0.000897  0.000002
    19 H    -0.000033 -0.000050  0.000062
    20 H    -0.000319 -0.000120 -0.000416
    21 H     0.000003 -0.000153  0.000341
    22 H     0.000284 -0.000043  0.000031
    23 H    -0.000712 -0.000293 -0.000294
    24 H    -0.131558 -0.006083  0.032456
    25 Al    0.009101  0.058664  0.018874
    26 F    -0.030894 -0.013943 -0.012791
    27 F     0.024694 -0.038889  0.028714
    28 F    -0.005664  0.007660 -0.023268
 ----------------------------------------
 Mulliken charges used for AMS results%charges...

 dE(predicted):    -0.98631E-02, dE(actual):    -0.16910E-01, Trust radius:    1.000000, all in a.u.
 
----------------------------------------------------------------------
Geometry Convergence after Step  13       (Hartree/Angstrom,Angstrom)
----------------------------------------------------------------------
current energy                               -5.23265917 Hartree
energy change                      -0.01691044     0.00028000    F
constrained gradient max            0.19495702     0.00100000    F
constrained gradient rms            0.03422013     0.00066667    F
gradient max                        0.19495702
gradient rms                        0.03422013
cart. step max                      0.21673750     0.01000000    F
cart. step rms                      0.04778689     0.00666667    F
 
 
--------
Geometry
--------
Formula: C8H15AlF3O
Atoms
  Index Symbol   x (angstrom)   y (angstrom)   z (angstrom)
      1      H     0.22570564    -1.81074953     0.48493995
      2      C    -0.95587272    -0.03232970     0.96406018
      3      C     0.30004668    -0.71748505     0.49362710
      4      C     1.34532321    -0.06212783    -0.06117443
      5      O     2.62812432    -0.93448082    -1.02315812
      6      H    -0.78915909     1.04607152     0.90149204
      7      H    -2.09241195     0.07247843     2.81803152
      8      H    -0.34162020    -0.02948710     3.04232026
      9      C    -1.17731029    -0.39422723     2.44840150
     10      H    -1.25608207    -1.47317005     2.60369631
     11      C    -1.91232246    -0.04368444    -1.44066985
     12      C    -2.21321934    -0.35136314     0.04037319
     13      C    -3.36360417     0.58668435     0.47312518
     14      C    -2.68997649    -1.81228384     0.15371619
     15      H    -2.99610795    -2.07542422     1.16881231
     16      H    -2.82318570    -0.16419993    -2.03455356
     17      H    -1.16700628    -0.72175021    -1.86410159
     18      H    -1.55365884     0.97927796    -1.58184972
     19      H    -4.21618337     0.45445250    -0.20043293
     20      H    -3.06442562     1.63814360     0.41993638
     21      H    -3.72063579     0.38260336     1.48486978
     22      H    -3.55876962    -1.96218653    -0.49465680
     23      H    -1.93147157    -2.53211220    -0.17034296
     24      H     1.59739085    -1.20389216    -1.27568070
     25     Al     2.40627099     1.58027179    -0.44907579
     26      F     1.67730758     0.33674711     1.94940156
     27      F     1.42732287     2.31945864    -1.54839843
     28      F     3.88545065     2.30332179    -0.33518440
 
Total System Charge             0.00000
 
 *** GOStep14 ***

 Energy gradients wrt nuclear displacements
 ==========================================

     Atom      Cartesian (a.u./angstrom)
                 X         Y         Z
 ----------------------------------------
     1 H    -0.012737 -0.002012 -0.001014
     2 C     0.000874 -0.000122 -0.004219
     3 C     0.032893  0.030461  0.015883
     4 C    -0.108822 -0.039458  0.006185
     5 O     0.208391 -0.011769 -0.039325
     6 H     0.001514 -0.001087  0.000697
     7 H    -0.000362  0.000588 -0.000702
     8 H    -0.000350  0.000072 -0.000314
     9 C     0.002226 -0.001050 -0.002115
    10 H    -0.000233  0.000239  0.000131
    11 C    -0.003099 -0.000434 -0.000774
    12 C     0.004131 -0.002454  0.001886
    13 C     0.000776  0.000986 -0.000081
    14 C    -0.000138  0.001015 -0.000343
    15 H    -0.000178  0.000076 -0.000008
    16 H    -0.000042 -0.000705  0.000221
    17 H    -0.001740  0.000784  0.000475
    18 H    -0.000826 -0.000677  0.000191
    19 H     0.000117 -0.000034  0.000079
    20 H    -0.000238 -0.000248 -0.000352
    21 H    -0.000128 -0.000276  0.000115
    22 H     0.000337 -0.000007  0.000011
    23 H    -0.000639 -0.000342 -0.000450
    24 H    -0.139033 -0.002632  0.011709
    25 Al    0.032234  0.051572  0.011193
    26 F    -0.022515 -0.008978  0.004254
    27 F     0.010410 -0.024908  0.013877
    28 F    -0.002822  0.011399 -0.017209
 ----------------------------------------
 Mulliken charges used for AMS results%charges...

 dE(predicted):    -0.29871E-01, dE(actual):    -0.24184E-01, Trust radius:    1.000000, all in a.u.
 
----------------------------------------------------------------------
Geometry Convergence after Step  14       (Hartree/Angstrom,Angstrom)
----------------------------------------------------------------------
current energy                               -5.25684289 Hartree
energy change                      -0.02418372     0.00028000    F
constrained gradient max            0.20838394     0.00100000    F
constrained gradient rms            0.03205623     0.00066667    F
gradient max                        0.20838394
gradient rms                        0.03205623
cart. step max                      0.21624526     0.01000000    F
cart. step rms                      0.05439900     0.00666667    F
 
 
--------
Geometry
--------
Formula: C8H15AlF3O
Atoms
  Index Symbol   x (angstrom)   y (angstrom)   z (angstrom)
      1      H     0.26971598    -1.81089840     0.45523823
      2      C    -0.96183277    -0.04055539     0.93664187
      3      C     0.29553486    -0.71959757     0.46720732
      4      C     1.35466467    -0.00764571    -0.07181641
      5      O     2.45584576    -0.96108743    -0.93934588
      6      H    -0.79753169     1.03833361     0.86116722
      7      H    -2.07741346     0.08162134     2.81644924
      8      H    -0.32054352    -0.00158998     3.00670570
      9      C    -1.16562693    -0.38110803     2.43432775
     10      H    -1.23126897    -1.45856101     2.60516455
     11      C    -1.94845030    -0.08530854    -1.45265034
     12      C    -2.23139750    -0.37225401     0.03592035
     13      C    -3.38051959     0.56931839     0.46785353
     14      C    -2.70284576    -1.83224354     0.17539418
     15      H    -2.99613824    -2.08032903     1.19764575
     16      H    -2.86690610    -0.20759933    -2.03441732
     17      H    -1.21397786    -0.77606950    -1.87558703
     18      H    -1.58704943     0.93485596    -1.61080875
     19      H    -4.23939348     0.42774704    -0.19583969
     20      H    -3.08290631     1.62035296     0.40036873
     21      H    -3.72664352     0.37565689     1.48511434
     22      H    -3.57838447    -1.99553018    -0.46093475
     23      H    -1.94363296    -2.55302215    -0.14524231
     24      H     1.50037411    -1.13508827    -1.38810030
     25     Al     2.48425236     1.61953218    -0.46512479
     26      F     1.75746838     0.38880232     1.97398771
     27      F     1.60615498     2.53570389    -1.53890771
     28      F     3.99837100     2.20512057    -0.17288704
 
Total System Charge             0.00000
 
 *** GOStep15 ***

 Energy gradients wrt nuclear displacements
 ==========================================

     Atom      Cartesian (a.u./angstrom)
                 X         Y         Z
 ----------------------------------------
     1 H    -0.013085 -0.000886  0.001550
     2 C    -0.002401  0.005152 -0.010255
     3 C     0.013284 -0.027335  0.020505
     4 C    -0.088666  0.022864  0.002488
     5 O     0.185413 -0.041813 -0.011104
     6 H     0.002059 -0.000449  0.000756
     7 H     0.000101  0.000105  0.000041
     8 H    -0.000143  0.000372  0.000016
     9 C     0.000757 -0.001448  0.000027
    10 H    -0.000219  0.000435 -0.000003
    11 C    -0.003056 -0.000411 -0.000753
    12 C     0.005156 -0.003041  0.001143
    13 C    -0.000369  0.001718  0.000351
    14 C    -0.000446  0.001141  0.000303
    15 H    -0.000130  0.000161 -0.000334
    16 H    -0.000048 -0.000703  0.000331
    17 H    -0.002045  0.000471  0.000643
    18 H    -0.000950 -0.000389  0.000330
    19 H     0.000162 -0.000095  0.000048
    20 H    -0.000136 -0.000368 -0.000347
    21 H    -0.000152 -0.000344 -0.000211
    22 H     0.000213  0.000013 -0.000038
    23 H    -0.000483 -0.000242 -0.000560
    24 H    -0.124809  0.011332 -0.012152
    25 Al    0.048881  0.033825 -0.002679
    26 F    -0.016357 -0.005375  0.016569
    27 F    -0.001748 -0.007172  0.001925
    28 F    -0.000784  0.012482 -0.008590
 ----------------------------------------
 Mulliken charges used for AMS results%charges...

 dE(predicted):    -0.34091E-01, dE(actual):    -0.28127E-01, Trust radius:    1.000000, all in a.u.
 
----------------------------------------------------------------------
Geometry Convergence after Step  15       (Hartree/Angstrom,Angstrom)
----------------------------------------------------------------------
current energy                               -5.28497023 Hartree
energy change                      -0.02812734     0.00028000    F
constrained gradient max            0.18540510     0.00100000    F
constrained gradient rms            0.02816148     0.00066667    F
gradient max                        0.18540510
gradient rms                        0.02816148
cart. step max                      0.20688916     0.01000000    F
cart. step rms                      0.05134396     0.00666667    F
 
 
--------
Geometry
--------
Formula: C8H15AlF3O
Atoms
  Index Symbol   x (angstrom)   y (angstrom)   z (angstrom)
      1      H     0.31519647    -1.79773485     0.41664775
      2      C    -0.97113429    -0.04265607     0.90876442
      3      C     0.28383367    -0.71036076     0.42831168
      4      C     1.37139491     0.03051058    -0.09927827
      5      O     2.27830597    -0.96423596    -0.83132096
      6      H    -0.81563927     1.03752821     0.82177929
      7      H    -2.05784109     0.09002325     2.81651046
      8      H    -0.29500335     0.02549334     2.96765498
      9      C    -1.15021844    -0.36707397     2.41802228
     10      H    -1.20111695    -1.44359596     2.60033355
     11      C    -1.98675520    -0.11173347    -1.45972023
     12      C    -2.25450222    -0.38787661     0.03364379
     13      C    -3.40593034     0.54828751     0.47161112
     14      C    -2.71086863    -1.85080010     0.19214135
     15      H    -2.98764864    -2.09078417     1.22071224
     16      H    -2.90903632    -0.23977774    -2.03448993
     17      H    -1.25382180    -0.80506583    -1.88287114
     18      H    -1.63042769     0.90925230    -1.62805370
     19      H    -4.27254361     0.39585017    -0.17970196
     20      H    -3.11619121     1.60094520     0.39369960
     21      H    -3.73641160     0.35956072     1.49481109
     22      H    -3.59295072    -2.03042858    -0.43100947
     23      H    -1.94605623    -2.56529864    -0.12941950
     24      H     1.47215763    -1.07705373    -1.45537449
     25     Al     2.54752519     1.63943086    -0.49175693
     26      F     1.82515271     0.44707162     1.96251308
     27      F     1.81304414     2.69963842    -1.55801717
     28      F     4.05740617     2.07944132     0.00138125
 
Total System Charge             0.00000
 
 *** GOStep16 ***

 Energy gradients wrt nuclear displacements
 ==========================================

     Atom      Cartesian (a.u./angstrom)
                 X         Y         Z
 ----------------------------------------
     1 H    -0.010538  0.000663  0.002440
     2 C    -0.001081  0.009532 -0.012550
     3 C     0.007129 -0.079295  0.012674
     4 C    -0.039613  0.064372 -0.015875
     5 O     0.094553 -0.047156  0.028591
     6 H     0.001891  0.000277  0.000646
     7 H     0.000483 -0.000334  0.000738
     8 H     0.000199  0.000605  0.000269
     9 C    -0.001181 -0.001289  0.001970
    10 H    -0.000172  0.000425 -0.000154
    11 C    -0.002103 -0.000439 -0.000250
    12 C     0.004473 -0.003352 -0.000168
    13 C    -0.001134  0.002069  0.000992
    14 C    -0.000625  0.000803  0.000894
    15 H    -0.000068  0.000160 -0.000527
    16 H    -0.000008 -0.000544  0.000375
    17 H    -0.001879  0.000143  0.000530
    18 H    -0.000907 -0.000007  0.000287
    19 H     0.000223 -0.000172  0.000015
    20 H    -0.000028 -0.000336 -0.000283
    21 H    -0.000121 -0.000286 -0.000406
    22 H     0.000059  0.000036 -0.000021
    23 H    -0.000268 -0.000101 -0.000551
    24 H    -0.082881  0.025257 -0.019644
    25 Al    0.054858  0.013088 -0.020590
    26 F    -0.012399 -0.002948  0.024483
    27 F    -0.007048  0.008050 -0.004326
    28 F    -0.001813  0.010778  0.000439
 ----------------------------------------
 Mulliken charges used for AMS results%charges...
 Rebuilding optimization coordinates

 dE(predicted):    -0.28157E-01, dE(actual):    -0.20946E-01, Trust radius:    1.000000, all in a.u.
 
----------------------------------------------------------------------
Geometry Convergence after Step  16       (Hartree/Angstrom,Angstrom)
----------------------------------------------------------------------
current energy                               -5.30591617 Hartree
energy change                      -0.02094594     0.00028000    F
constrained gradient max            0.09454537     0.00100000    F
constrained gradient rms            0.02109736     0.00066667    F
gradient max                        0.09454537
gradient rms                        0.02109736
cart. step max                      0.10132396     0.01000000    F
cart. step rms                      0.02730351     0.00666667    F
 
 
--------
Geometry
--------
Formula: C8H15AlF3O
Atoms
  Index Symbol   x (angstrom)   y (angstrom)   z (angstrom)
      1      H     0.33538296    -1.77842864     0.39885008
      2      C    -0.98306380    -0.03620290     0.89902740
      3      C     0.26363433    -0.69385417     0.39716894
      4      C     1.39352324     0.01960637    -0.13731473
      5      O     2.23105001    -0.95693412    -0.76136542
      6      H    -0.83831912     1.04520765     0.80608997
      7      H    -2.04084980     0.09683206     2.82511178
      8      H    -0.27415734     0.04124648     2.94743336
      9      C    -1.13720120    -0.35646122     2.41295870
     10      H    -1.17875259    -1.43307722     2.59849301
     11      C    -2.00283369    -0.10283066    -1.45369057
     12      C    -2.27474518    -0.38709810     0.03775358
     13      C    -3.43406050     0.53452073     0.48194651
     14      C    -2.71135555    -1.85683776     0.19321426
     15      H    -2.98186551    -2.10194881     1.22240301
     16      H    -2.92044276    -0.23166142    -2.03627351
     17      H    -1.26128237    -0.78894415    -1.87549377
     18      H    -1.65066719     0.92107563    -1.61475304
     19      H    -4.30259501     0.37675453    -0.16582792
     20      H    -3.15484792     1.59060810     0.40834831
     21      H    -3.75713271     0.33910518     1.50633671
     22      H    -3.59198553    -2.04935282    -0.42840459
     23      H    -1.93469090    -2.55821478    -0.12870732
     24      H     1.55142874    -1.07939335    -1.46428064
     25     Al     2.54943183     1.63115687    -0.51325230
     26      F     1.84208541     0.47581528     1.91365074
     27      F     1.90007462     2.72427142    -1.60460359
     28      F     4.03415678     1.99359691     0.10270521
 
Total System Charge             0.00000
 
 *** GOStep17 ***

 Energy gradients wrt nuclear displacements
 ==========================================

     Atom      Cartesian (a.u./angstrom)
                 X         Y         Z
 ----------------------------------------
     1 H    -0.004717  0.002216  0.000999
     2 C     0.000481  0.007966 -0.009376
     3 C    -0.007770 -0.088377  0.011737
     4 C     0.020514  0.041270 -0.050721
     5 O     0.005646 -0.014600  0.038744
     6 H     0.001054  0.000142  0.000181
     7 H     0.000615 -0.000421  0.001038
     8 H     0.000597  0.000597  0.000609
     9 C    -0.001974 -0.000647  0.002996
    10 H     0.000072  0.000265 -0.000164
    11 C    -0.000356 -0.000309  0.000782
    12 C     0.001942 -0.002013  0.000270
    13 C    -0.001887  0.001510  0.000739
    14 C    -0.000584  0.000242  0.000950
    15 H     0.000046  0.000052 -0.000545
    16 H     0.000001 -0.000290  0.000216
    17 H    -0.000964 -0.000190  0.000065
    18 H    -0.000645  0.000073  0.000130
    19 H     0.000005 -0.000053  0.000002
    20 H     0.000095 -0.000184 -0.000116
    21 H    -0.000064 -0.000071 -0.000538
    22 H    -0.000061 -0.000001 -0.000012
    23 H     0.000098 -0.000043 -0.000355
    24 H    -0.039539  0.034693  0.005072
    25 Al    0.050535  0.002228 -0.030136
    26 F    -0.011281 -0.002114  0.026965
    27 F    -0.007843  0.011149 -0.005342
    28 F    -0.004016  0.006911  0.005810
 ----------------------------------------
 Mulliken charges used for AMS results%charges...

 dE(predicted):    -0.66704E-02, dE(actual):    -0.80777E-02, Trust radius:    1.000000, all in a.u.
 
----------------------------------------------------------------------
Geometry Convergence after Step  17       (Hartree/Angstrom,Angstrom)
----------------------------------------------------------------------
current energy                               -5.31399391 Hartree
energy change                      -0.00807774     0.00028000    F
constrained gradient max            0.08838479     0.00100000    F
constrained gradient rms            0.01621933     0.00066667    F
gradient max                        0.08838479
gradient rms                        0.01621933
cart. step max                      0.09595164     0.01000000    F
cart. step rms                      0.02522717     0.00666667    F
 
 
--------
Geometry
--------
Formula: C8H15AlF3O
Atoms
  Index Symbol   x (angstrom)   y (angstrom)   z (angstrom)
      1      H     0.31900054    -1.77827546     0.42624531
      2      C    -0.98367683    -0.02984805     0.91400239
      3      C     0.25997524    -0.69086335     0.41071777
      4      C     1.38836268    -0.01310977    -0.13404552
      5      O     2.31874301    -0.97178254    -0.77638958
      6      H    -0.83999264     1.05181973     0.82448477
      7      H    -2.05235985     0.09755146     2.82710373
      8      H    -0.28698650     0.03699103     2.96638223
      9      C    -1.14567581    -0.35697219     2.42279388
     10      H    -1.19202350    -1.43415434     2.60419660
     11      C    -1.98520582    -0.07486868    -1.44701313
     12      C    -2.26791726    -0.37683171     0.03947071
     13      C    -3.43062897     0.53641836     0.48839707
     14      C    -2.70049203    -1.84963325     0.17749463
     15      H    -2.97791769    -2.10561977     1.20247402
     16      H    -2.89802076    -0.19802826    -2.03835192
     17      H    -1.23806911    -0.75355688    -1.87072615
     18      H    -1.63225289     0.95080938    -1.59350536
     19      H    -4.29581885     0.38326576    -0.16487287
     20      H    -3.15438389     1.59415123     0.42750525
     21      H    -3.75762877     0.32926327     1.50950273
     22      H    -3.57582943    -2.03880178    -0.45244405
     23      H    -1.91959685    -2.54575282    -0.14518793
     24      H     1.60220563    -1.12233035    -1.44820247
     25     Al     2.50086717     1.61168148    -0.51250535
     26      F     1.81241019     0.46657303     1.89842365
     27      F     1.80412297     2.63828825    -1.62851484
     28      F     3.99870928     2.02217328     0.04008861
 
Total System Charge             0.00000
 
 *** GOStep18 ***

 Energy gradients wrt nuclear displacements
 ==========================================

     Atom      Cartesian (a.u./angstrom)
                 X         Y         Z
 ----------------------------------------
     1 H    -0.003048  0.001774  0.000404
     2 C    -0.001263  0.005081 -0.005506
     3 C    -0.018476 -0.056393  0.019393
     4 C    -0.010939  0.032671 -0.035804
     5 O     0.061185 -0.030751  0.014814
     6 H     0.000504 -0.000087  0.000071
     7 H     0.000072 -0.000152  0.000519
     8 H     0.000448  0.000450  0.000529
     9 C    -0.000924 -0.000399  0.002336
    10 H     0.000045  0.000123 -0.000080
    11 C    -0.000364 -0.000234  0.000456
    12 C     0.001670 -0.001532  0.000540
    13 C    -0.001038  0.001025  0.000600
    14 C    -0.000426  0.000197  0.000702
    15 H     0.000048 -0.000019 -0.000311
    16 H    -0.000035 -0.000225 -0.000005
    17 H    -0.000587 -0.000117 -0.000009
    18 H    -0.000436 -0.000054  0.000078
    19 H     0.000039 -0.000069 -0.000012
    20 H     0.000093 -0.000115 -0.000033
    21 H     0.000027 -0.000056 -0.000128
    22 H    -0.000006 -0.000048 -0.000036
    23 H     0.000145 -0.000113 -0.000223
    24 H    -0.049523  0.031940  0.002130
    25 Al    0.044246  0.010817 -0.025134
    26 F    -0.013082 -0.003328  0.023701
    27 F    -0.005634  0.003263 -0.001949
    28 F    -0.002743  0.006354  0.002960
 ----------------------------------------
 Mulliken charges used for AMS results%charges...

 dE(predicted):    -0.37647E-02, dE(actual):    -0.43135E-02, Trust radius:    1.000000, all in a.u.
 
----------------------------------------------------------------------
Geometry Convergence after Step  18       (Hartree/Angstrom,Angstrom)
----------------------------------------------------------------------
current energy                               -5.31830738 Hartree
energy change                      -0.00431347     0.00028000    F
constrained gradient max            0.06117761     0.00100000    F
constrained gradient rms            0.01479770     0.00066667    F
gradient max                        0.06117761
[...]
    10     H       0.014422   0.102163  -0.014501
    11     C       0.013746  -0.015033   0.000664
    12     C       0.000825   0.000476   0.000086
    13     C      -0.009253  -0.008460  -0.003039
    14     C       0.003960  -0.002635  -0.001443
    15     H      -0.001826  -0.003005   0.011512
    16     H      -0.101189  -0.011809  -0.062464
    17     H      -0.103663   0.104850   0.064545
    18     H       0.040275   0.084087  -0.007964
    19     H       0.074345   0.004221   0.055494
    20     H       0.033184   0.092473  -0.005227
    21     H       0.001403   0.000907  -0.013363
    22     H      -0.018077  -0.002960  -0.012883
    23     H      -0.031927   0.033309   0.017165
    24     H       0.000590  -0.003289  -0.001476
    25    Al      -0.000092  -0.000114   0.000046
    26     F       0.000122   0.000075   0.000048
    27     F       0.000087   0.000163  -0.000099
    28     F       0.000014   0.000004  -0.000009
 
 Mode:    76      Frequency (cm-1):     3061.7834     Intensity (km/mol):        9.9975
 Index  Atom      ---- Displacements (x/y/z) ----
     1     H      -0.000897  -0.012023  -0.001186
     2     C       0.003017   0.015083  -0.001090
     3     C       0.000214   0.000989   0.000232
     4     C       0.000095   0.000086  -0.000076
     5     O      -0.000074  -0.000044   0.000016
     6     H      -0.035424  -0.180007   0.014332
     7     H      -0.023217   0.014424   0.010354
     8     H       0.007612   0.001349   0.002691
     9     C       0.000940  -0.003938  -0.000670
    10     H       0.004391   0.030292  -0.004884
    11     C      -0.066897   0.045253  -0.009352
    12     C      -0.000538   0.000792  -0.000180
    13     C       0.002976   0.001988   0.007242
    14     C       0.034450  -0.012647   0.004331
    15     H       0.008013  -0.005701   0.011239
    16     H       0.527453   0.048030   0.325619
    17     H       0.376981  -0.387467  -0.238591
    18     H      -0.106154  -0.201891   0.021842
    19     H      -0.040010  -0.004022  -0.030048
    20     H      -0.011737  -0.036669   0.002303
    21     H       0.018489   0.014092  -0.056441
    22     H      -0.242029  -0.027674  -0.162469
    23     H      -0.177397   0.180269   0.099646
    24     H       0.000538   0.000347  -0.000025
    25    Al       0.000002   0.000020   0.000029
    26     F       0.000025  -0.000001  -0.000008
    27     F       0.000040   0.000013  -0.000021
    28     F      -0.000011  -0.000012  -0.000003
 
 Mode:    77      Frequency (cm-1):     3067.5022     Intensity (km/mol):       24.4310
 Index  Atom      ---- Displacements (x/y/z) ----
     1     H      -0.004394  -0.059658  -0.003364
     2     C       0.002508   0.011765  -0.000848
     3     C       0.000390   0.004923   0.000265
     4     C      -0.000048   0.000035   0.000027
     5     O      -0.000009   0.000025   0.000010
     6     H      -0.028000  -0.138976   0.010763
     7     H      -0.046945   0.029066   0.021880
     8     H       0.007277  -0.000321   0.002143
     9     C       0.002626  -0.007574  -0.001225
    10     H       0.009197   0.060827  -0.009153
    11     C      -0.020651   0.010421  -0.003065
    12     C      -0.000938   0.000707   0.000160
    13     C       0.030136   0.020169   0.037403
    14     C      -0.063913   0.022401  -0.017896
    15     H      -0.031617  -0.010365   0.064084
    16     H       0.161049   0.013127   0.099672
    17     H       0.104813  -0.109018  -0.068381
    18     H      -0.017642  -0.030003   0.003823
    19     H      -0.342542  -0.030276  -0.244388
    20     H      -0.088685  -0.269383   0.021838
    21     H       0.074302   0.056838  -0.223759
    22     H       0.490126   0.056359   0.324131
    23     H       0.306113  -0.315746  -0.175328
    24     H       0.000586  -0.001516  -0.000651
    25    Al      -0.000019   0.000028   0.000022
    26     F       0.000027  -0.000007  -0.000009
    27     F       0.000034   0.000000  -0.000017
    28     F      -0.000006  -0.000016  -0.000003
 
 Mode:    78      Frequency (cm-1):     3071.2373     Intensity (km/mol):       33.1473
 Index  Atom      ---- Displacements (x/y/z) ----
     1     H       0.002900   0.030970   0.001519
     2     C      -0.000938  -0.001070  -0.000262
     3     C      -0.000176  -0.002649  -0.000114
     4     C       0.000113  -0.000005   0.000064
     5     O      -0.000018  -0.000019  -0.000034
     6     H       0.000658   0.010724  -0.000963
     7     H      -0.025878   0.017263   0.012474
     8     H      -0.003412  -0.002802  -0.001849
     9     C       0.002148  -0.003860  -0.000512
    10     H       0.005120   0.031486  -0.005823
    11     C       0.014300  -0.026781   0.000135
    12     C       0.002592  -0.000061   0.000809
    13     C       0.044651   0.030445   0.046647
    14     C       0.044565  -0.015991  -0.006699
    15     H      -0.017015  -0.033508   0.125106
    16     H      -0.111594  -0.013887  -0.072384
    17     H      -0.148079   0.144884   0.090938
    18     H       0.083308   0.189175  -0.020620
    19     H      -0.496458  -0.039278  -0.352743
    20     H      -0.127751  -0.384858   0.029238
    21     H       0.081891   0.063078  -0.234907
    22     H      -0.267451  -0.034174  -0.183407
    23     H      -0.252474   0.258375   0.136556
    24     H      -0.000288   0.000897   0.000533
    25    Al      -0.000011  -0.000026   0.000007
    26     F       0.000008   0.000010  -0.000000
    27     F      -0.000017   0.000004  -0.000016
    28     F       0.000012   0.000011  -0.000004
 
 Mode:    79      Frequency (cm-1):     3080.6192     Intensity (km/mol):        8.9287
 Index  Atom      ---- Displacements (x/y/z) ----
     1     H       0.002580   0.034277   0.001985
     2     C      -0.001196  -0.007224   0.000728
     3     C      -0.000147  -0.002734  -0.000178
     4     C       0.000026  -0.000018  -0.000062
     5     O      -0.000021  -0.000019   0.000017
     6     H       0.017584   0.086345  -0.007079
     7     H      -0.084031   0.052332   0.041858
     8     H       0.024674   0.004293   0.011974
     9     C       0.003733  -0.012804  -0.003190
    10     H       0.013310   0.093778  -0.016219
    11     C       0.009363   0.013334   0.003390
    12     C      -0.000162  -0.000866  -0.000899
    13     C      -0.021828  -0.034344   0.023391
    14     C       0.010594  -0.005813  -0.075303
    15     H      -0.152030  -0.164048   0.667201
    16     H      -0.074293  -0.003159  -0.044303
    17     H       0.018529  -0.014258  -0.008018
    18     H      -0.055833  -0.139625   0.014950
    19     H       0.050456  -0.003361   0.046654
    20     H       0.122742   0.350305  -0.009507
    21     H       0.084716   0.065398  -0.313754
    22     H       0.244775   0.022098   0.136403
    23     H      -0.217049   0.215850   0.097794
    24     H      -0.000206   0.001078   0.000276
    25    Al       0.000022  -0.000004  -0.000023
    26     F      -0.000028  -0.000004   0.000010
    27     F      -0.000007   0.000001   0.000024
    28     F      -0.000004   0.000005   0.000005
 
 Mode:    80      Frequency (cm-1):     3084.8819     Intensity (km/mol):       35.6783
 Index  Atom      ---- Displacements (x/y/z) ----
     1     H      -0.000935  -0.006838  -0.000098
     2     C      -0.000670  -0.002338   0.000085
     3     C       0.000010   0.000615   0.000082
     4     C      -0.000027  -0.000006   0.000030
     5     O       0.000013   0.000001  -0.000025
     6     H       0.005953   0.027782  -0.002096
     7     H      -0.030910   0.021635   0.016153
     8     H      -0.090358  -0.034106  -0.049444
     9     C       0.010158  -0.001406   0.003159
    10     H       0.006329   0.028877  -0.004630
    11     C       0.015094   0.016325   0.005060
    12     C       0.000150  -0.000498   0.001978
    13     C      -0.017910  -0.043283   0.057999
    14     C      -0.002583   0.001796   0.047321
    15     H       0.096817   0.105279  -0.421798
    16     H      -0.130679  -0.005438  -0.080555
    17     H       0.019458  -0.011447  -0.008186
    18     H      -0.068870  -0.175451   0.019470
    19     H      -0.113332  -0.021154  -0.061886
    20     H       0.144160   0.405042  -0.005234
    21     H       0.178963   0.134063  -0.630792
    22     H      -0.177281  -0.016868  -0.100702
    23     H       0.109910  -0.108588  -0.047662
    24     H       0.000116  -0.000248   0.000169
    25    Al       0.000008  -0.000010   0.000027
    26     F       0.000011   0.000013  -0.000026
    27     F      -0.000012   0.000015  -0.000011
    28     F      -0.000001   0.000002  -0.000007
 
 Mode:    81      Frequency (cm-1):     3087.3191     Intensity (km/mol):       14.4803
 Index  Atom      ---- Displacements (x/y/z) ----
     1     H      -0.000671  -0.013639  -0.001295
     2     C       0.000909   0.005492  -0.000571
     3     C      -0.000031   0.001181   0.000166
     4     C       0.000024   0.000038  -0.000004
     5     O       0.000007  -0.000011  -0.000004
     6     H      -0.015359  -0.069260   0.003933
     7     H      -0.001749   0.000050   0.000159
     8     H       0.040839   0.014468   0.021959
     9     C      -0.003504  -0.002424  -0.001729
    10     H       0.001355   0.014033  -0.001712
    11     C       0.049784   0.068721   0.018292
    12     C       0.001306   0.001667   0.000266
    13     C       0.016432   0.022842  -0.010764
    14     C       0.003985  -0.001274   0.000612
    15     H      -0.000973  -0.002688   0.007303
    16     H      -0.413396  -0.013570  -0.249549
    17     H       0.108526  -0.082968  -0.054096
    18     H      -0.291901  -0.726281   0.084181
    19     H      -0.067909  -0.000378  -0.054425
    20     H      -0.082260  -0.240736   0.007442
    21     H      -0.047273  -0.035490   0.175113
    22     H      -0.035993  -0.005379  -0.022863
    23     H      -0.015066   0.015251   0.009150
    24     H       0.000015  -0.000216  -0.000160
    25    Al      -0.000046  -0.000004  -0.000014
    26     F       0.000016   0.000002   0.000017
    27     F       0.000100   0.000058   0.000019
    28     F       0.000017  -0.000000  -0.000000
 
 Mode:    82      Frequency (cm-1):     3101.4475     Intensity (km/mol):        8.7220
 Index  Atom      ---- Displacements (x/y/z) ----
     1     H       0.000199   0.021568   0.001857
     2     C      -0.001830  -0.015050   0.001449
     3     C      -0.000247  -0.001547  -0.000229
     4     C       0.000040   0.000009  -0.000204
     5     O      -0.000034  -0.000042   0.000063
     6     H       0.032134   0.168812  -0.015403
     7     H      -0.553360   0.346832   0.276641
     8     H       0.005733  -0.021670  -0.006107
     9     C       0.037371  -0.080021  -0.013724
    10     H       0.094736   0.634357  -0.107261
    11     C      -0.001114  -0.002561  -0.000460
    12     C      -0.000112  -0.000144  -0.000183
    13     C       0.001284   0.004757  -0.011535
    14     C      -0.000655  -0.000379   0.010674
    15     H       0.023631   0.024636  -0.103690
    16     H       0.008882   0.000405   0.005403
    17     H      -0.005673   0.005053   0.002878
    18     H       0.010116   0.025201  -0.003074
    19     H       0.033905   0.005121   0.021294
    20     H      -0.013096  -0.033903  -0.001293
    21     H      -0.033196  -0.027005   0.122623
    22     H      -0.033665  -0.002404  -0.019908
    23     H       0.016909  -0.016887  -0.005982
    24     H       0.000072   0.001416   0.000228
    25    Al       0.000046   0.000009  -0.000024
    26     F      -0.000046  -0.000006   0.000002
    27     F      -0.000028  -0.000033   0.000026
    28     F      -0.000013   0.000002   0.000005
 
 Mode:    83      Frequency (cm-1):     3107.3346     Intensity (km/mol):        3.8202
 Index  Atom      ---- Displacements (x/y/z) ----
     1     H       0.000073  -0.011113  -0.000969
     2     C       0.001844   0.006845  -0.000252
     3     C      -0.000048   0.000866  -0.000044
     4     C      -0.000001   0.000017  -0.000090
     5     O      -0.000017  -0.000001   0.000034
     6     H      -0.017037  -0.081426   0.007759
     7     H      -0.251556   0.186939   0.139009
     8     H      -0.716404  -0.257755  -0.383568
     9     C       0.083339   0.035497   0.015626
    10     H      -0.030373  -0.351842   0.058890
    11     C       0.001277   0.001320   0.000498
    12     C       0.000110   0.000168  -0.000650
    13     C       0.001627   0.003720  -0.005610
    14     C       0.000748   0.000008  -0.006608
    15     H      -0.014664  -0.016260   0.063756
    16     H      -0.011325  -0.000567  -0.006888
    17     H       0.001110  -0.000683  -0.000502
    18     H      -0.006138  -0.015427   0.002152
    19     H       0.009849   0.001875   0.005428
    20     H      -0.011448  -0.033250   0.000421
    21     H      -0.017458  -0.013189   0.063811
    22     H       0.018682   0.001393   0.010833
    23     H      -0.013163   0.013165   0.005780
    24     H       0.000095  -0.000147  -0.000126
    25    Al      -0.000030   0.000002   0.000032
    26     F       0.000101   0.000068  -0.000048
    27     F       0.000015   0.000013  -0.000018
    28     F       0.000008  -0.000003  -0.000007
 
 Mode:    84      Frequency (cm-1):     3510.2691     Intensity (km/mol):        3.9903
 Index  Atom      ---- Displacements (x/y/z) ----
     1     H       0.007373  -0.015437  -0.007160
     2     C      -0.000333  -0.000164   0.000220
     3     C      -0.000004   0.003343   0.000509
     4     C       0.000247  -0.005004  -0.000993
     5     O      -0.022982  -0.056414  -0.006332
     6     H      -0.000464  -0.001182   0.000023
     7     H       0.000309  -0.000500   0.000588
     8     H       0.000252  -0.000067   0.000332
     9     C      -0.000098   0.000188  -0.000107
    10     H      -0.000102  -0.000659   0.000244
    11     C       0.000008  -0.000083   0.000004
    12     C       0.000157   0.000122   0.000044
    13     C      -0.000068  -0.000031  -0.000031
    14     C      -0.000047   0.000057   0.000020
    15     H      -0.000002  -0.000016   0.000098
    16     H      -0.000217  -0.000007  -0.000289
    17     H      -0.000432   0.000618   0.000107
    18     H       0.000053   0.000068   0.000009
    19     H      -0.000032   0.000182   0.000125
    20     H       0.000084   0.000084   0.000010
    21     H       0.000087   0.000045   0.000006
    22     H       0.000046  -0.000190  -0.000055
    23     H       0.000422  -0.000549  -0.000330
    24     H       0.355134   0.925837   0.112107
    25    Al       0.000151   0.000375  -0.000058
    26     F      -0.000007  -0.000104  -0.000101
    27     F       0.000066  -0.000103   0.000082
    28     F      -0.000068  -0.000016   0.000032

PES point character: Geometry corresponds to a local minimum on the PES.




 ============================
 Statistical Thermal Analysis  ***  ideal gas assumed  ***
 ============================
  
 Pressure:                  1.000000 atm.
 Temperature:             298.150000 K



 Moments of Inertia [amu*bohr^2] and principal axis
 ==================================================

        1707.1902       4812.9069       5000.0786
 ------------------------------------------------
           0.9203         -0.3633         -0.1454
           0.3897          0.8843          0.2571
          -0.0351          0.2933         -0.9554


 The rotational contribution to the molecular entropy includes
 a term, dependent on the symmetry number sigma. The results 
 reported below were computed using sigma = 1, determined from
 the point group symmetry of the input geometry (NOSYM). 
 If this is not the correct symmetry, try symmetrizing the molecule before
 running the calculation (note: linear molecules should be aligned along one
 of the Cartesian axes).
 Contributions from frequencies below 20 1/cm are not included in vibrational sums.
 Their contributions, if any, are reported separately.


     Temp                                                        Transl      Rotat     Vibrat     Total
     ----                                                        ------      -----     ------     -----

     298.15   Entropy (cal/mol-K):                               41.945     32.085     56.132    130.162
              Nuclear Internal Energy (kcal/mol):                 0.889      0.889    145.116    146.893
              Constant Volume Heat Capacity (cal/mol-K):          2.981      2.981     54.025     59.986
          (c) Constant Volume Heat Capacity (cal/mol-K):          2.981      2.981     50.415     56.376

 Contributions from frequencies below 20 1/cm
 Frequency (1/cm):                                   18.781
 Entropy (cal/mol-K):                                 6.759
 Nuclear Internal Energy (kcal/mol):                  0.593
 Constant Volume Heat Capacity (cal/mol-K):           1.986

       Summary of energy terms
                                                   hartree              eV         kcal/mol           kJ/mol
                                      --------------------     -----------       ----------      -----------
      Energy from Engine:               -5.443276198308958       -148.1191         -3415.71        -14291.32
      Nuclear Internal Energy:           0.234088942433244          6.3699           146.89           614.60
  (c) Nuclear Internal Energy:           0.232215728514990          6.3189           145.72           609.68
      Internal Energy U:                -5.209187255875714       -141.7492         -3268.81        -13676.72
      pV/n = RT:                         0.000944186013486          0.0257             0.59             2.48
      Enthalpy H:                       -5.208243069862228       -141.7235         -3268.22        -13674.24
      -T*S:                             -0.061844358238408         -1.6829           -38.81          -162.37
  (c) -T*S:                             -0.061480380341124         -1.6730           -38.58          -161.42
      Gibbs free energy:                -5.270087428100635       -143.4064         -3307.03        -13836.61
 
 
 
  (c) The properties marked with this symbol have been corrected using 'low vibrational frequency free rotor
      interpolation corrections'. For those terms all positive frequencies are used (also ones below 20 1/cm),
      but the contribution to the partition function of small vibrational frequencies is modified as described
      in the following paper:
      S. Grimme, 'Supramolecular Binding Thermodynamics by Dispersion-Corrected Density Functional Theory'
      (Chem. Eur. J. 2012, 18, 9955-9964)
      Configuration: Dampener Frequency          :   100.000 1/cm
                     Dampener Alpha              :     4.000
                     Averaging Moment of Inertia : 1.000E-44 kg m2

--------------
Atomic charges
--------------
  Index   Atom    Charge
      1      H   -0.2141
      2      C    0.1842
      3      C    0.2951
      4      C    0.1023
      5      O   -0.2790
      6      H   -0.1150
      7      H   -0.2224
      8      H   -0.1821
      9      C    0.6844
     10      H   -0.2297
     11      C    0.7471
     12      C   -0.0564
     13      C    0.7538
     14      C    0.7499
     15      H   -0.2439
     16      H   -0.2487
     17      H   -0.2545
     18      H   -0.1903
     19      H   -0.2418
     20      H   -0.2370
     21      H   -0.2465
     22      H   -0.2317
     23      H   -0.2637
     24      H    0.1516
     25     Al    1.7288
     26      F   -0.6522
     27      F   -0.6509
     28      F   -0.6373


Dipole moment vector    (Debye):    -5.83161870   -7.92809888   -0.02119825
              magnitude (Debye):     9.84189910


Final PES point is a local minimum. Geometry optimization successful!


AMS application finished. Exiting.
NORMAL TERMINATION
     Total cpu time:  276346.41
  Total system time:     697.80
 Total elapsed time:  514464.10
