
 *******************************************************************************
 *                                                                             *
 *  --------------------------------                                           *
 *   Amsterdam Modeling Suite (AMS)              2021.102                      *
 *  --------------------------------                                           *
 *                                               r95042 2021-06-07             *
 *                                                                             *
 *                                                                             *
 *                              =================                              *
 *                              |               |                              *
 *                              |     A M S     |                              *
 *                              |               |                              *
 *                              =================                              *
 *                                                                             *
 *                                                                             *
 *   Online information and documentation:  https://www.scm.com/support/       *
 *   E-mail:  support@scm.com   info@scm.com                                   *
 *                                                                             *
 *   Scientific publications using AMS results must be properly referenced     *
 *   See the User Manuals (or the web site) for recommended citations          *
 *   The terms and conditions of the End User License Agreement apply to       *
 *   the use of AMS, https://www.scm.com/license-terms/                        *
 *                                                                             *
 **********************  x86_64_linux_intel / intelmpi  ************************
 
 Licensed to: VU/FEW (+ SARA) / ALGEMEEN / Amsterdam / THE NETHERLANDS
 SCM User ID: u7668
  
 AMS 2021.102  RunTime: Jan20-2022 14:27:06  ShM Nodes: 1  Procs: 1

 AMS jobname: 16.no_catalyst_H_H.P1
 AMS jobid  : 1506153261

 Start   directory: /scistor/tc/yhk800/MasterProject/calculations/no_catalyst_H_H/16.no_catalyst_H_H.P1/
 Results directory: /scistor/tc/yhk800/MasterProject/calculations/no_catalyst_H_H/16.no_catalyst_H_H.P1/
 Scratch directory: /scratch/3545/amstmp_16.no_catalyst_H_H.P1_kid0.1506153261/

 RNG seed: -1350681920 1332354022 -2084031904 1521560214 975256606 -889742083 725778166 -693465333



                      ************************************************************************
                      *  ADF 2021.102  RunTime: Jan20-2022 14:27:07  ShM Nodes: 1  Procs: 1  *
                      ************************************************************************
  
       ***************************
       *  GEOMETRY OPTIMIZATION  *
       ***************************

Optimization Method                    Quasi Newton
Optimization Coordinates               Delocalized Coordinates
Optimize lattice                       F
 
 ------------------------------------------------------
 Convergence criteria (Hartree,Angstrom)
 ------------------------------------------------------
 Maximum gradient               0.001000000000
 Maximum rms gradient           0.000666666667
 Maximum step allowed           0.010000000000
 Maximum rms step allowed       0.006666666667
 Maximum energy change allowe   0.000120000000
 Maximum stress energy allowe   0.000500000000
 
Initial model Hessian                  Automatic Hessian
 
------------------------------------
Quasi-Newton Optimizer Parameters
------------------------------------
Hessian Update Method                  BFGS
Maximum number of steps                  250
First GDIIS cycle                          0
Maximum GDIIS vectors                      0
Trust radius (bohr)                        0.200000
Trust radius varies                        T
Constraints converged at all steps         T
Use projector                              T
 
 Rigid motions settings for: old optimizer
 Atomic rotations (x,y,z):     T T T
 Atomic translations (x,y,z):  T T T
 Tolerance:                   1.000000000000000E-006
 
--------
Geometry
--------
Formula: C4H7O
Atoms
  Index Symbol   x (angstrom)   y (angstrom)   z (angstrom)
      1      C     0.07237900     0.45849000     0.14701600
      2      C     0.88136400    -0.76962700     0.34543400
      3      H     0.32008500    -1.64937000     0.00848400
      4      C    -1.24453700     0.48140500    -0.41210600
      5      H     0.49150900     1.42171500     0.44020400
      6      O    -1.90880100     1.51397000    -0.58363800
      7      C     1.35798400    -0.97156700     1.79839200
      8      H     1.97578900    -1.87216200     1.87186400
      9      H     0.50807500    -1.08370100     2.47848500
     10      H     1.95613700    -0.12156000     2.14194000
     11      H     1.74870570    -0.70794881    -0.27811565
     12      H    -1.65069784    -0.46912828    -0.68854743
 
Total System Charge             0.00000
 
 
----------------
ADF Engine Input
----------------
 
 NumericalQuality VeryGood
 SCF
 Converge 1.0e-6
 Iterations 99
 End
 SYMMETRY NOSYM
 SpinPolarization 1.0
 Unrestricted Yes
 XC
 GGA OLYP
 End
 basis
 core None
 type TZ2P
 End
 

 Title: *** (NO TITLE) ***

 Using automatic Hessian for delocalized coordinates.
 *** GOStep1 ***

 Energy gradients wrt nuclear displacements
 ==========================================

     Atom      Cartesian (a.u./angstrom)
                 X         Y         Z
 ----------------------------------------
     1 C     0.000772 -0.002703 -0.000852
     2 C     0.029880  0.002821 -0.021141
     3 H     0.000797  0.000325 -0.000595
     4 C    -0.021970 -0.038917 -0.013766
     5 H    -0.000366  0.000025 -0.000025
     6 O     0.002512 -0.005571  0.000543
     7 C     0.001022  0.000238 -0.000926
     8 H    -0.000062  0.000054  0.000051
     9 H    -0.000242  0.000010 -0.000184
    10 H    -0.000026 -0.000078  0.000105
    11 H    -0.032748 -0.002291  0.023085
    12 H     0.020431  0.046086  0.013706
 ----------------------------------------
 Mulliken charges used for AMS results%charges...
 
----------------------------------------------------------------------
Geometry Convergence after Step   1       (Hartree/Angstrom,Angstrom)
----------------------------------------------------------------------
current energy                               -2.38196924 Hartree
energy change                      -2.38196924     0.00012000    F
constrained gradient max            0.04608115     0.00100000    F
constrained gradient rms            0.01483600     0.00066667    F
gradient max                        0.04608115
gradient rms                        0.01483600
cart. step max                      0.02135819     0.01000000    F
cart. step rms                      0.00660723     0.00666667    T
 
 
--------
Geometry
--------
Formula: C4H7O
Atoms
  Index Symbol   x (angstrom)   y (angstrom)   z (angstrom)
      1      C     0.07413520     0.46112599     0.14794010
      2      C     0.88349580    -0.76809328     0.34446323
      3      H     0.31939995    -1.64693735     0.00898000
      4      C    -1.24490409     0.48393538    -0.40757987
      5      H     0.49556948     1.42405809     0.43904355
      6      O    -1.90591395     1.52205287    -0.57882841
      7      C     1.35482760    -0.97128610     1.79939147
      8      H     1.97095464    -1.87296774     1.87427662
      9      H     0.50345686    -1.08184757     2.47784358
     10      H     1.95385129    -0.12236267     2.14416983
     11      H     1.77006389    -0.70678598    -0.29023997
     12      H    -1.66694481    -0.49037574    -0.69004820
 
Total System Charge             0.00000
 
 *** GOStep2 ***

 Energy gradients wrt nuclear displacements
 ==========================================

     Atom      Cartesian (a.u./angstrom)
                 X         Y         Z
 ----------------------------------------
     1 C     0.000822  0.000418  0.000630
     2 C     0.010680  0.000913 -0.007410
     3 H    -0.000234 -0.000123  0.000192
     4 C    -0.005867 -0.018597 -0.004263
     5 H     0.000218  0.000055  0.000142
     6 O    -0.001773  0.003647 -0.000494
     7 C    -0.000380 -0.000073 -0.000056
     8 H    -0.000027 -0.000000 -0.000032
     9 H     0.000069 -0.000022  0.000158
    10 H    -0.000034  0.000006 -0.000088
    11 H    -0.009885 -0.000752  0.007016
    12 H     0.006410  0.014527  0.004205
 ----------------------------------------
 Mulliken charges used for AMS results%charges...

 dE(predicted):    -0.12120E-02, dE(actual):    -0.15557E-02, Trust radius:    0.200000, all in a.u.
 
----------------------------------------------------------------------
Geometry Convergence after Step   2       (Hartree/Angstrom,Angstrom)
----------------------------------------------------------------------
current energy                               -2.38352492 Hartree
energy change                      -0.00155569     0.00012000    F
constrained gradient max            0.01860485     0.00100000    F
constrained gradient rms            0.00528063     0.00066667    F
gradient max                        0.01860485
gradient rms                        0.00528063
cart. step max                      0.00860899     0.01000000    T
cart. step rms                      0.00278519     0.00666667    T
 
 
--------
Geometry
--------
Formula: C4H7O
Atoms
  Index Symbol   x (angstrom)   y (angstrom)   z (angstrom)
      1      C     0.07538206     0.46248988     0.14648028
      2      C     0.88273343    -0.76768168     0.34485955
      3      H     0.31917366    -1.64606187     0.00765660
      4      C    -1.24305766     0.48732370    -0.40782156
      5      H     0.49755899     1.42515169     0.43690370
      6      O    -1.90508125     1.52247636    -0.57375690
      7      C     1.35348220    -0.97108953     1.80004854
      8      H     1.96895516    -1.87319269     1.87549482
      9      H     0.50106010    -1.08124311     2.47718278
     10      H     1.95264360    -0.12262885     2.14581989
     11      H     1.77835560    -0.70604327    -0.29433512
     12      H    -1.67321403    -0.49898473    -0.68912065
 
Total System Charge             0.00000
 
 *** GOStep3 ***

 Energy gradients wrt nuclear displacements
 ==========================================

     Atom      Cartesian (a.u./angstrom)
                 X         Y         Z
 ----------------------------------------
     1 C    -0.001133  0.001147  0.000425
     2 C     0.001588 -0.000224 -0.001220
     3 H    -0.000290 -0.000135  0.000171
     4 C    -0.000053 -0.002538 -0.001875
     5 H     0.000063 -0.000053  0.000026
     6 O     0.000287 -0.000236  0.000628
     7 C    -0.000308 -0.000043  0.000252
     8 H     0.000032 -0.000037 -0.000005
     9 H     0.000087  0.000000  0.000019
    10 H     0.000044  0.000017  0.000007
    11 H    -0.000654 -0.000093  0.000603
    12 H     0.000336  0.002195  0.000968
 ----------------------------------------
 Mulliken charges used for AMS results%charges...

 dE(predicted):    -0.17905E-03, dE(actual):    -0.19725E-03, Trust radius:    0.200000, all in a.u.
 
----------------------------------------------------------------------
Geometry Convergence after Step   3       (Hartree/Angstrom,Angstrom)
----------------------------------------------------------------------
current energy                               -2.38372218 Hartree
energy change                      -0.00019725     0.00012000    F
constrained gradient max            0.00254789     0.00100000    F
constrained gradient rms            0.00082172     0.00066667    F
gradient max                        0.00254789
gradient rms                        0.00082172
cart. step max                      0.01382690     0.01000000    F
cart. step rms                      0.00410592     0.00666667    T
 
 
--------
Geometry
--------
Formula: C4H7O
Atoms
  Index Symbol   x (angstrom)   y (angstrom)   z (angstrom)
      1      C     0.07244674     0.46233540     0.15108350
      2      C     0.87926162    -0.76798237     0.34773360
      3      H     0.31516446    -1.64624071     0.01157148
      4      C    -1.24793987     0.48814601    -0.39881266
      5      H     0.49592191     1.42490533     0.43989654
      6      O    -1.90324467     1.52435037    -0.58299156
      7      C     1.35619812    -0.97148109     1.80075295
      8      H     1.97190566    -1.87360523     1.87363229
      9      H     0.50630007    -1.08173482     2.48108288
     10      H     1.95663371    -0.12303722     2.14426846
     11      H     1.77396227    -0.70612196    -0.29585800
     12      H    -1.66861815    -0.49901779    -0.70294755
 
Total System Charge             0.00000
 
 *** GOStep4 ***

 Energy gradients wrt nuclear displacements
 ==========================================

     Atom      Cartesian (a.u./angstrom)
                 X         Y         Z
 ----------------------------------------
     1 C     0.000307  0.000700 -0.002085
     2 C    -0.000562 -0.000340  0.000486
     3 H    -0.000117 -0.000032  0.000070
     4 C    -0.001920 -0.000136  0.006519
     5 H    -0.000032 -0.000055 -0.000049
     6 O     0.000911  0.000174 -0.002054
     7 C    -0.000049 -0.000098  0.000152
     8 H     0.000031 -0.000026  0.000038
     9 H     0.000034  0.000002 -0.000033
    10 H     0.000040  0.000006  0.000018
    11 H     0.000871  0.000102 -0.000545
    12 H     0.000485 -0.000297 -0.002515
 ----------------------------------------
 Mulliken charges used for AMS results%charges...

 dE(predicted):    -0.18443E-04, dE(actual):     0.40358E-04, Trust radius:    0.020000, all in a.u.
 
----------------------------------------------------------------------
Geometry Convergence after Step   4       (Hartree/Angstrom,Angstrom)
----------------------------------------------------------------------
current energy                               -2.38368182 Hartree
energy change                       0.00004036     0.00012000    T
constrained gradient max            0.00651515     0.00100000    F
constrained gradient rms            0.00134019     0.00066667    F
gradient max                        0.00651515
gradient rms                        0.00134019
cart. step max                      0.00529697     0.01000000    T
cart. step rms                      0.00163052     0.00666667    T
 
 
--------
Geometry
--------
Formula: C4H7O
Atoms
  Index Symbol   x (angstrom)   y (angstrom)   z (angstrom)
      1      C     0.07389724     0.46247679     0.14925773
      2      C     0.88019711    -0.76782919     0.34694338
      3      H     0.31654327    -1.64601301     0.00990964
      4      C    -1.24576079     0.48832004    -0.40269642
      5      H     0.49712218     1.42502415     0.43862050
      6      O    -1.90491720     1.52356986    -0.57913529
      7      C     1.35513223    -0.97134048     1.80053986
      8      H     1.97064350    -1.87352084     1.87417701
      9      H     0.50432046    -1.08152701     2.47976588
     10      H     1.95516456    -0.12294010     2.14482041
     11      H     1.77524654    -0.70610085    -0.29514020
     12      H    -1.66959725    -0.49960345    -0.69765058
 
Total System Charge             0.00000
 
 *** GOStep5 ***

 Energy gradients wrt nuclear displacements
 ==========================================

     Atom      Cartesian (a.u./angstrom)
                 X         Y         Z
 ----------------------------------------
     1 C     0.000135  0.000355 -0.000984
     2 C    -0.000092 -0.000220  0.000074
     3 H    -0.000076 -0.000003  0.000043
     4 C    -0.000784 -0.000469  0.003210
     5 H    -0.000011 -0.000027 -0.000049
     6 O     0.000235  0.000338 -0.001047
     7 C    -0.000038 -0.000032  0.000118
     8 H     0.000016 -0.000020  0.000006
     9 H     0.000015  0.000001 -0.000021
    10 H     0.000028 -0.000002  0.000009
    11 H     0.000301  0.000037 -0.000158
    12 H     0.000272  0.000042 -0.001201
 ----------------------------------------
 Mulliken charges used for AMS results%charges...

 dE(predicted):    -0.36194E-04, dE(actual):    -0.36830E-04, Trust radius:    0.040000, all in a.u.
 
----------------------------------------------------------------------
Geometry Convergence after Step   5       (Hartree/Angstrom,Angstrom)
----------------------------------------------------------------------
current energy                               -2.38371865 Hartree
energy change                      -0.00003683     0.00012000    T
constrained gradient max            0.00320572     0.00100000    F
constrained gradient rms            0.00065077     0.00066667    T
gradient max                        0.00320572
gradient rms                        0.00065077
cart. step max                      0.00566166     0.01000000    T
cart. step rms                      0.00147860     0.00666667    T
 
 
--------
Geometry
--------
Formula: C4H7O
Atoms
  Index Symbol   x (angstrom)   y (angstrom)   z (angstrom)
      1      C     0.07505639     0.46276687     0.14773654
      2      C     0.88075824    -0.76750989     0.34642363
      3      H     0.31765365    -1.64564030     0.00840264
      4      C    -1.24371201     0.48863802    -0.40660161
      5      H     0.49792933     1.42525087     0.43795509
      6      O    -1.90579448     1.52286146    -0.57669968
      7      C     1.35424716    -0.97133652     1.80033533
      8      H     1.96964361    -1.87354029     1.87438434
      9      H     0.50277879    -1.08164452     2.47874976
     10      H     1.95391717    -0.12299461     2.14532895
     11      H     1.77623481    -0.70576186    -0.29461415
     12      H    -1.67072080    -0.50057334    -0.69198891
 
Total System Charge             0.00000
 
 *** GOStep6 ***

 Energy gradients wrt nuclear displacements
 ==========================================

     Atom      Cartesian (a.u./angstrom)
                 X         Y         Z
 ----------------------------------------
     1 C    -0.000111  0.000054 -0.000036
     2 C     0.000013 -0.000063 -0.000088
     3 H    -0.000014  0.000018  0.000009
     4 C     0.000128  0.000005  0.000066
     5 H     0.000005  0.000001 -0.000016
     6 O     0.000011 -0.000004  0.000023
     7 C    -0.000007  0.000001  0.000068
     8 H    -0.000001 -0.000014 -0.000012
     9 H     0.000001 -0.000001 -0.000010
    10 H     0.000008 -0.000012 -0.000008
    11 H     0.000008  0.000002  0.000018
    12 H    -0.000041  0.000013 -0.000013
 ----------------------------------------
 Mulliken charges used for AMS results%charges...

 dE(predicted):    -0.11380E-04, dE(actual):    -0.11658E-04, Trust radius:    0.040000, all in a.u.
 
---------------------------------------------------------
Geometry Convergence after Step   6       ** CONVERGED **
---------------------------------------------------------
current energy                               -2.38373031 Hartree
energy change                      -0.00001166     0.00012000    T
constrained gradient max            0.00012649     0.00100000    T
constrained gradient rms            0.00003983     0.00066667    T
gradient max                        0.00012649
gradient rms                        0.00003983
cart. step max                      0.00068808     0.01000000    T
cart. step rms                      0.00021533     0.00666667    T
 
Geometry optimization converged

Optimized geometry:
 
--------
Geometry
--------
Formula: C4H7O
Atoms
  Index Symbol   x (angstrom)   y (angstrom)   z (angstrom)
      1      C     0.07505639     0.46276687     0.14773654
      2      C     0.88075824    -0.76750989     0.34642363
      3      H     0.31765365    -1.64564030     0.00840264
      4      C    -1.24371201     0.48863802    -0.40660161
      5      H     0.49792933     1.42525087     0.43795509
      6      O    -1.90579448     1.52286146    -0.57669968
      7      C     1.35424716    -0.97133652     1.80033533
      8      H     1.96964361    -1.87354029     1.87438434
      9      H     0.50277879    -1.08164452     2.47874976
     10      H     1.95391717    -0.12299461     2.14532895
     11      H     1.77623481    -0.70576186    -0.29461415
     12      H    -1.67072080    -0.50057334    -0.69198891
 
Total System Charge             0.00000
 
Performing a single point calculation on the final geometry ...

 *** adf ***



 ===========================
 A T T A C H E D   F I L E S
 ===========================
  
 Restart/scratch/3545/amstmp_16.no_catalyst_H_H.P1_kid0.1506153261/GOStep6.rkf
 *** GOStep6 ***



 ===============================
 M O D E L   P A R A M E T E R S
 ===============================
  
 DENSITY FUNCTIONAL POTENTIAL (scf)
    LDA:                               Exchange only                           == Not Default ==
    Gradient Corrections:              OPTX LYP                                == Not Default ==

 SPIN  (restricted / unrestr.)
    Molecule:                          UNrestricted                            == Not Default ==
    Fragments:                         Restricted                               

 OTHER ASPECTS
    Relativistic Corrections:          scalar (ZORA,MAPA)                       

    Nuclear Charge Density Model:      Point Charge Nuclei                      
    Core Treatment:                    Frozen Orbital(s)                        

    Hyperfine or Zeeman Interaction:   ---                                      



 ===============
 G E O M E T R Y  ***  3D  Molecule  ***
 ===============
  

 ATOMS
 =====                            X Y Z                    CHARGE
                                (Angstrom)             Nucl     +Core       At.Mass
                       --------------------------    ----------------       -------
    1  C               0.0751    0.4628    0.1477      6.00      6.00       12.0000
    2  C               0.8808   -0.7675    0.3464      6.00      6.00       12.0000
    3  H               0.3177   -1.6456    0.0084      1.00      1.00        1.0078
    4  C              -1.2437    0.4886   -0.4066      6.00      6.00       12.0000
    5  H               0.4979    1.4253    0.4380      1.00      1.00        1.0078
    6  O              -1.9058    1.5229   -0.5767      8.00      8.00       15.9949
    7  C               1.3542   -0.9713    1.8003      6.00      6.00       12.0000
    8  H               1.9696   -1.8735    1.8744      1.00      1.00        1.0078
    9  H               0.5028   -1.0816    2.4787      1.00      1.00        1.0078
   10  H               1.9539   -0.1230    2.1453      1.00      1.00        1.0078
   11  H               1.7762   -0.7058   -0.2946      1.00      1.00        1.0078
   12  H              -1.6707   -0.5006   -0.6920      1.00      1.00        1.0078


 FRAGMENTS
 =========                                     Atoms in this Fragment     Cart. coord.s (Angstrom)
                                               -------------------------------------------------------
    1  C                                                 1  C            0.0751    0.4628    0.1477
    2  C                                                 2  C            0.8808   -0.7675    0.3464
    3  C                                                 4  C           -1.2437    0.4886   -0.4066
    4  C                                                 7  C            1.3542   -0.9713    1.8003
    5  H                                                 3  H            0.3177   -1.6456    0.0084
    6  H                                                 5  H            0.4979    1.4253    0.4380
    7  H                                                 8  H            1.9696   -1.8735    1.8744
    8  H                                                 9  H            0.5028   -1.0816    2.4787
    9  H                                                10  H            1.9539   -0.1230    2.1453
   10  H                                                11  H            1.7762   -0.7058   -0.2946
   11  H                                                12  H           -1.6707   -0.5006   -0.6920
   12  O                                                 6  O           -1.9058    1.5229   -0.5767


 Interatomic Distance Matrix (Angstrom)
 --------------------------------------

   1)     0.000
   2)     1.484   0.000
   3)     2.127   1.097   0.000
   4)     1.431   2.580   2.677   0.000
   5)     1.091   2.228   3.106   2.150   0.000
   6)     2.361   3.723   3.915   1.240   2.611   0.000
   7)     2.535   1.543   2.177   3.708   2.887   4.743   0.000
   8)     3.468   2.178   2.503   4.594   3.887   5.706   1.095   0.000
   9)     2.829   2.188   2.541   3.720   3.233   4.682   1.094   1.773   0.000
  10)     2.804   2.192   3.092   4.137   2.726   5.002   1.095   1.771   1.771   0.000
  11)     2.111   1.103   1.761   3.249   2.591   4.313   2.153   2.471   3.075   2.515
          0.000
  12)     2.164   2.768   2.399   1.115   3.113   2.040   3.948   4.661   3.888   4.619
          3.476   0.000

 Min. Distance =    1.0906
 Max. Distance =    5.7063



 =====================================
 S Y M M E T R Y ,   E L E C T R O N S
 =====================================
  
 Symmetry: NOSYM

 Irreducible Representations, including subspecies
 -------------------------------------------------
 A


 Configuration of Valence Electrons
 ==================================
 ( determined in the SCF procedure )

 Total:   20 (Spin-A)  + 19 (Spin-B)

 Net Charge: 0 (Nuclei minus Electrons)
 Spin polar: 1 (Spin_A minus Spin_B electrons)

 Aufbau principle for MO occupations will be applied through SCF cycle no.      49
 Thereafter, the program will assign electrons to MOs that are spatially
 similar to the occupied MOs in a "reference" cycle ("KeepOrbitals").
 The reference cycle is always the PREVIOUS cycle: it will evolve with
 the SCF procedure.
1
 ***************************************************************************************************



                                      ****************************************
                                      *  B U I L D : (Fragments, Functions)  *
                                      ****************************************
  



 =======
 S F O s  ***  (Symmetrized Fragment Orbitals)  ***
 =======
  
 SFOs are linear combinations of (valence) Fragment Orbitals (FOs), such that the SFOs transform as the
 irreducible representations of the (molecular) symmetry group. Each SFO is therefore characterized by
 an irrep of the molecule and by a few (or only one) generating FOs.
 The SFOs constitute a symmetry-adapted basis for the Fock matrix. The MO eigenvector coefficients in
 this basis provide a direct interpretation of the MOs in terms of Frontier Orbital Theory.

 The SFOs are combined with auxiliary Core Functions (CFs) to ensure orthogonalization on the (frozen)
 Core Orbitals (COs). The Core-orthogonalized SFOs (CSFOs) constitute the true Fock basis.

 The FOs, and hence also the (C)SFOs are combinations of the elementary basis functions (BAS). The basis
 functions that participate in the description of the SFOs depend on the irrep. The indices of the
 involved functions are printed below for each irrep.
 (The complete list of primitive basis functions is printed in another section)

 Total nr. of (C)SFOs (summation over all irreps) :   207

 NOTE: a (C)SFO that is defined as a combination of more than one FO is usually NOT normalized.



                                       === A ===
 Nr. of SFOs :  207
 Cartesian basis functions that participate in this irrep (total number =   234) :
      1     2     3     4     5     6     9    12     7    10
     13     8    11    14    15    16    17    18    19    20
     21    22    23    24    25    26    27    28    29    30
     31    32    33    34    35    36    39    42    37    40
     43    38    41    44    45    46    47    48    49    50
     51    52    53    54    55    56    57    58    59    60
     61    62    63    64    65    66    69    72    67    70
     73    68    71    74    75    76    77    78    79    80
     81    82    83    84    85    86    87    88    89    90
     91    92    93    94    95    96    99   102    97   100
    103    98   101   104   105   106   107   108   109   110
    111   112   113   114   115   116   117   118   119   120
    121   122   123   124   125   126   127   128   129   130
    131   132   133   134   135   136   137   138   139   140
    141   142   143   144   145   146   147   148   149   150
    151   152   153   154   155   156   157   158   159   160
    161   162   163   164   165   166   167   168   169   170
    171   172   173   174   175   176   177   178   179   180
    181   182   183   184   185   186   187   188   189   190
    191   192   193   194   195   196   197   198   199   200
    201   202   203   204   205   206   207   208   209   210
    213   216   211   214   217   212   215   218   219   220
    221   222   223   224   225   226   227   228   229   230
    231   232   233   234

    SFO  (index         Fragment          Generating    Expansion in Fragment Orbitals
  indx  incl.CFs)   Occup   Orb.Energy   FragmentType  Coeff.   Orbital     on Fragment
 --------------------------------------------------------------------------------------
     1       1      2.000     -10.064 au  C             1.00      1 S               1
                        (    -273.865 eV)
     2       2      2.000      -0.507 au  C             1.00      2 S               1
                        (     -13.802 eV)
     3       3       --         0.384 au  C             1.00      3 S               1
                        (      10.456 eV)
     4       4       --         5.458 au  C             1.00      4 S               1
                        (     148.511 eV)
     5       5       --        49.970 au  C             1.00      5 S               1
                        (    1359.766 eV)
     6       6      0.667      -0.189 au  C             1.00      1 P:x             1
                        (      -5.135 eV)
     7       7       --         0.168 au  C             1.00      2 P:x             1
                        (       4.559 eV)
     8       8       --         2.056 au  C             1.00      3 P:x             1
                        (      55.959 eV)
     9       9      0.667      -0.189 au  C             1.00      1 P:y             1
                        (      -5.135 eV)
    10      10       --         0.168 au  C             1.00      2 P:y             1
                        (       4.559 eV)
    11      11       --         2.056 au  C             1.00      3 P:y             1
                        (      55.959 eV)
    12      12      0.667      -0.189 au  C             1.00      1 P:z             1
                        (      -5.135 eV)
    13      13       --         0.168 au  C             1.00      2 P:z             1
                        (       4.559 eV)
    14      14       --         2.056 au  C             1.00      3 P:z             1
                        (      55.959 eV)
    15      15       --         1.235 au  C             1.00      1 D:z2            1
                        (      33.605 eV)
    16      16       --         1.235 au  C             1.00      1 D:x2-y2         1
                        (      33.605 eV)
    17      17       --         1.235 au  C             1.00      1 D:xy            1
                        (      33.605 eV)
    18      18       --         1.235 au  C             1.00      1 D:xz            1
                        (      33.605 eV)
    19      19       --         1.235 au  C             1.00      1 D:yz            1
                        (      33.605 eV)
    20      20       --         4.005 au  C             1.00      1 F:z3            1
                        (     108.969 eV)
    21      21       --         4.005 au  C             1.00      1 F:z             1
                        (     108.969 eV)
    22      22       --         4.005 au  C             1.00      1 F:xyz           1
                        (     108.969 eV)
    23      23       --         4.005 au  C             1.00      1 F:z2x           1
                        (     108.969 eV)
    24      24       --         4.005 au  C             1.00      1 F:z2y           1
                        (     108.969 eV)
    25      25       --         4.005 au  C             1.00      1 F:x             1
                        (     108.969 eV)
    26      26       --         4.005 au  C             1.00      1 F:y             1
                        (     108.969 eV)
    27      27      2.000     -10.064 au  C             1.00      1 S               2
                        (    -273.865 eV)
    28      28      2.000      -0.507 au  C             1.00      2 S               2
                        (     -13.802 eV)
    29      29       --         0.384 au  C             1.00      3 S               2
                        (      10.456 eV)
    30      30       --         5.458 au  C             1.00      4 S               2
                        (     148.511 eV)
    31      31       --        49.970 au  C             1.00      5 S               2
                        (    1359.766 eV)
    32      32      0.667      -0.189 au  C             1.00      1 P:x             2
                        (      -5.135 eV)
    33      33       --         0.168 au  C             1.00      2 P:x             2
                        (       4.559 eV)
    34      34       --         2.056 au  C             1.00      3 P:x             2
                        (      55.959 eV)
    35      35      0.667      -0.189 au  C             1.00      1 P:y             2
                        (      -5.135 eV)
    36      36       --         0.168 au  C             1.00      2 P:y             2
                        (       4.559 eV)
    37      37       --         2.056 au  C             1.00      3 P:y             2
                        (      55.959 eV)
    38      38      0.667      -0.189 au  C             1.00      1 P:z             2
                        (      -5.135 eV)
    39      39       --         0.168 au  C             1.00      2 P:z             2
                        (       4.559 eV)
    40      40       --         2.056 au  C             1.00      3 P:z             2
                        (      55.959 eV)
    41      41       --         1.235 au  C             1.00      1 D:z2            2
                        (      33.605 eV)
    42      42       --         1.235 au  C             1.00      1 D:x2-y2         2
                        (      33.605 eV)
    43      43       --         1.235 au  C             1.00      1 D:xy            2
                        (      33.605 eV)
    44      44       --         1.235 au  C             1.00      1 D:xz            2
                        (      33.605 eV)
    45      45       --         1.235 au  C             1.00      1 D:yz            2
                        (      33.605 eV)
    46      46       --         4.005 au  C             1.00      1 F:z3            2
                        (     108.969 eV)
    47      47       --         4.005 au  C             1.00      1 F:z             2
                        (     108.969 eV)
    48      48       --         4.005 au  C             1.00      1 F:xyz           2
                        (     108.969 eV)
    49      49       --         4.005 au  C             1.00      1 F:z2x           2
                        (     108.969 eV)
    50      50       --         4.005 au  C             1.00      1 F:z2y           2
                        (     108.969 eV)
    51      51       --         4.005 au  C             1.00      1 F:x             2
                        (     108.969 eV)
    52      52       --         4.005 au  C             1.00      1 F:y             2
                        (     108.969 eV)
    53      53      2.000     -10.064 au  C             1.00      1 S               3
                        (    -273.865 eV)
    54      54      2.000      -0.507 au  C             1.00      2 S               3
                        (     -13.802 eV)
    55      55       --         0.384 au  C             1.00      3 S               3
                        (      10.456 eV)
    56      56       --         5.458 au  C             1.00      4 S               3
                        (     148.511 eV)
    57      57       --        49.970 au  C             1.00      5 S               3
                        (    1359.766 eV)
    58      58      0.667      -0.189 au  C             1.00      1 P:x             3
                        (      -5.135 eV)
    59      59       --         0.168 au  C             1.00      2 P:x             3
                        (       4.559 eV)
    60      60       --         2.056 au  C             1.00      3 P:x             3
                        (      55.959 eV)
    61      61      0.667      -0.189 au  C             1.00      1 P:y             3
                        (      -5.135 eV)
    62      62       --         0.168 au  C             1.00      2 P:y             3
                        (       4.559 eV)
    63      63       --         2.056 au  C             1.00      3 P:y             3
                        (      55.959 eV)
    64      64      0.667      -0.189 au  C             1.00      1 P:z             3
                        (      -5.135 eV)
    65      65       --         0.168 au  C             1.00      2 P:z             3
                        (       4.559 eV)
    66      66       --         2.056 au  C             1.00      3 P:z             3
                        (      55.959 eV)
    67      67       --         1.235 au  C             1.00      1 D:z2            3
                        (      33.605 eV)
    68      68       --         1.235 au  C             1.00      1 D:x2-y2         3
                        (      33.605 eV)
    69      69       --         1.235 au  C             1.00      1 D:xy            3
                        (      33.605 eV)
    70      70       --         1.235 au  C             1.00      1 D:xz            3
                        (      33.605 eV)
    71      71       --         1.235 au  C             1.00      1 D:yz            3
                        (      33.605 eV)
    72      72       --         4.005 au  C             1.00      1 F:z3            3
                        (     108.969 eV)
    73      73       --         4.005 au  C             1.00      1 F:z             3
                        (     108.969 eV)
    74      74       --         4.005 au  C             1.00      1 F:xyz           3
                        (     108.969 eV)
    75      75       --         4.005 au  C             1.00      1 F:z2x           3
                        (     108.969 eV)
    76      76       --         4.005 au  C             1.00      1 F:z2y           3
                        (     108.969 eV)
    77      77       --         4.005 au  C             1.00      1 F:x             3
                        (     108.969 eV)
    78      78       --         4.005 au  C             1.00      1 F:y             3
                        (     108.969 eV)
    79      79      2.000     -10.064 au  C             1.00      1 S               4
                        (    -273.865 eV)
    80      80      2.000      -0.507 au  C             1.00      2 S               4
                        (     -13.802 eV)
    81      81       --         0.384 au  C             1.00      3 S               4
                        (      10.456 eV)
    82      82       --         5.458 au  C             1.00      4 S               4
                        (     148.511 eV)
    83      83       --        49.970 au  C             1.00      5 S               4
                        (    1359.766 eV)
    84      84      0.667      -0.189 au  C             1.00      1 P:x             4
                        (      -5.135 eV)
    85      85       --         0.168 au  C             1.00      2 P:x             4
                        (       4.559 eV)
    86      86       --         2.056 au  C             1.00      3 P:x             4
                        (      55.959 eV)
    87      87      0.667      -0.189 au  C             1.00      1 P:y             4
                        (      -5.135 eV)
    88      88       --         0.168 au  C             1.00      2 P:y             4
                        (       4.559 eV)
    89      89       --         2.056 au  C             1.00      3 P:y             4
                        (      55.959 eV)
    90      90      0.667      -0.189 au  C             1.00      1 P:z             4
                        (      -5.135 eV)
    91      91       --         0.168 au  C             1.00      2 P:z             4
                        (       4.559 eV)
    92      92       --         2.056 au  C             1.00      3 P:z             4
                        (      55.959 eV)
    93      93       --         1.235 au  C             1.00      1 D:z2            4
                        (      33.605 eV)
    94      94       --         1.235 au  C             1.00      1 D:x2-y2         4
                        (      33.605 eV)
    95      95       --         1.235 au  C             1.00      1 D:xy            4
                        (      33.605 eV)
    96      96       --         1.235 au  C             1.00      1 D:xz            4
                        (      33.605 eV)
    97      97       --         1.235 au  C             1.00      1 D:yz            4
                        (      33.605 eV)
    98      98       --         4.005 au  C             1.00      1 F:z3            4
                        (     108.969 eV)
    99      99       --         4.005 au  C             1.00      1 F:z             4
                        (     108.969 eV)
   100     100       --         4.005 au  C             1.00      1 F:xyz           4
                        (     108.969 eV)
   101     101       --         4.005 au  C             1.00      1 F:z2x           4
                        (     108.969 eV)
   102     102       --         4.005 au  C             1.00      1 F:z2y           4
                        (     108.969 eV)
   103     103       --         4.005 au  C             1.00      1 F:x             4
                        (     108.969 eV)
   104     104       --         4.005 au  C             1.00      1 F:y             4
                        (     108.969 eV)
   105     105      1.000      -0.238 au  H             1.00      1 S               5
                        (      -6.484 eV)
   106     106       --         0.077 au  H             1.00      2 S               5
                        (       2.096 eV)
   107     107       --         1.521 au  H             1.00      3 S               5
                        (      41.380 eV)
   108     108       --         0.410 au  H             1.00      1 P:x             5
                        (      11.162 eV)
   109     109       --         0.410 au  H             1.00      1 P:y             5
                        (      11.162 eV)
   110     110       --         0.410 au  H             1.00      1 P:z             5
                        (      11.162 eV)
   111     111       --         2.567 au  H             1.00      1 D:z2            5
                        (      69.838 eV)
   112     112       --         2.567 au  H             1.00      1 D:x2-y2         5
                        (      69.838 eV)
   113     113       --         2.567 au  H             1.00      1 D:xy            5
                        (      69.838 eV)
   114     114       --         2.567 au  H             1.00      1 D:xz            5
                        (      69.838 eV)
   115     115       --         2.567 au  H             1.00      1 D:yz            5
                        (      69.838 eV)
   116     116      1.000      -0.238 au  H             1.00      1 S               6
                        (      -6.484 eV)
   117     117       --         0.077 au  H             1.00      2 S               6
                        (       2.096 eV)
   118     118       --         1.521 au  H             1.00      3 S               6
                        (      41.380 eV)
   119     119       --         0.410 au  H             1.00      1 P:x             6
                        (      11.162 eV)
   120     120       --         0.410 au  H             1.00      1 P:y             6
                        (      11.162 eV)
   121     121       --         0.410 au  H             1.00      1 P:z             6
                        (      11.162 eV)
   122     122       --         2.567 au  H             1.00      1 D:z2            6
                        (      69.838 eV)
   123     123       --         2.567 au  H             1.00      1 D:x2-y2         6
                        (      69.838 eV)
   124     124       --         2.567 au  H             1.00      1 D:xy            6
                        (      69.838 eV)
   125     125       --         2.567 au  H             1.00      1 D:xz            6
                        (      69.838 eV)
   126     126       --         2.567 au  H             1.00      1 D:yz            6
                        (      69.838 eV)
   127     127      1.000      -0.238 au  H             1.00      1 S               7
                        (      -6.484 eV)
   128     128       --         0.077 au  H             1.00      2 S               7
                        (       2.096 eV)
   129     129       --         1.521 au  H             1.00      3 S               7
                        (      41.380 eV)
   130     130       --         0.410 au  H             1.00      1 P:x             7
                        (      11.162 eV)
   131     131       --         0.410 au  H             1.00      1 P:y             7
                        (      11.162 eV)
   132     132       --         0.410 au  H             1.00      1 P:z             7
                        (      11.162 eV)
   133     133       --         2.567 au  H             1.00      1 D:z2            7
                        (      69.838 eV)
   134     134       --         2.567 au  H             1.00      1 D:x2-y2         7
                        (      69.838 eV)
   135     135       --         2.567 au  H             1.00      1 D:xy            7
                        (      69.838 eV)
   136     136       --         2.567 au  H             1.00      1 D:xz            7
                        (      69.838 eV)
   137     137       --         2.567 au  H             1.00      1 D:yz            7
                        (      69.838 eV)
   138     138      1.000      -0.238 au  H             1.00      1 S               8
                        (      -6.484 eV)
   139     139       --         0.077 au  H             1.00      2 S               8
                        (       2.096 eV)
   140     140       --         1.521 au  H             1.00      3 S               8
                        (      41.380 eV)
   141     141       --         0.410 au  H             1.00      1 P:x             8
                        (      11.162 eV)
   142     142       --         0.410 au  H             1.00      1 P:y             8
                        (      11.162 eV)
   143     143       --         0.410 au  H             1.00      1 P:z             8
                        (      11.162 eV)
   144     144       --         2.567 au  H             1.00      1 D:z2            8
                        (      69.838 eV)
   145     145       --         2.567 au  H             1.00      1 D:x2-y2         8
                        (      69.838 eV)
   146     146       --         2.567 au  H             1.00      1 D:xy            8
                        (      69.838 eV)
   147     147       --         2.567 au  H             1.00      1 D:xz            8
                        (      69.838 eV)
   148     148       --         2.567 au  H             1.00      1 D:yz            8
                        (      69.838 eV)
   149     149      1.000      -0.238 au  H             1.00      1 S               9
                        (      -6.484 eV)
   150     150       --         0.077 au  H             1.00      2 S               9
                        (       2.096 eV)
   151     151       --         1.521 au  H             1.00      3 S               9
                        (      41.380 eV)
   152     152       --         0.410 au  H             1.00      1 P:x             9
                        (      11.162 eV)
   153     153       --         0.410 au  H             1.00      1 P:y             9
                        (      11.162 eV)
   154     154       --         0.410 au  H             1.00      1 P:z             9
                        (      11.162 eV)
   155     155       --         2.567 au  H             1.00      1 D:z2            9
                        (      69.838 eV)
   156     156       --         2.567 au  H             1.00      1 D:x2-y2         9
                        (      69.838 eV)
   157     157       --         2.567 au  H             1.00      1 D:xy            9
                        (      69.838 eV)
   158     158       --         2.567 au  H             1.00      1 D:xz            9
                        (      69.838 eV)
   159     159       --         2.567 au  H             1.00      1 D:yz            9
                        (      69.838 eV)
   160     160      1.000      -0.238 au  H             1.00      1 S              10
                        (      -6.484 eV)
   161     161       --         0.077 au  H             1.00      2 S              10
                        (       2.096 eV)
   162     162       --         1.521 au  H             1.00      3 S              10
                        (      41.380 eV)
   163     163       --         0.410 au  H             1.00      1 P:x            10
                        (      11.162 eV)
   164     164       --         0.410 au  H             1.00      1 P:y            10
                        (      11.162 eV)
   165     165       --         0.410 au  H             1.00      1 P:z            10
                        (      11.162 eV)
   166     166       --         2.567 au  H             1.00      1 D:z2           10
                        (      69.838 eV)
   167     167       --         2.567 au  H             1.00      1 D:x2-y2        10
                        (      69.838 eV)
   168     168       --         2.567 au  H             1.00      1 D:xy           10
                        (      69.838 eV)
   169     169       --         2.567 au  H             1.00      1 D:xz           10
                        (      69.838 eV)
   170     170       --         2.567 au  H             1.00      1 D:yz           10
                        (      69.838 eV)
   171     171      1.000      -0.238 au  H             1.00      1 S              11
                        (      -6.484 eV)
   172     172       --         0.077 au  H             1.00      2 S              11
                        (       2.096 eV)
   173     173       --         1.521 au  H             1.00      3 S              11
                        (      41.380 eV)
   174     174       --         0.410 au  H             1.00      1 P:x            11
                        (      11.162 eV)
   175     175       --         0.410 au  H             1.00      1 P:y            11
                        (      11.162 eV)
   176     176       --         0.410 au  H             1.00      1 P:z            11
                        (      11.162 eV)
   177     177       --         2.567 au  H             1.00      1 D:z2           11
                        (      69.838 eV)
   178     178       --         2.567 au  H             1.00      1 D:x2-y2        11
                        (      69.838 eV)
   179     179       --         2.567 au  H             1.00      1 D:xy           11
                        (      69.838 eV)
   180     180       --         2.567 au  H             1.00      1 D:xz           11
                        (      69.838 eV)
   181     181       --         2.567 au  H             1.00      1 D:yz           11
                        (      69.838 eV)
   182     182      2.000     -18.926 au  O             1.00      1 S              12
                        (    -515.001 eV)
   183     183      2.000      -0.887 au  O             1.00      2 S              12
                        (     -24.136 eV)
   184     184       --         0.804 au  O             1.00      3 S              12
                        (      21.890 eV)
   185     185       --        13.488 au  O             1.00      4 S              12
                        (     367.032 eV)
   186     186       --       121.767 au  O             1.00      5 S              12
                        (    3313.451 eV)
   187     187      1.333      -0.329 au  O             1.00      1 P:x            12
                        (      -8.949 eV)
   188     188       --         0.351 au  O             1.00      2 P:x            12
                        (       9.557 eV)
   189     189       --         3.863 au  O             1.00      3 P:x            12
                        (     105.120 eV)
   190     190      1.333      -0.329 au  O             1.00      1 P:y            12
                        (      -8.949 eV)
   191     191       --         0.351 au  O             1.00      2 P:y            12
                        (       9.557 eV)
   192     192       --         3.863 au  O             1.00      3 P:y            12
                        (     105.120 eV)
   193     193      1.333      -0.329 au  O             1.00      1 P:z            12
                        (      -8.949 eV)
   194     194       --         0.351 au  O             1.00      2 P:z            12
                        (       9.557 eV)
   195     195       --         3.863 au  O             1.00      3 P:z            12
                        (     105.120 eV)
   196     196       --         1.072 au  O             1.00      1 D:z2           12
                        (      29.175 eV)
   197     197       --         1.072 au  O             1.00      1 D:x2-y2        12
                        (      29.175 eV)
   198     198       --         1.072 au  O             1.00      1 D:xy           12
                        (      29.175 eV)
   199     199       --         1.072 au  O             1.00      1 D:xz           12
                        (      29.175 eV)
   200     200       --         1.072 au  O             1.00      1 D:yz           12
                        (      29.175 eV)
   201     201       --         3.353 au  O             1.00      1 F:z3           12
                        (      91.230 eV)
   202     202       --         3.353 au  O             1.00      1 F:z            12
                        (      91.230 eV)
   203     203       --         3.353 au  O             1.00      1 F:xyz          12
                        (      91.230 eV)
   204     204       --         3.353 au  O             1.00      1 F:z2x          12
                        (      91.230 eV)
   205     205       --         3.353 au  O             1.00      1 F:z2y          12
                        (      91.230 eV)
   206     206       --         3.353 au  O             1.00      1 F:x            12
                        (      91.230 eV)
   207     207       --         3.353 au  O             1.00      1 F:y            12
                        (      91.230 eV)



 ================================
 (Slater-type)  F U N C T I O N S  ***  (Basis and Fit)  ***
 ================================
  

 Atom Type    1  (C)
 ==============

 Valence Basis Sets:  10
 -----------------------
   1 S    7.680000
   1 S    5.000000
   2 S    1.280000
   2 S    2.100000
   2 S    4.600000
   2 P    0.820000
   2 P    1.480000
   2 P    2.940000
   3 D    2.200000
   4 F    3.300000

 Atom Type    2  (H)
 ==============

 Valence Basis Sets:   5
 -----------------------
   1 S    0.690000
   1 S    0.920000
   1 S    1.580000
   2 P    1.250000
   3 D    2.500000

 Atom Type    3  (O)
 ==============

 Valence Basis Sets:  10
 -----------------------
   1 S    9.800000
   1 S    6.800000
   2 S    7.580000
   2 S    2.880000
   2 S    1.720000
   2 P    4.080000
   2 P    2.080000
   2 P    1.120000
   3 D    2.000000
   4 F    3.000000


 BAS: List of all Elementary Cartesian Basis Functions
 =====================================================

 The numbering in the list below (to the right of the function characteristics) is referred
 to in print-outs of MO eigenvectors and Mulliken populations in the BAS representation
 (as contrasted to the SFO representation).

 Notes:
 1. The functions are characterized by a polynomial prefactor (powers of x,y,z and r) and
    an exponential decay factor alpha.
 2. Since the basis sets are specific for an atom TYPE, the individual functions occur on
    all atoms of that type.
 3. The word 'Core' in the left margin signals that it is a Core Function (CF) : not a
    degree of freedom in the valence set, but only used to ensure orthogonalization of
    the other valence basis functions on the frozen Core Orbitals.


 (power of) X  Y  Z  R     Alpha  on Atom
            ==========     =====     ==========

 C                                    1    2    3    4
                                  ---------------------------------------------------------------------------
            0  0  0  0     7.680      1   31   61   91
            0  0  0  0     5.000      2   32   62   92
            0  0  0  1     1.280      3   33   63   93
            0  0  0  1     2.100      4   34   64   94
            0  0  0  1     4.600      5   35   65   95
            1  0  0  0     0.820      6   36   66   96
            0  1  0  0     0.820      7   37   67   97
            0  0  1  0     0.820      8   38   68   98
            1  0  0  0     1.480      9   39   69   99
            0  1  0  0     1.480     10   40   70  100
            0  0  1  0     1.480     11   41   71  101
            1  0  0  0     2.940     12   42   72  102
            0  1  0  0     2.940     13   43   73  103
            0  0  1  0     2.940     14   44   74  104
            2  0  0  0     2.200     15   45   75  105
            1  1  0  0     2.200     16   46   76  106
            1  0  1  0     2.200     17   47   77  107
            0  2  0  0     2.200     18   48   78  108
            0  1  1  0     2.200     19   49   79  109
            0  0  2  0     2.200     20   50   80  110
            3  0  0  0     3.300     21   51   81  111
            2  1  0  0     3.300     22   52   82  112
            2  0  1  0     3.300     23   53   83  113
            1  2  0  0     3.300     24   54   84  114
            1  1  1  0     3.300     25   55   85  115
            1  0  2  0     3.300     26   56   86  116
            0  3  0  0     3.300     27   57   87  117
            0  2  1  0     3.300     28   58   88  118
            0  1  2  0     3.300     29   59   89  119
            0  0  3  0     3.300     30   60   90  120

 H                                    5    6    7    8    9   10   11
                                  ---------------------------------------------------------------------------
            0  0  0  0     0.690    121  133  145  157  169  181  193
            0  0  0  0     0.920    122  134  146  158  170  182  194
            0  0  0  0     1.580    123  135  147  159  171  183  195
            1  0  0  0     1.250    124  136  148  160  172  184  196
            0  1  0  0     1.250    125  137  149  161  173  185  197
            0  0  1  0     1.250    126  138  150  162  174  186  198
            2  0  0  0     2.500    127  139  151  163  175  187  199
            1  1  0  0     2.500    128  140  152  164  176  188  200
            1  0  1  0     2.500    129  141  153  165  177  189  201
            0  2  0  0     2.500    130  142  154  166  178  190  202
            0  1  1  0     2.500    131  143  155  167  179  191  203
            0  0  2  0     2.500    132  144  156  168  180  192  204

 O                                   12
                                  ---------------------------------------------------------------------------
            0  0  0  0     9.800    205
            0  0  0  0     6.800    206
            0  0  0  1     7.580    207
            0  0  0  1     2.880    208
            0  0  0  1     1.720    209
            1  0  0  0     4.080    210
            0  1  0  0     4.080    211
            0  0  1  0     4.080    212
            1  0  0  0     2.080    213
            0  1  0  0     2.080    214
            0  0  1  0     2.080    215
            1  0  0  0     1.120    216
            0  1  0  0     1.120    217
            0  0  1  0     1.120    218
            2  0  0  0     2.000    219
            1  1  0  0     2.000    220
            1  0  1  0     2.000    221
            0  2  0  0     2.000    222
            0  1  1  0     2.000    223
            0  0  2  0     2.000    224
            3  0  0  0     3.000    225
            2  1  0  0     3.000    226
            2  0  1  0     3.000    227
            1  2  0  0     3.000    228
            1  1  1  0     3.000    229
            1  0  2  0     3.000    230
            0  3  0  0     3.000    231
            0  2  1  0     3.000    232
            0  1  2  0     3.000    233
            0  0  3  0     3.000    234

 Total number of charge fitting functions (nprimf)       770
 Total number of Cartesian basis functions (naos)        234
 Total number of Cartesian core functions  (ncos)          0

1
 ***************************************************************************************************



                                              ***********************
                                              *  T E C H N I C A L  *
                                              ***********************
  



 =============================================================
 P A R A L L E L I Z A T I O N  and  V E C T O R I Z A T I O N
 =============================================================
  
 Nr of parallel processes:                                1
 Maximum vector length in NumInt loops:                 128



 =====================
 S C F   U P D A T E S
 =====================
  
 Max. nr. of cycles:                                99
 Convergence criterion:                              0.0000010000
   secondary criterion:                              0.0010000000

 Mix parameter (when DIIS does not apply):           0.2000000000
 Mixed ADIIS+SDIIS will be used                  
    Max number of expansion vectors:                10
    Pure ADIIS when Max([F,P]) is above              0.1000000000
    Pure SDIIS when Max([F,P]) is below              0.0010000000
 Automatic ElectronSmearing (in case of problematic SCF convergence) disabled



 =================
 P R E C I S I O N  ***  (General: NumInt, NeglectFunctionTails, ...)  ***
 =================
  

 NumInt:           Target precision:                 8.0000000000
 -------           Initial precision:                8.0000000000
                   Min. precision (optimization):    8.0000000000

 Neglect Functions:          Basis functions:        0.1000000000E-09
 ------------------          Fit functions:          0.1000000000E-09



 ===========================
 L I N E A R   S C A L I N G
 ===========================
  

 Cut-off radii density fit:                        0.1000000000E-11
 Overlap cut-off criterion AO matrix elements:     0.1000000000E-09
 Cut-offs for Coulomb potential and fitted density:0.1000000000E-11
 Cut-off criterion for Coulomb multipole terms:    0.1000000000E-11
 Progressive Convergence parameter:                 0.000000000    

 Number of elements of the density matrix on this node (used, total):     27495     27495



 ===========================================
 Numerical Integration : Fuzzy Cells (Becke)
 ===========================================
  
 Becke grid quality: VERYGOOD       
  
 Lebedev angular grid order:             min:  13 max:  41
 Nr. of radial points:                   min:  64 max:  72

 Total nr. of points:     282946
 Nr. of blocks:             2211
 Block length:               128
 Nr. of dummy points:         62


 Test of Precision of the Numerical Integration Grid
 ===================================================

 Integral of the Total Core Density:                   0.00000000000000



 ========================
 Density Fitting (zlmFit)
 ========================
  
 ZlmFit Fit Quality: VERYGOOD       
  
 Max L-expansion:                        min:  10 max:  11
 Nr. of radial interpolation points:     min: 130 max: 180



 =====
 S C F  ***  ScaSCF  ***
 =====
  
 Initial density matrix is taken from previous geometry

 CYCLE    1
  ***********************************************************
  ** : orbital data taken from :/scratch/3545/amstmp_16.no_catalyst_H_H.P1_kid0.1506153261/GOStep6.rkf
  ***********************************************************
 SCF Error: norm([F,P])=      0.000000394866, max([F,P])=      0.000000037547
 ***** SPIN 1 *****
 orbitals (Q,E):
 ---------------
 A :11...30          ( 1.00    -0.4287)  ( 1.00    -0.4262)  ( 1.00    -0.3913)  ( 1.00    -0.3695)
                     ( 1.00    -0.3640)  ( 1.00    -0.3449)  ( 1.00    -0.3305)  ( 1.00    -0.3214)
                     ( 1.00    -0.2138)  ( 1.00    -0.2085)  ( 0.00    -0.0282)  ( 0.00    -0.0146)
                     ( 0.00    -0.0013)  ( 0.00     0.0114)  ( 0.00     0.0250)  ( 0.00     0.0535)
                     ( 0.00     0.0594)  ( 0.00     0.0625)  ( 0.00     0.1198)  ( 0.00     0.1289)
 ***** SPIN 2 *****
 orbitals (Q,E):
 ---------------
 A :10...29          ( 1.00    -0.5106)  ( 1.00    -0.4249)  ( 1.00    -0.4204)  ( 1.00    -0.3819)
                     ( 1.00    -0.3652)  ( 1.00    -0.3524)  ( 1.00    -0.3294)  ( 1.00    -0.3249)
                     ( 1.00    -0.3190)  ( 1.00    -0.2034)  ( 0.00    -0.1564)  ( 0.00    -0.0195)
                     ( 0.00    -0.0013)  ( 0.00     0.0004)  ( 0.00     0.0112)  ( 0.00     0.0259)
                     ( 0.00     0.0538)  ( 0.00     0.0602)  ( 0.00     0.0627)  ( 0.00     0.1228)
  
 Spin polar: 1 (Spin_A minus Spin_B electrons)

 CYCLE    2
   MIX coefficients:  0.8000  0.2000
 SCF Error: norm([F,P])=      0.000000450277, max([F,P])=      0.000000044326
 ***** SPIN 1 *****
 orbitals (Q,E):
 ---------------
 A :11...21          ( 1.00    -0.4287)  ( 1.00    -0.4262)  ( 1.00    -0.3913)  ( 1.00    -0.3695)
                     ( 1.00    -0.3640)  ( 1.00    -0.3449)  ( 1.00    -0.3305)  ( 1.00    -0.3214)
                     ( 1.00    -0.2138)  ( 1.00    -0.2085)  ( 0.00    -0.0282)
 ***** SPIN 2 *****
 orbitals (Q,E):
 ---------------
 A :10...20          ( 1.00    -0.5106)  ( 1.00    -0.4249)  ( 1.00    -0.4204)  ( 1.00    -0.3819)
                     ( 1.00    -0.3652)  ( 1.00    -0.3524)  ( 1.00    -0.3294)  ( 1.00    -0.3249)
                     ( 1.00    -0.3190)  ( 1.00    -0.2034)  ( 0.00    -0.1564)
  
 Spin polar: 1 (Spin_A minus Spin_B electrons)

 SCF CONVERGED

 CYCLE    3
1
 ***************************************************************************************************



                                                *******************
                                                *  R E S U L T S  *
                                                *******************
  
 *** Using FIT density in Focky
  SDIIS (wt  0.000): -0.9116  1.9116
 A-DIIS (wt  1.000):  0.0000  1.0000
  DIIS coefficients:  0.0000  1.0000
 SCF Error: norm([F,P])=      0.000000239565, max([F,P])=      0.000000023087


                                   ***** SPIN 1 *****

 Scaled ZORA Orbital Energies, per Irrep and Spin:
 =================================================
                        Occup              E (au)              E (eV)       Diff (eV) with prev. cycle
                        -----      --------------------        ------       --------------------------
 A
              11        1.000     -0.42866587723496E+00       -11.665              -1.11E-06
              12        1.000     -0.42619550206109E+00       -11.597              -8.02E-07
              13        1.000     -0.39130026153446E+00       -10.648              -1.10E-06
              14        1.000     -0.36945273788041E+00       -10.053              -1.33E-06
              15        1.000     -0.36398624414043E+00        -9.905              -1.08E-06
              16        1.000     -0.34487458056065E+00        -9.385              -9.43E-07
              17        1.000     -0.33050771866079E+00        -8.994              -9.78E-07
              18        1.000     -0.32135088163624E+00        -8.744              -6.09E-07
              19        1.000     -0.21375943495316E+00        -5.817              -9.81E-07
              20        1.000     -0.20854290544077E+00        -5.675              -1.68E-06
              21        0.000     -0.28241792320796E-01        -0.768
              22        0.000     -0.14564629126472E-01        -0.396
              23        0.000     -0.12596419852021E-02        -0.034
              24        0.000      0.11430332943299E-01         0.311
              25        0.000      0.25019422943686E-01         0.681
              26        0.000      0.53467776112578E-01         1.455
              27        0.000      0.59368453985430E-01         1.615
              28        0.000      0.62543243169643E-01         1.702
              29        0.000      0.11976133746471E+00         3.259
              30        0.000      0.12890729675248E+00         3.508
  
 HOMO :       20 A                -0.20854290544077E+00
 LUMO :       21 A                -0.28241792320796E-01
  


                                   ***** SPIN 2 *****

 Scaled ZORA Orbital Energies, per Irrep and Spin:
 =================================================
                        Occup              E (au)              E (eV)       Diff (eV) with prev. cycle
                        -----      --------------------        ------       --------------------------
 A
              10        1.000     -0.51062088116832E+00       -13.895              -1.00E-06
              11        1.000     -0.42491397840751E+00       -11.562              -9.28E-07
              12        1.000     -0.42041469111719E+00       -11.440              -9.11E-07
              13        1.000     -0.38192158692464E+00       -10.393              -1.13E-06
              14        1.000     -0.36518699386297E+00        -9.937              -1.32E-06
              15        1.000     -0.35238402007665E+00        -9.589              -9.57E-07
              16        1.000     -0.32938302313146E+00        -8.963              -1.03E-06
              17        1.000     -0.32490105573795E+00        -8.841              -9.93E-07
              18        1.000     -0.31899180885599E+00        -8.680              -6.27E-07
              19        1.000     -0.20335307813790E+00        -5.534              -1.01E-06
              20        0.000     -0.15636574896919E+00        -4.255
              21        0.000     -0.19547759027419E-01        -0.532
              22        0.000     -0.13060423402909E-02        -0.036
              23        0.000      0.44909996930541E-03         0.012
              24        0.000      0.11224410180226E-01         0.305
              25        0.000      0.25883947518454E-01         0.704
              26        0.000      0.53830434308442E-01         1.465
              27        0.000      0.60226656247060E-01         1.639
              28        0.000      0.62705067534844E-01         1.706
              29        0.000      0.12276489184705E+00         3.341
  
 HOMO :       19 A                -0.20335307813790E+00
 LUMO :       20 A                -0.15636574896919E+00
  


 Orbital Energies, both Spins
 ========================================

 Irrep        no.  (spin)   Occup              E (au)                E (eV)
 ---------------------------------------------------------------------------
 A             1     A       1.00       -0.18770540138132E+02      -510.7724
 A             1      B      1.00       -0.18764522415657E+02      -510.6086
 A             2      B      1.00       -0.99790341567999E+01      -271.5433
 A             2     A       1.00       -0.99783653962950E+01      -271.5251
 A             3     A       1.00       -0.99492939768816E+01      -270.7341
 A             3      B      1.00       -0.99435433686665E+01      -270.5776
 A             4      B      1.00       -0.99354494704533E+01      -270.3573
 A             4     A       1.00       -0.99351919831113E+01      -270.3503
 A             5     A       1.00       -0.99187722148622E+01      -269.9035
 A             5      B      1.00       -0.99182241221016E+01      -269.8886
 A             6     A       1.00       -0.95272024718554E+00       -25.9248
 A             6      B      1.00       -0.93877374408981E+00       -25.5453
 A             7     A       1.00       -0.75250306589163E+00       -20.4767
 A             7      B      1.00       -0.74188915830317E+00       -20.1878
 A             8     A       1.00       -0.66465687759526E+00       -18.0862
 A             8      B      1.00       -0.65260421738551E+00       -17.7583
 A             9     A       1.00       -0.57275633958343E+00       -15.5855
 A             9      B      1.00       -0.56864194707402E+00       -15.4735
 A            10     A       1.00       -0.51833197966484E+00       -14.1045
 A            10      B      1.00       -0.51062088116832E+00       -13.8947
 A            11     A       1.00       -0.42866587723496E+00       -11.6646
 A            12     A       1.00       -0.42619550206109E+00       -11.5974
 A            11      B      1.00       -0.42491397840751E+00       -11.5625
 A            12      B      1.00       -0.42041469111719E+00       -11.4401
 A            13     A       1.00       -0.39130026153446E+00       -10.6478
 A            13      B      1.00       -0.38192158692464E+00       -10.3926
 A            14     A       1.00       -0.36945273788041E+00       -10.0533
 A            14      B      1.00       -0.36518699386297E+00        -9.9372
 A            15     A       1.00       -0.36398624414043E+00        -9.9046
 A            15      B      1.00       -0.35238402007665E+00        -9.5889
 A            16     A       1.00       -0.34487458056065E+00        -9.3845
 A            17     A       1.00       -0.33050771866079E+00        -8.9936
 A            16      B      1.00       -0.32938302313146E+00        -8.9630
 A            17      B      1.00       -0.32490105573795E+00        -8.8410
 A            18     A       1.00       -0.32135088163624E+00        -8.7444
 A            18      B      1.00       -0.31899180885599E+00        -8.6802
 A            19     A       1.00       -0.21375943495316E+00        -5.8167
 A            20     A       1.00       -0.20854290544077E+00        -5.6747
 A            19      B      1.00       -0.20335307813790E+00        -5.5335
 A            20      B      0.00       -0.15636574896919E+00        -4.2549
 A            21     A       0.00       -0.28241792320796E-01        -0.7685
 A            21      B      0.00       -0.19547759027419E-01        -0.5319
 A            22     A       0.00       -0.14564629126472E-01        -0.3963
 A            22      B      0.00       -0.13060423402909E-02        -0.0355
 A            23     A       0.00       -0.12596419852021E-02        -0.0343
 A            23      B      0.00        0.44909996930541E-03         0.0122
 A            24      B      0.00        0.11224410180226E-01         0.3054
 A            24     A       0.00        0.11430332943299E-01         0.3110
 A            25     A       0.00        0.25019422943686E-01         0.6808
 A            25      B      0.00        0.25883947518454E-01         0.7043
 A            26     A       0.00        0.53467776112578E-01         1.4549
 A            26      B      0.00        0.53830434308442E-01         1.4648
 A            27     A       0.00        0.59368453985430E-01         1.6155
 A            27      B      0.00        0.60226656247060E-01         1.6389
 A            28     A       0.00        0.62543243169643E-01         1.7019
 A            28      B      0.00        0.62705067534844E-01         1.7063
 A            29     A       0.00        0.11976133746471E+00         3.2589
 A            29      B      0.00        0.12276489184705E+00         3.3406
 A            30     A       0.00        0.12890729675248E+00         3.5077
 A            30      B      0.00        0.13050329997162E+00         3.5512
 A            31     A       0.00        0.13502430249884E+00         3.6742
 A            31      B      0.00        0.13592880891850E+00         3.6988
 A            32     A       0.00        0.16245507345791E+00         4.4206
 A            32      B      0.00        0.16443193136343E+00         4.4744
 A            33     A       0.00        0.16938928407226E+00         4.6093
 A            33      B      0.00        0.17139829246149E+00         4.6640
 A            34     A       0.00        0.17505922131912E+00         4.7636
 A            34      B      0.00        0.17826477551861E+00         4.8508
 A            35     A       0.00        0.18716020294305E+00         5.0929
 A            35      B      0.00        0.18824577949544E+00         5.1224
 A            36     A       0.00        0.23447268857325E+00         6.3803
 A            37     A       0.00        0.23739351533021E+00         6.4598
 A            36      B      0.00        0.23830817735914E+00         6.4847
 A            37      B      0.00        0.24303787430622E+00         6.6134
 A            38     A       0.00        0.25524015678981E+00         6.9454
 A            38      B      0.00        0.26441918706675E+00         7.1952
 A            39     A       0.00        0.29184709472475E+00         7.9416
 A            39      B      0.00        0.29967944707079E+00         8.1547
 A            40     A       0.00        0.31782820520222E+00         8.6485
 A            41     A       0.00        0.32540863196005E+00         8.8548
 A            40      B      0.00        0.32645691673261E+00         8.8833
 A            41      B      0.00        0.33187493290971E+00         9.0308
 A            42     A       0.00        0.35329010153935E+00         9.6135
 A            42      B      0.00        0.35614187675314E+00         9.6911
 A            43     A       0.00        0.36337588016686E+00         9.8880
 A            43      B      0.00        0.36973021438327E+00        10.0609
 A            44     A       0.00        0.36998298925867E+00        10.0677
 A            44      B      0.00        0.37239070999855E+00        10.1333
 A            45     A       0.00        0.38259144431287E+00        10.4108
 A            45      B      0.00        0.38628375254983E+00        10.5113
 A            46     A       0.00        0.39235481571578E+00        10.6765
 A            46      B      0.00        0.39513046110025E+00        10.7520
 A            47     A       0.00        0.40148121040445E+00        10.9249
 A            47      B      0.00        0.40324184623461E+00        10.9728
[...]
       4.664  0.00    33 A         25.36%     1 P:y            -5.135  0.67     2 C
                                   14.62%     1 P:z            -5.135  0.67     4 C
                                   11.82%     1 S              -6.484  1.00     8 H
                                   11.24%     1 S              -6.484  1.00     5 H
                                   11.06%     2 P:z             4.559  0.00     3 C
                                    8.02%     2 P:x             4.559  0.00     4 C
                                    7.57%     1 P:z            -5.135  0.67     2 C
                                   -6.36%     2 S               2.096  0.00     8 H
                                    6.06%     1 P:x            -5.135  0.67     4 C
                                    6.04%     2 S               2.096  0.00     9 H
                                    4.96%     1 P:y            -5.135  0.67     1 C
                                   -4.23%     3 S              10.456  0.00     1 C
                                   -4.19%     2 S               2.096  0.00     5 H
                                    3.53%     2 P:y             4.559  0.00     2 C
                                    3.51%     1 S              -6.484  1.00    10 H
                                   -3.24%     2 S               2.096  0.00     6 H
                                    3.04%     2 S             -13.802  2.00     1 C
                                   -2.90%     3 S              41.380  0.00     8 H
                                   -2.26%     2 S               2.096  0.00    11 H
                                   -2.21%     3 S              21.890  0.00    12 O
                                    2.09%     1 S              -6.484  1.00    11 H
                                    2.08%     2 P:y             4.559  0.00     3 C
                                   -1.99%     2 P:y             4.559  0.00     1 C
                                   -1.86%     2 S               2.096  0.00    10 H
                                    1.74%     1 S              -6.484  1.00     6 H
                                   -1.48%     3 S              41.380  0.00     5 H
                                    1.45%     2 P:x             4.559  0.00     1 C
                                    1.44%     2 S             -13.802  2.00     3 C
                                   -1.41%     2 P:z             4.559  0.00     2 C
                                    1.22%     1 P:z            11.162  0.00     9 H
                                    1.18%     1 P:x            11.162  0.00     7 H
                                    1.17%     1 P:y            -5.135  0.67     3 C

 Energy gradients wrt nuclear displacements
 ==========================================

     Atom      Cartesian (a.u./angstrom)
                 X         Y         Z
 ----------------------------------------
     1 C    -0.000111  0.000054 -0.000036
     2 C     0.000013 -0.000063 -0.000088
     3 H    -0.000014  0.000018  0.000009
     4 C     0.000128  0.000005  0.000066
     5 H     0.000005  0.000001 -0.000016
     6 O     0.000011 -0.000004  0.000023
     7 C    -0.000007  0.000001  0.000068
     8 H    -0.000001 -0.000014 -0.000012
     9 H     0.000001 -0.000001 -0.000010
    10 H     0.000008 -0.000012 -0.000008
    11 H     0.000008  0.000002  0.000018
    12 H    -0.000041  0.000013 -0.000013
 ----------------------------------------



 =======================================================================
 Electrostatic potential at the Nuclei due to electrons and other nuclei
 =======================================================================
  
         Atom                  Potential
         ----                  ---------
     1)   C                  14.76173339
     2)   C                  14.76447166
     3)   H                   1.10608878
     4)   C                  14.72874554
     5)   H                   1.09106934
     6)   O                  22.41529085
     7)   C                  14.78262852
     8)   H                   1.11081769
     9)   H                   1.11324904
    10)   H                   1.11188560
    11)   H                   1.09541257
    12)   H                   1.10917701

=============================================================
=== CALCULATE ANALYTICAL SECOND DERIVATIVES OF THE ENERGY ===
=============================================================


-----------------------------------------------
*** RESTART ***
*** CHECKING FOR HESSIAN ON RESTART FILE ***
@@@ WARNING: Cannot find section: Hessian                                                                                                                                                         
*** NO HESSIAN EXISTS ON RESTART FILE ***
*** HESSIAN FROM RESTART FILE IS NOT COMPLETE ***
*** FURTHER CALCULATIONS WILL BE DONE         ***
-----------------------------------------------
                  ------------------------------------------------
                  
                  This Analytical Second Derivatives Progam    
                            was written for ADF by             
                  
                                Stephen K. Wolff               
                  
                         Scientific Computing & Modelling      
                  
                                Vrije University
                              Theoretical Chemistry
                                De Boelelaan 1083
                                1081 HV Amsterdam
                                 The Netherlands
                  
                  ------------------------------------------------
                  
                                    References:                
                                    ===========                
                  
                   Attila Berces, Ross M. Dickson, Liangyou Fan
                   Heiko Jacobsen, David Swerhone, Tom Ziegler,
                   Computer Physics Communications 100 (1997) 247.
                  
                   Heiko Jacobsen, Attila Berces
                   David Swerhone, Tom Ziegler,
                   Computer Physics Communications 100 (1997) 263.
                  
                   Stephen K. Wolff
                   Int. J. Quantum Chem. 104 (2005) 645.
                  
                  ------------------------------------------------
                  
              <><><><><><><><><><><><><><><><><><><><><><><><><>
 
                 SECOND DERIVATIVES INFORMATION:
                 -------------------------------
 
                 === PRINT
 
                   EIGS,  lprint_eigbas =  F
                   U1,    lprint_u1     =  F
                   PARTS, lprint_parts  =  F
 
                 === DEBUG
 
                   ALL        =  F
                   B1         =  F
                   DENSITIES  =  F
                   FIT        =  F
                   HESSIAN    =  F
                   NUMBERS    =  F
                   SYMMETRY   =  F
                   U1         =  F
 
                 === CPKS
 
                   MAX_CPKS_ITERATIONS    =    20
                   U1_ACCURACY PARAMETER  =     5.00
                   U1 ACCURACY            =     0.0000100
 

                 Estimated peak private memory usage    110 MB per process
                                 shared memory usage    898 MB per node

              <><><><><><><><><><><><><><><><><><><><><><><><><>

######## LOOPING OVER NUCLEI ########

==========================
###### NUCLEUS:     1  C  
==========================

====================  solving CPKS equations  ====================

NUCLEUS  COORD.    ITERATION   ACCURACY
-------  ------    ---------   --------
    1       1          1       0.56548088D-01
    1       1          2       0.21001402D-01
    1       1          3       0.14676903D-01
    1       1          4       0.54310203D-02
    1       1          5       0.10763525D-02
    1       1          6       0.33180649D-03
    1       1          7       0.11099716D-03
    1       1          8       0.61406515D-04
    1       1          9       0.17253274D-04
    1       1         10       0.61096764D-05
*** CPKS converged.
----------------------------------------------
    1       2          1       0.14817484D-01
    1       2          2       0.47567459D-02
    1       2          3       0.27245564D-02
    1       2          4       0.19116317D-02
    1       2          5       0.46749845D-03
    1       2          6       0.19195191D-03
    1       2          7       0.43916535D-04
    1       2          8       0.28991351D-04
    1       2          9       0.15635144D-04
    1       2         10       0.53077602D-05
*** CPKS converged.
----------------------------------------------
    1       3          1       0.21456239D-01
    1       3          2       0.14234015D-01
    1       3          3       0.82334030D-02
    1       3          4       0.40790912D-02
    1       3          5       0.16695489D-02
    1       3          6       0.46056106D-03
    1       3          7       0.13789656D-03
    1       3          8       0.35860943D-04
    1       3          9       0.11481837D-04
    1       3         10       0.37315788D-05
*** CPKS converged.
----------------------------------------------

====================  end of solving CPKS equations  ====================

==========================
###### NUCLEUS:     2  C  
==========================

====================  solving CPKS equations  ====================

NUCLEUS  COORD.    ITERATION   ACCURACY
-------  ------    ---------   --------
    2       1          1       0.42751583D-01
    2       1          2       0.12514893D-01
    2       1          3       0.41003200D-02
    2       1          4       0.45175226D-02
    2       1          5       0.20698237D-02
    2       1          6       0.42451709D-03
    2       1          7       0.19178283D-03
    2       1          8       0.62613871D-04
    2       1          9       0.17996685D-04
    2       1         10       0.48113519D-05
*** CPKS converged.
----------------------------------------------
    2       2          1       0.47679511D-01
    2       2          2       0.84777406D-02
    2       2          3       0.31193550D-02
    2       2          4       0.83702576D-03
    2       2          5       0.23213760D-03
    2       2          6       0.14274719D-03
    2       2          7       0.30807775D-04
    2       2          8       0.12996934D-04
    2       2          9       0.78185768D-05
*** CPKS converged.
----------------------------------------------
    2       3          1       0.28188460D-01
    2       3          2       0.10104570D-01
    2       3          3       0.82576858D-02
    2       3          4       0.85407723D-02
    2       3          5       0.13860338D-02
    2       3          6       0.31525040D-03
    2       3          7       0.24770832D-03
    2       3          8       0.39373395D-04
    2       3          9       0.65842680D-05
*** CPKS converged.
----------------------------------------------

====================  end of solving CPKS equations  ====================

==========================
###### NUCLEUS:     4  C  
==========================

====================  solving CPKS equations  ====================

NUCLEUS  COORD.    ITERATION   ACCURACY
-------  ------    ---------   --------
    4       1          1       0.16040848D+00
    4       1          2       0.29443516D-01
    4       1          3       0.18282421D-01
    4       1          4       0.38494618D-02
    4       1          5       0.14053413D-02
    4       1          6       0.53873089D-03
    4       1          7       0.22629843D-03
    4       1          8       0.69871298D-04
    4       1          9       0.25634939D-04
    4       1         10       0.11155847D-04
    4       1         11       0.48076086D-05
*** CPKS converged.
----------------------------------------------
    4       2          1       0.16124747D+00
    4       2          2       0.26763315D-01
    4       2          3       0.18879658D-01
    4       2          4       0.52079425D-02
    4       2          5       0.14748452D-02
    4       2          6       0.58983604D-03
    4       2          7       0.15955929D-03
    4       2          8       0.51372678D-04
    4       2          9       0.14924666D-04
    4       2         10       0.29862887D-05
*** CPKS converged.
----------------------------------------------
    4       3          1       0.52393500D-01
    4       3          2       0.34752121D-01
    4       3          3       0.29292363D-01
    4       3          4       0.40094472D-02
    4       3          5       0.11646259D-02
    4       3          6       0.37936097D-03
    4       3          7       0.12281924D-03
    4       3          8       0.41782999D-04
    4       3          9       0.16193886D-04
    4       3         10       0.64654540D-05
*** CPKS converged.
----------------------------------------------

====================  end of solving CPKS equations  ====================

==========================
###### NUCLEUS:     7  C  
==========================

====================  solving CPKS equations  ====================

NUCLEUS  COORD.    ITERATION   ACCURACY
-------  ------    ---------   --------
    7       1          1       0.14234209D-01
    7       1          2       0.55528514D-02
    7       1          3       0.17823248D-02
    7       1          4       0.13000583D-02
    7       1          5       0.72063208D-03
    7       1          6       0.38516404D-03
    7       1          7       0.15837626D-03
    7       1          8       0.20777491D-04
    7       1          9       0.11392603D-04
    7       1         10       0.34047477D-05
*** CPKS converged.
----------------------------------------------
    7       2          1       0.13233065D-01
    7       2          2       0.56350479D-02
    7       2          3       0.26024321D-02
    7       2          4       0.25701908D-02
    7       2          5       0.14571459D-02
    7       2          6       0.41084222D-03
    7       2          7       0.94894943D-04
    7       2          8       0.10945434D-04
    7       2          9       0.75099644D-05
*** CPKS converged.
----------------------------------------------
    7       3          1       0.23728780D-01
    7       3          2       0.88143320D-02
    7       3          3       0.28608809D-02
    7       3          4       0.45220361D-03
    7       3          5       0.42512583D-03
    7       3          6       0.23265235D-03
    7       3          7       0.70210948D-04
    7       3          8       0.13739791D-04
    7       3          9       0.55492805D-05
*** CPKS converged.
----------------------------------------------

====================  end of solving CPKS equations  ====================

==========================
###### NUCLEUS:     3  H  
==========================

====================  solving CPKS equations  ====================

NUCLEUS  COORD.    ITERATION   ACCURACY
-------  ------    ---------   --------
    3       1          1       0.61453135D-02
    3       1          2       0.31094048D-02
    3       1          3       0.49356805D-03
    3       1          4       0.19357201D-03
    3       1          5       0.10760756D-03
    3       1          6       0.66315159D-04
    3       1          7       0.38882382D-04
    3       1          8       0.12332145D-04
    3       1          9       0.18513753D-05
*** CPKS converged.
----------------------------------------------
    3       2          1       0.91112867D-02
    3       2          2       0.34836568D-02
    3       2          3       0.92127463D-03
    3       2          4       0.26669704D-03
    3       2          5       0.12817248D-03
    3       2          6       0.49385350D-04
    3       2          7       0.36230972D-04
    3       2          8       0.72306799D-05
*** CPKS converged.
----------------------------------------------
    3       3          1       0.36180745D-02
    3       3          2       0.18823519D-02
    3       3          3       0.49242171D-03
    3       3          4       0.19139119D-03
    3       3          5       0.47048841D-04
    3       3          6       0.21474156D-04
    3       3          7       0.25892155D-04
    3       3          8       0.46496156D-05
*** CPKS converged.
----------------------------------------------

====================  end of solving CPKS equations  ====================

==========================
###### NUCLEUS:     5  H  
==========================

====================  solving CPKS equations  ====================

NUCLEUS  COORD.    ITERATION   ACCURACY
-------  ------    ---------   --------
    5       1          1       0.20641670D-01
    5       1          2       0.20403079D-02
    5       1          3       0.10436067D-02
    5       1          4       0.60915752D-03
    5       1          5       0.21491083D-03
    5       1          6       0.53865517D-04
    5       1          7       0.30798138D-04
    5       1          8       0.15237584D-04
    5       1          9       0.59175341D-05
*** CPKS converged.
----------------------------------------------
    5       2          1       0.26058281D-01
    5       2          2       0.31994672D-02
    5       2          3       0.10778793D-02
    5       2          4       0.20560424D-03
    5       2          5       0.19003484D-03
    5       2          6       0.62713128D-04
    5       2          7       0.29331017D-04
    5       2          8       0.12214900D-04
    5       2          9       0.46122706D-05
*** CPKS converged.
----------------------------------------------
    5       3          1       0.13446693D-01
    5       3          2       0.25962917D-02
    5       3          3       0.14652775D-02
    5       3          4       0.10625639D-02
    5       3          5       0.25427782D-03
    5       3          6       0.68370267D-04
    5       3          7       0.54698234D-04
    5       3          8       0.22559194D-04
    5       3          9       0.50664932D-05
*** CPKS converged.
----------------------------------------------

====================  end of solving CPKS equations  ====================

==========================
###### NUCLEUS:     8  H  
==========================

====================  solving CPKS equations  ====================

NUCLEUS  COORD.    ITERATION   ACCURACY
-------  ------    ---------   --------
    8       1          1       0.54071433D-02
    8       1          2       0.28294965D-02
    8       1          3       0.92499940D-03
    8       1          4       0.27703249D-03
    8       1          5       0.20275136D-03
    8       1          6       0.11408217D-03
    8       1          7       0.64253407D-04
    8       1          8       0.62074844D-05
*** CPKS converged.
----------------------------------------------
    8       2          1       0.68947912D-02
    8       2          2       0.26226288D-02
    8       2          3       0.96782075D-03
    8       2          4       0.26412739D-03
    8       2          5       0.16214482D-03
    8       2          6       0.10763685D-03
    8       2          7       0.76033346D-04
    8       2          8       0.11160085D-04
    8       2          9       0.17515204D-05
*** CPKS converged.
----------------------------------------------
    8       3          1       0.62081628D-02
    8       3          2       0.24622489D-02
    8       3          3       0.11991466D-02
    8       3          4       0.89120760D-03
    8       3          5       0.46474632D-03
    8       3          6       0.11852802D-03
    8       3          7       0.16769181D-04
    8       3          8       0.54977678D-05
*** CPKS converged.
----------------------------------------------

====================  end of solving CPKS equations  ====================

