

 Parallel Execution: Process Information
 ==============================================================================
 Rank   Node Name                              NodeID   MyNodeRank  NodeMaster
    0   node120                                   0          0          0
    1   node120                                   0          1         -1
    2   node120                                   0          2         -1
    3   node120                                   0          3         -1
 ==============================================================================


May use up to 122928MB of RAM as shared memory on node 0

 *******************************************************************************
 *                                                                             *
 *  --------------------------------                                           *
 *   Amsterdam Modeling Suite (AMS)              2021.102                      *
 *  --------------------------------                                           *
 *                                               r95042 2021-06-07             *
 *                                                                             *
 *                                                                             *
 *                              =================                              *
 *                              |               |                              *
 *                              |     A M S     |                              *
 *                              |               |                              *
 *                              =================                              *
 *                                                                             *
 *                                                                             *
 *   Online information and documentation:  https://www.scm.com/support/       *
 *   E-mail:  support@scm.com   info@scm.com                                   *
 *                                                                             *
 *   Scientific publications using AMS results must be properly referenced     *
 *   See the User Manuals (or the web site) for recommended citations          *
 *   The terms and conditions of the End User License Agreement apply to       *
 *   the use of AMS, https://www.scm.com/license-terms/                        *
 *                                                                             *
 **********************  x86_64_linux_intel / intelmpi  ************************
 
 Licensed to: VU/FEW (+ SARA) / ALGEMEEN / Amsterdam / THE NETHERLANDS
 SCM User ID: u7668
  
 AMS 2021.102  RunTime: Feb03-2022 16:16:35  ShM Nodes: 1  Procs: 4

 AMS jobname: 48.achiral_catalyst.H_tBu_SnCl4.P2
 AMS jobid  : 1723402937

 Start   directory: /scistor/tc/yhk800/MasterProject/calculations/achiral_catalyst_H_tBu_SnCl4/48.achiral_catalyst.H_tBu_SnCl4.P2/
 Results directory: /scistor/tc/yhk800/MasterProject/calculations/achiral_catalyst_H_tBu_SnCl4/48.achiral_catalyst.H_tBu_SnCl4.P2/
 Scratch directory: /scratch/5505/amstmp_48.achiral_catalyst.H_tBu_SnCl4.P2_kid0.1723402937/


 Communication costs MPI_COMM_WORLD:      1.691 usec per message,   0.0060 usec per 8-byte item
 Communication costs for intra-node:     -0.039 usec per message,   0.0077 usec per 8-byte item

 RNG seed: 1897848348 1784780838 -1743908503 1975109193 1527251699 1140008971 79143628 -164331543



                      ************************************************************************
                      *  ADF 2021.102  RunTime: Feb03-2022 16:16:36  ShM Nodes: 1  Procs: 4  *
                      ************************************************************************
  
       ***************************
       *  GEOMETRY OPTIMIZATION  *
       ***************************

Optimization Method                    Quasi Newton
Optimization Coordinates               Delocalized Coordinates
Optimize lattice                       F
 
 ------------------------------------------------------
 Convergence criteria (Hartree,Angstrom)
 ------------------------------------------------------
 Maximum gradient               0.001000000000
 Maximum rms gradient           0.000666666667
 Maximum step allowed           0.010000000000
 Maximum rms step allowed       0.006666666667
 Maximum energy change allowe   0.000300000000
 Maximum stress energy allowe   0.000500000000
 
Initial model Hessian                  Automatic Hessian
 
------------------------------------
Quasi-Newton Optimizer Parameters
------------------------------------
Hessian Update Method                  BFGS
Maximum number of steps                  250
First GDIIS cycle                          0
Maximum GDIIS vectors                      0
Trust radius (bohr)                        0.200000
Trust radius varies                        T
Constraints converged at all steps         T
Use projector                              T
 
 Rigid motions settings for: old optimizer
 Atomic rotations (x,y,z):     T T T
 Atomic translations (x,y,z):  T T T
 Tolerance:                   1.000000000000000E-006
 
--------
Geometry
--------
Formula: C8H16Cl4OSn
Atoms
  Index Symbol   x (angstrom)   y (angstrom)   z (angstrom)
      1      H     0.83345051    -1.35209109     1.20167740
      2      C    -0.83092072     0.03538951     0.93442801
      3      C     0.35139657    -0.78131674     0.40158875
      4      C     1.39689343     0.07225735    -0.26739819
      5      O     2.40703452    -0.34587328    -0.75774611
      6      H    -1.19392452     0.69150371     0.13740680
      7      H     0.00939092    -1.50634328    -0.34451216
      8      H    -0.05768346     0.24518214     2.94899716
      9      C    -0.44138171     0.87842746     2.14736270
     10      H     0.32560687     1.60312788     1.87585802
     11      H    -1.31355949     1.41759590     2.51749654
     12      C    -2.27071970    -1.82616668     0.11582029
     13      C    -1.96962468    -0.92743114     1.31904430
     14      C    -3.20179241    -0.09637428     1.68950211
     15      C    -1.51005423    -1.76760310     2.51446803
     16      H    -1.27318070    -1.12277223     3.36148834
     17      H    -3.07548253    -2.52473552     0.35095683
     18      H    -1.38428828    -2.39825896    -0.16042075
     19      H    -2.57404526    -1.22292570    -0.74059856
     20      H    -4.03273065    -0.74631316     1.96887984
     21      H    -3.51153452     0.51878769     0.84392839
     22      H    -2.97657760     0.55997399     2.53083710
     23      H    -2.29343234    -2.46452553     2.81703817
     24      H    -0.61838064    -2.33929178     2.25475744
     25      H     1.16279025     1.11629180    -0.25802988
     26     Sn     3.62898812    -1.04016615    -1.71419100
     27     Cl     5.27527473    -0.06292482    -0.32028510
     28     Cl     3.64845956     0.88799310    -3.08898430
     29     Cl     1.98270150    -2.01740748    -3.10809689
     30     Cl     3.60951667    -2.96832540    -0.33939770
 
Total System Charge             0.00000
 
 
----------------
ADF Engine Input
----------------
 
 NumericalQuality VeryGood
 SCF
 Converge 1.0e-6
 Iterations 99
 End
 SYMMETRY NOSYM
 XC
 GGA OLYP
 End
 basis
 core None
 type TZ2P
 End
 

 Title: *** (NO TITLE) ***

 Using automatic Hessian for delocalized coordinates.
 *** GOStep1 ***

 Energy gradients wrt nuclear displacements
 ==========================================

     Atom      Cartesian (a.u./angstrom)
                 X         Y         Z
 ----------------------------------------
     1 H    -0.007060  0.004470  0.004963
     2 C    -0.010450  0.007695 -0.014567
     3 C    -0.027006 -0.036286  0.015194
     4 C     0.116865  0.019035 -0.078242
     5 O     0.277528 -0.175694 -0.230977
     6 H     0.001081 -0.002884  0.004510
     7 H    -0.015645 -0.000342  0.002375
     8 H    -0.006352 -0.009311  0.000707
     9 C    -0.010573 -0.010873  0.011218
    10 H    -0.004560 -0.008399 -0.005825
    11 H    -0.009881 -0.007037 -0.002284
    12 C     0.012265  0.002187 -0.008306
    13 C     0.006119  0.002468  0.005382
    14 C     0.002392  0.007596 -0.000967
    15 C     0.010508  0.005847 -0.001334
    16 H     0.004765  0.010497 -0.005130
    17 H     0.001979  0.003758  0.002925
    18 H     0.013679  0.012607  0.003313
    19 H     0.002512  0.000380  0.006903
    20 H     0.004341 -0.000438 -0.001189
    21 H     0.005126 -0.003972  0.002434
    22 H     0.011437  0.001515 -0.001314
    23 H     0.000096  0.003788 -0.001903
    24 H     0.001129  0.008065 -0.007123
    25 H    -0.008865 -0.045677  0.014312
    26 Sn   -0.325312  0.177867  0.244115
    27 Cl   -0.026697 -0.002285 -0.004708
    28 Cl   -0.012701 -0.011985  0.025483
    29 Cl    0.007312  0.017289  0.024505
    30 Cl   -0.014030  0.030118 -0.004469
 ----------------------------------------
 Mulliken charges used for AMS results%charges...
 
----------------------------------------------------------------------
Geometry Convergence after Step   1       (Hartree/Angstrom,Angstrom)
----------------------------------------------------------------------
current energy                               -5.27937479 Hartree
energy change                      -5.27937479     0.00030000    F
constrained gradient max            0.32532218     0.00100000    F
constrained gradient rms            0.06581251     0.00066667    F
gradient max                        0.32532218
gradient rms                        0.06581251
cart. step max                      0.10847649     0.01000000    F
cart. step rms                      0.03082101     0.00666667    F
 
 
--------
Geometry
--------
Formula: C8H16Cl4OSn
Atoms
  Index Symbol   x (angstrom)   y (angstrom)   z (angstrom)
      1      H     0.85785177    -1.32900830     1.21026688
      2      C    -0.83512361     0.03216772     0.94291144
      3      C     0.36423408    -0.76771250     0.40994911
      4      C     1.39521818     0.09537505    -0.25962209
      5      O     2.39947599    -0.30764037    -0.73510847
      6      H    -1.20770618     0.68462786     0.14559935
      7      H     0.04132704    -1.49960137    -0.33676761
      8      H    -0.01885047     0.26383564     2.94660583
      9      C    -0.41762566     0.88688612     2.14550153
     10      H     0.34830113     1.60846159     1.85643752
     11      H    -1.27496273     1.43694158     2.53147131
     12      C    -2.31414952    -1.83693636     0.12666506
     13      C    -1.99595556    -0.93724259     1.33095839
     14      C    -3.22555959    -0.09372028     1.69740307
     15      C    -1.55623866    -1.79342668     2.52921152
     16      H    -1.31600735    -1.16402173     3.38585375
     17      H    -3.12973575    -2.52271405     0.36561157
     18      H    -1.44532401    -2.42999060    -0.15785288
     19      H    -2.61254180    -1.23233289    -0.73226694
     20      H    -4.06409108    -0.73722120     1.97202584
     21      H    -3.52873580     0.52556342     0.85079628
     22      H    -3.00722367     0.56166572     2.54061033
     23      H    -2.35393165    -2.47956222     2.82138743
     24      H    -0.67277803    -2.38255543     2.27898372
     25      H     1.15500007     1.14810050    -0.26131451
     26     Sn     3.67258214    -1.02507525    -1.73045185
     27     Cl     5.35278162    -0.04455918    -0.37098669
     28     Cl     3.71264711     0.87595659    -3.15162474
     29     Cl     2.06131902    -2.04585590    -3.14436558
     30     Cl     3.71799316    -2.97472067    -0.37601297
 
Total System Charge             0.00000
 
 *** GOStep2 ***

 Energy gradients wrt nuclear displacements
 ==========================================

     Atom      Cartesian (a.u./angstrom)
                 X         Y         Z
 ----------------------------------------
     1 H    -0.005462  0.004162  0.003870
     2 C    -0.005811  0.013616 -0.017959
     3 C    -0.011334 -0.028446  0.011233
     4 C     0.152895 -0.012486 -0.092425
     5 O     0.122757 -0.094937 -0.125009
     6 H    -0.000299 -0.002019  0.003286
     7 H    -0.011711  0.001969  0.002542
     8 H    -0.005253 -0.005223 -0.000498
     9 C    -0.003209 -0.007260  0.012240
    10 H    -0.003087 -0.006161 -0.004616
    11 H    -0.006656 -0.006660 -0.002395
    12 C     0.008879 -0.002573 -0.007564
    13 C    -0.004140 -0.002376  0.005180
    14 C     0.000097  0.007317  0.000694
    15 C     0.008612  0.001947  0.002473
    16 H     0.003417  0.006301 -0.005244
    17 H     0.001765  0.002322  0.002116
    18 H     0.008184  0.010052  0.002431
    19 H     0.002267  0.000740  0.005239
    20 H     0.003298 -0.000376 -0.000633
    21 H     0.004220 -0.002796  0.001614
    22 H     0.008394  0.000515 -0.002170
    23 H     0.000119  0.002891 -0.001338
    24 H     0.000565  0.006686 -0.004755
    25 H    -0.006723 -0.034215  0.012764
    26 Sn   -0.226943  0.121626  0.167430
    27 Cl   -0.019525 -0.001387 -0.002772
    28 Cl   -0.009463 -0.007588  0.018723
    29 Cl    0.005095  0.012691  0.017773
    30 Cl   -0.010950  0.021668 -0.002230
 ----------------------------------------
 Mulliken charges used for AMS results%charges...

 dE(predicted):    -0.36827E-01, dE(actual):    -0.37533E-01, Trust radius:    0.400000, all in a.u.
 
----------------------------------------------------------------------
Geometry Convergence after Step   2       (Hartree/Angstrom,Angstrom)
----------------------------------------------------------------------
current energy                               -5.31690805 Hartree
energy change                      -0.03753325     0.00030000    F
constrained gradient max            0.22695299     0.00100000    F
constrained gradient rms            0.04378752     0.00066667    F
gradient max                        0.22695299
gradient rms                        0.04378752
cart. step max                      0.21169720     0.01000000    F
cart. step rms                      0.05924637     0.00666667    F
 
 
--------
Geometry
--------
Formula: C8H16Cl4OSn
Atoms
  Index Symbol   x (angstrom)   y (angstrom)   z (angstrom)
      1      H     0.88961727    -1.27158348     1.23410006
      2      C    -0.85298701     0.04025846     0.97704189
      3      C     0.37464828    -0.72341472     0.43630680
      4      C     1.38625622     0.14967247    -0.23843304
      5      O     2.42570973    -0.25192784    -0.70748827
      6      H    -1.24123320     0.68707837     0.17978615
      7      H     0.08817694    -1.46753135    -0.31422895
      8      H     0.01635112     0.31133110     2.96642908
      9      C    -0.40873523     0.91718584     2.16503559
     10      H     0.35081693     1.64235317     1.85719815
     11      H    -1.24532879     1.48141402     2.57554154
     12      C    -2.36650589    -1.84010577     0.13971944
     13      C    -2.03835760    -0.94884715     1.35598735
     14      C    -3.27900567    -0.10749416     1.71485816
     15      C    -1.63432749    -1.83511740     2.55393704
     16      H    -1.40445905    -1.23679377     3.43628541
     17      H    -3.19478912    -2.51449217     0.37406583
     18      H    -1.51908598    -2.45832393    -0.15841177
     19      H    -2.65901087    -1.23177790    -0.72216000
     20      H    -4.12177684    -0.75705096     1.96783422
     21      H    -3.57818185     0.52282968     0.87170353
     22      H    -3.09323574     0.54171885     2.57104567
     23      H    -2.45123181    -2.51344922     2.81518252
     24      H    -0.75747902    -2.44509607     2.32358812
     25      H     1.14590948     1.22315986    -0.27047726
     26     Sn     3.75926586    -1.02306730    -1.77711276
     27     Cl     5.53172716    -0.05722620    -0.50970186
     28     Cl     3.85533348     0.80899205    -3.30080734
     29     Cl     2.19441854    -2.11289837    -3.21245411
     30     Cl     3.92969036    -3.01411191    -0.47249558
 
Total System Charge             0.00000
 
 *** GOStep3 ***

 Energy gradients wrt nuclear displacements
 ==========================================

     Atom      Cartesian (a.u./angstrom)
                 X         Y         Z
 ----------------------------------------
     1 H    -0.003455  0.004076  0.002997
     2 C    -0.001082  0.014214 -0.017633
     3 C    -0.001496 -0.018923  0.008938
     4 C     0.074318 -0.009839 -0.049555
     5 O     0.081128 -0.060736 -0.074585
     6 H    -0.001777 -0.000740  0.001315
     7 H    -0.006304  0.003895  0.001655
     8 H    -0.003220 -0.001277 -0.001036
     9 C     0.003989 -0.002504  0.010181
    10 H    -0.000851 -0.001952 -0.001958
    11 H    -0.001940 -0.004006 -0.001107
    12 C     0.005331 -0.005654 -0.004794
    13 C    -0.014003 -0.006348  0.003920
    14 C    -0.001803  0.004795  0.002454
    15 C     0.004793 -0.001343  0.005032
    16 H     0.002074  0.001730 -0.003299
    17 H     0.001044  0.000186  0.001043
    18 H     0.003061  0.006052  0.000357
    19 H     0.001172  0.001028  0.001683
    20 H     0.001093 -0.000182  0.000412
    21 H     0.002113 -0.000586  0.000162
    22 H     0.003431  0.000188 -0.002311
    23 H    -0.000142  0.001235 -0.000257
    24 H     0.000615  0.003673 -0.001609
    25 H    -0.008339 -0.007187  0.010882
    26 Sn   -0.125526  0.067527  0.091724
    27 Cl   -0.008274 -0.000438 -0.000734
    28 Cl   -0.004303 -0.002078  0.008381
    29 Cl    0.003620  0.005757  0.007540
    30 Cl   -0.005268  0.009435  0.000204
 ----------------------------------------
 Mulliken charges used for AMS results%charges...

 dE(predicted):    -0.38939E-01, dE(actual):    -0.42896E-01, Trust radius:    0.800000, all in a.u.
 
----------------------------------------------------------------------
Geometry Convergence after Step   3       (Hartree/Angstrom,Angstrom)
----------------------------------------------------------------------
current energy                               -5.35980380 Hartree
energy change                      -0.04289575     0.00030000    F
constrained gradient max            0.12553415     0.00100000    F
constrained gradient rms            0.02472399     0.00066667    F
gradient max                        0.12553415
gradient rms                        0.02472399
cart. step max                      0.21290960     0.01000000    F
cart. step rms                      0.06528395     0.00666667    F
 
 
--------
Geometry
--------
Formula: C8H16Cl4OSn
Atoms
  Index Symbol   x (angstrom)   y (angstrom)   z (angstrom)
      1      H     0.93670843    -1.20650743     1.26636488
      2      C    -0.85129403     0.05869888     1.02701199
      3      C     0.39483238    -0.67029199     0.47600364
      4      C     1.37871741     0.20897118    -0.21447988
      5      O     2.43932416    -0.19114974    -0.67415265
      6      H    -1.23919433     0.71107715     0.23291737
      7      H     0.14339092    -1.43512149    -0.27016903
      8      H    -0.02585783     0.33490512     3.03965729
      9      C    -0.44825556     0.93669410     2.23127380
     10      H     0.30809503     1.67760254     1.94850062
     11      H    -1.29381128     1.49535130     2.63474224
     12      C    -2.38653907    -1.79042874     0.10905145
     13      C    -2.04552944    -0.94963045     1.35957548
     14      C    -3.29117920    -0.12113130     1.73784733
     15      C    -1.67390638    -1.89095460     2.52722732
     16      H    -1.45538400    -1.34045558     3.44522684
     17      H    -3.24219428    -2.44048685     0.31606580
     18      H    -1.56661002    -2.44064483    -0.20430080
     19      H    -2.65386739    -1.15236079    -0.74121865
     20      H    -4.13869056    -0.78339193     1.94078747
     21      H    -3.58272685     0.55129205     0.92332478
     22      H    -3.13207663     0.48435146     2.63244122
     23      H    -2.50719593    -2.56705832     2.74221131
     24      H    -0.80497480    -2.51373517     2.29332038
     25      H     1.11402327     1.27654057    -0.35745669
     26     Sn     3.81269746    -1.05597669    -1.80375490
     27     Cl     5.66047571    -0.00458015    -0.70966485
     28     Cl     3.87421699     0.62319282    -3.50722417
     29     Cl     2.23639606    -2.28805892    -3.12431359
     30     Cl     4.14259997    -3.00102799    -0.44494041
 
Total System Charge             0.00000
 
 *** GOStep4 ***

 Energy gradients wrt nuclear displacements
 ==========================================

     Atom      Cartesian (a.u./angstrom)
                 X         Y         Z
 ----------------------------------------
     1 H    -0.001224  0.002844  0.001969
     2 C     0.006743  0.014124 -0.011971
     3 C    -0.000477 -0.012898 -0.003711
     4 C     0.035631 -0.006872 -0.011164
     5 O     0.045285 -0.038776 -0.043343
     6 H    -0.001737 -0.000668  0.000496
     7 H    -0.001516  0.001117  0.000626
     8 H    -0.001574 -0.000877 -0.000267
     9 C    -0.000703 -0.000627  0.007807
    10 H    -0.000737  0.000254  0.000085
    11 H    -0.000992 -0.000657  0.001094
    12 C     0.002835 -0.003426 -0.002521
    13 C    -0.013457 -0.008384  0.003017
    14 C     0.000521  0.002762  0.001100
    15 C     0.002247 -0.000572  0.003775
    16 H     0.001389  0.000854 -0.000652
    17 H     0.000431 -0.000438  0.000597
    18 H     0.001181  0.002567 -0.000475
    19 H    -0.000098  0.000692 -0.000322
    20 H     0.000199 -0.000324  0.000611
    21 H     0.000405  0.000279 -0.000456
    22 H     0.001721  0.001235 -0.000666
    23 H    -0.000279  0.000320 -0.000041
    24 H     0.000850  0.000983 -0.000342
    25 H    -0.005823  0.002674  0.000958
    26 Sn   -0.070593  0.039935  0.049850
    27 Cl   -0.000512 -0.000039  0.000096
    28 Cl   -0.001301  0.000879  0.001415
    29 Cl    0.003255  0.001252  0.001154
    30 Cl   -0.001672  0.001789  0.001280
 ----------------------------------------
 Mulliken charges used for AMS results%charges...

 dE(predicted):    -0.16368E-01, dE(actual):    -0.18695E-01, Trust radius:    0.800000, all in a.u.
 
----------------------------------------------------------------------
Geometry Convergence after Step   4       (Hartree/Angstrom,Angstrom)
----------------------------------------------------------------------
current energy                               -5.37849924 Hartree
energy change                      -0.01869544     0.00030000    F
constrained gradient max            0.07059155     0.00100000    F
constrained gradient rms            0.01374345     0.00066667    F
gradient max                        0.07059155
gradient rms                        0.01374345
cart. step max                      0.19061500     0.01000000    F
cart. step rms                      0.06033589     0.00666667    F
 
 
--------
Geometry
--------
Formula: C8H16Cl4OSn
Atoms
  Index Symbol   x (angstrom)   y (angstrom)   z (angstrom)
      1      H     0.96118898    -1.16710105     1.25611366
      2      C    -0.86590468     0.05882469     1.05723107
      3      C     0.37979797    -0.64374745     0.48325091
      4      C     1.31614021     0.24118041    -0.25071349
      5      O     2.42450436    -0.12656072    -0.65338461
      6      H    -1.25793965     0.71143878     0.26449233
      7      H     0.13859037    -1.42983005    -0.24786444
      8      H     0.01823710     0.37708835     3.04142016
      9      C    -0.41692464     0.95922906     2.22331365
     10      H     0.35112931     1.67133506     1.89658294
     11      H    -1.23464087     1.55662386     2.62891401
     12      C    -2.43997776    -1.72855002     0.09883252
     13      C    -2.06335588    -0.94788427     1.37680330
     14      C    -3.31280505    -0.14676136     1.80259369
     15      C    -1.70249579    -1.95376354     2.49052899
     16      H    -1.47711641    -1.46075048     3.44038848
     17      H    -3.32732687    -2.34161317     0.28677769
     18      H    -1.65763218    -2.41555861    -0.23776448
     19      H    -2.67998749    -1.05535189    -0.73250355
     20      H    -4.16084144    -0.82476031     1.94396268
     21      H    -3.60320934     0.58296747     1.03801442
     22      H    -3.17488408     0.38833960     2.74495970
     23      H    -2.54710738    -2.62697370     2.67024405
     24      H    -0.84706481    -2.58367271     2.22416323
     25      H     1.05013518     1.30335915    -0.43932609
     26     Sn     3.89628858    -1.07032191    -1.78995144
     27     Cl     5.72143966     0.09404478    -0.76442397
     28     Cl     3.95983140     0.46666450    -3.62895645
     29     Cl     2.32090645    -2.41231639    -3.01813223
     30     Cl     4.33321497    -2.95989388    -0.37369114
 
Total System Charge             0.00000
 
 *** GOStep5 ***

 Energy gradients wrt nuclear displacements
 ==========================================

     Atom      Cartesian (a.u./angstrom)
                 X         Y         Z
 ----------------------------------------
     1 H    -0.000235 -0.000426  0.002143
     2 C     0.006701  0.008149 -0.002198
     3 C     0.002833  0.001070  0.001001
     4 C    -0.012524 -0.006090 -0.006412
     5 O     0.034745 -0.022357 -0.018116
     6 H     0.000033 -0.000524  0.000028
     7 H     0.001799 -0.000104 -0.000093
     8 H     0.000362 -0.000275 -0.000146
     9 C     0.003475  0.000492 -0.000254
    10 H     0.000625  0.001421  0.000144
    11 H     0.001280  0.000366 -0.000120
    12 C     0.001005  0.000835  0.001425
    13 C    -0.010007 -0.006392  0.001421
    14 C    -0.000284 -0.001471 -0.000464
    15 C    -0.000456  0.000041  0.000648
    16 H     0.000032 -0.000355  0.000427
    17 H    -0.000247 -0.000576  0.000326
    18 H     0.000552 -0.000310 -0.000765
    19 H    -0.000651  0.000330 -0.000683
    20 H    -0.000690 -0.000264  0.000421
    21 H    -0.000674  0.000173 -0.000572
    22 H    -0.001258 -0.000268 -0.000471
    23 H    -0.000324 -0.000276 -0.000041
    24 H     0.000601 -0.000861 -0.000088
    25 H     0.003524  0.007670  0.001602
    26 Sn   -0.036590  0.021531  0.023056
    27 Cl    0.004475  0.000534  0.000031
    28 Cl   -0.000190  0.003025 -0.002784
    29 Cl    0.002013 -0.002280 -0.002350
    30 Cl    0.000076 -0.002810  0.002882
 ----------------------------------------
 Mulliken charges used for AMS results%charges...

 dE(predicted):    -0.69248E-02, dE(actual):    -0.86577E-02, Trust radius:    0.800000, all in a.u.
 
----------------------------------------------------------------------
Geometry Convergence after Step   5       (Hartree/Angstrom,Angstrom)
----------------------------------------------------------------------
current energy                               -5.38715693 Hartree
energy change                      -0.00865769     0.00030000    F
constrained gradient max            0.03659528     0.00100000    F
constrained gradient rms            0.00749454     0.00066667    F
gradient max                        0.03659528
gradient rms                        0.00749454
cart. step max                      0.20990820     0.01000000    F
cart. step rms                      0.06427255     0.00666667    F
 
 
--------
Geometry
--------
Formula: C8H16Cl4OSn
Atoms
  Index Symbol   x (angstrom)   y (angstrom)   z (angstrom)
      1      H     0.98242484    -1.14426097     1.25447780
      2      C    -0.86980457     0.05447356     1.06799385
      3      C     0.38541951    -0.62579546     0.49057919
      4      C     1.30338968     0.26789542    -0.25190101
      5      O     2.42929649    -0.06906807    -0.63550403
      6      H    -1.25945390     0.71944466     0.28342647
      7      H     0.15430629    -1.41836015    -0.23892310
      8      H    -0.04094188     0.35181573     3.08070058
      9      C    -0.45739087     0.93943846     2.25592094
     10      H     0.31745400     1.65631642     1.95685817
     11      H    -1.28841140     1.53017413     2.64555260
     12      C    -2.48187521    -1.66691293     0.06127551
     13      C    -2.06567426    -0.94850801     1.36398589
     14      C    -3.28337997    -0.13521903     1.85471383
     15      C    -1.69846480    -2.00189069     2.42906787
     16      H    -1.44618898    -1.54988609     3.39301366
     17      H    -3.39333025    -2.24822577     0.23389692
     18      H    -1.73334368    -2.37642978    -0.30543553
     19      H    -2.69935289    -0.95689101    -0.74496456
     20      H    -4.14903720    -0.79505378     1.97175635
     21      H    -3.56450302     0.64548612     1.13860213
     22      H    -3.11475992     0.34074794     2.82429134
     23      H    -2.55014203    -2.66827812     2.60140096
     24      H    -0.85995465    -2.63586573     2.12199985
     25      H     0.97977157     1.28821077    -0.54570418
     26     Sn     3.95353412    -1.09541591    -1.77360006
     27     Cl     5.74172604     0.22426601    -0.87773051
     28     Cl     3.94872344     0.25762021    -3.75359134
     29     Cl     2.33404190    -2.55146657    -2.80822403
     30     Cl     4.52811182    -2.87267717    -0.26205996
 
Total System Charge             0.00000
 
 *** GOStep6 ***

 Energy gradients wrt nuclear displacements
 ==========================================

     Atom      Cartesian (a.u./angstrom)
                 X         Y         Z
 ----------------------------------------
     1 H     0.001441 -0.000628  0.000594
     2 C     0.007159  0.005204 -0.000796
     3 C     0.000448  0.004039 -0.006333
     4 C    -0.013946 -0.001051  0.014468
     5 O     0.020236 -0.014260 -0.012163
     6 H    -0.000693 -0.000248 -0.000117
     7 H     0.002547 -0.001989  0.000678
     8 H     0.000651 -0.000276  0.000624
     9 C    -0.001844 -0.001976 -0.000866
    10 H     0.000182  0.000959  0.000121
    11 H    -0.000447  0.000852  0.000759
    12 C     0.001746  0.001521  0.000380
    13 C    -0.008621 -0.006958  0.001253
    14 C     0.002921  0.001264 -0.000751
    15 C     0.000540  0.001585 -0.000352
    16 H     0.000017 -0.000152  0.001054
    17 H    -0.000122 -0.000227  0.000167
    18 H    -0.000743 -0.001485 -0.000984
    19 H    -0.000661 -0.000076 -0.000795
    20 H    -0.000130 -0.000229  0.000255
    21 H    -0.000784  0.000339 -0.000213
    22 H    -0.000624  0.000988  0.000957
    23 H    -0.000154 -0.000267 -0.000109
    24 H     0.000463 -0.001203  0.000220
    25 H     0.003802  0.003798 -0.005584
    26 Sn   -0.021069  0.013580  0.010845
    27 Cl    0.006511  0.001001 -0.000121
    28 Cl   -0.000659  0.004112 -0.004656
    29 Cl    0.001012 -0.004012 -0.003575
    30 Cl    0.000820 -0.004208  0.005041
 ----------------------------------------
 Mulliken charges used for AMS results%charges...

 dE(predicted):    -0.29177E-02, dE(actual):    -0.32573E-02, Trust radius:    0.800000, all in a.u.
 
----------------------------------------------------------------------
Geometry Convergence after Step   6       (Hartree/Angstrom,Angstrom)
----------------------------------------------------------------------
current energy                               -5.39041422 Hartree
energy change                      -0.00325729     0.00030000    F
constrained gradient max            0.02106749     0.00100000    F
constrained gradient rms            0.00521068     0.00066667    F
gradient max                        0.02106749
gradient rms                        0.00521068
cart. step max                      0.21037824     0.01000000    F
cart. step rms                      0.05535784     0.00666667    F
 
 
--------
Geometry
--------
Formula: C8H16Cl4OSn
Atoms
  Index Symbol   x (angstrom)   y (angstrom)   z (angstrom)
      1      H     0.97588046    -1.13524180     1.22144827
      2      C    -0.88078581     0.06499957     1.07592418
      3      C     0.36325607    -0.61201771     0.47450829
      4      C     1.26263151     0.27962857    -0.29428517
      5      O     2.40869783    -0.02245418    -0.64043040
      6      H    -1.27371470     0.74282116     0.30345815
      7      H     0.11130411    -1.40181160    -0.25250108
      8      H    -0.04981696     0.34067527     3.09187540
      9      C    -0.45646911     0.93656406     2.26801875
     10      H     0.33127707     1.63994652     1.97121994
     11      H    -1.27808197     1.53952180     2.65817798
     12      C    -2.51053894    -1.60217104     0.03790028
     13      C    -2.06807708    -0.93828564     1.36057986
     14      C    -3.27704315    -0.15157451     1.91350689
     15      C    -1.68091582    -2.03575180     2.37126882
     16      H    -1.40570751    -1.62408307     3.34689995
     17      H    -3.42800050    -2.17768815     0.19737305
     18      H    -1.77350347    -2.30626476    -0.36121441
     19      H    -2.72537758    -0.85991583    -0.73900162
     20      H    -4.14479783    -0.81327002     1.99911053
     21      H    -3.56180154     0.67347635     1.25085053
     22      H    -3.09388053     0.26108034     2.90889758
     23      H    -2.52969481    -2.70780364     2.53603589
     24      H    -0.85113461    -2.65683285     2.01902674
     25      H     0.90438437     1.27012504    -0.63933138
     26     Sn     4.00779647    -1.12605278    -1.74055024
     27     Cl     5.70788021     0.33543323    -0.89993864
     28     Cl     4.00925906     0.04724197    -3.82938936
     29     Cl     2.33936674    -2.63468810    -2.61517332
     30     Cl     4.66979820    -2.80992219    -0.16238988
 
Total System Charge             0.00000
 
 *** GOStep7 ***

 Energy gradients wrt nuclear displacements
 ==========================================

     Atom      Cartesian (a.u./angstrom)
                 X         Y         Z
 ----------------------------------------
     1 H     0.001505 -0.001241  0.000284
     2 C     0.005642  0.001998  0.001619
     3 C    -0.001837  0.005689 -0.005033
     4 C    -0.016239 -0.000375  0.012080
     5 O     0.010435 -0.007728 -0.004332
     6 H    -0.000505 -0.000204 -0.000488
     7 H     0.002245 -0.002889  0.000499
     8 H     0.000782 -0.000019  0.000606
     9 C    -0.003021 -0.001709 -0.001695
    10 H     0.000279  0.000601  0.000087
    11 H     0.000226  0.000784  0.000524
    12 C     0.002096  0.002331  0.000495
    13 C    -0.003857 -0.003867  0.000338
    14 C     0.002074  0.000713 -0.000278
    15 C     0.000460  0.002303 -0.001266
    16 H    -0.000187 -0.000243  0.000810
    17 H    -0.000356 -0.000021  0.000011
    18 H    -0.000201 -0.001328 -0.000514
    19 H    -0.000327 -0.000267 -0.000478
    20 H    -0.000233 -0.000122  0.000114
    21 H    -0.000575  0.000100 -0.000038
    22 H    -0.000837  0.000195  0.000752
    23 H    -0.000116 -0.000369 -0.000047
    24 H     0.000324 -0.000825  0.000022
    25 H     0.005864  0.001536 -0.004888
    26 Sn   -0.009827  0.007722  0.003102
    27 Cl    0.007564  0.001383 -0.000336
    28 Cl   -0.001809  0.005246 -0.005566
    29 Cl   -0.000033 -0.004981 -0.003562
    30 Cl    0.000465 -0.004412  0.007177
 ----------------------------------------
 Mulliken charges used for AMS results%charges...
 Rebuilding optimization coordinates

 dE(predicted):    -0.19605E-02, dE(actual):    -0.23553E-02, Trust radius:    1.000000, all in a.u.
 
----------------------------------------------------------------------
Geometry Convergence after Step   7       (Hartree/Angstrom,Angstrom)
----------------------------------------------------------------------
current energy                               -5.39276952 Hartree
energy change                      -0.00235530     0.00030000    F
constrained gradient max            0.01623994     0.00100000    F
constrained gradient rms            0.00372114     0.00066667    F
gradient max                        0.01623994
gradient rms                        0.00372114
cart. step max                      0.21188295     0.01000000    F
cart. step rms                      0.06112895     0.00666667    F
 
 
--------
Geometry
--------
Formula: C8H16Cl4OSn
Atoms
  Index Symbol   x (angstrom)   y (angstrom)   z (angstrom)
      1      H     0.96728773    -1.14322335     1.16494344
      2      C    -0.89185892     0.05983127     1.06703961
      3      C     0.34029652    -0.61230465     0.43747231
      4      C     1.21973515     0.28513700    -0.35134655
      5      O     2.38747446     0.03234853    -0.65598698
      6      H    -1.28925605     0.75345565     0.31065568
      7      H     0.06525360    -1.39211954    -0.29258209
      8      H    -0.04402954     0.30825104     3.08007505
      9      C    -0.44322333     0.91531551     2.26078105
     10      H     0.35732102     1.60254595     1.96145614
     11      H    -1.25155439     1.53171295     2.65729946
     12      C    -2.57596293    -1.54690349     0.03027942
     13      C    -2.07675114    -0.93260898     1.35708724
     14      C    -3.25639310    -0.15386184     1.98071388
     15      C    -1.67288570    -2.06939952     2.31581541
     16      H    -1.35470332    -1.69327324     3.29265555
     17      H    -3.50100932    -2.10717044     0.19890922
     18      H    -1.86527099    -2.25304126    -0.41026570
     19      H    -2.79532643    -0.77659603    -0.71706764
     20      H    -4.13399400    -0.80316676     2.05759172
     21      H    -3.54222779     0.70877318     1.36860037
     22      H    -3.03560216     0.20403371     2.98944019
     23      H    -2.52602282    -2.73306556     2.49135032
     24      H    -0.86718618    -2.69057246     1.91311648
     25      H     0.81727484     1.23989921    -0.74153029
     26     Sn     4.08291078    -1.13470920    -1.69153776
     27     Cl     5.64352026     0.48398221    -0.87928766
     28     Cl     4.13885312    -0.16464098    -3.87638387
     29     Cl     2.36793152    -2.67188104    -2.41616134
     30     Cl     4.83758936    -2.73106364    -0.07125710
 
Total System Charge             0.00000
 
 *** GOStep8 ***

 Energy gradients wrt nuclear displacements
 ==========================================

     Atom      Cartesian (a.u./angstrom)
                 X         Y         Z
 ----------------------------------------
     1 H     0.001398 -0.001307 -0.000124
     2 C     0.002638 -0.002245  0.002769
     3 C    -0.002331  0.007681 -0.002374
     4 C    -0.017043  0.000023  0.007686
     5 O     0.005846 -0.004289  0.000052
     6 H    -0.000150  0.000152 -0.000471
     7 H     0.001993 -0.002756  0.000525
     8 H     0.000696  0.000090  0.000567
     9 C    -0.003335 -0.002091 -0.002624
    10 H     0.000365  0.000200 -0.000081
    11 H     0.000058  0.000447  0.000173
    12 C     0.000897  0.002042  0.000765
    13 C     0.001027 -0.000223 -0.000523
    14 C     0.001608  0.000190 -0.000271
    15 C     0.000215  0.002318 -0.001806
    16 H    -0.000298 -0.000083  0.000533
    17 H    -0.000476  0.000117 -0.000267
    18 H    -0.000488 -0.001149  0.000023
    19 H    -0.000018 -0.000403 -0.000157
    20 H    -0.000238 -0.000009 -0.000027
    21 H    -0.000265 -0.000040  0.000106
    22 H    -0.000375 -0.000198  0.000632
    23 H    -0.000033 -0.000430  0.000026
    24 H    -0.000034 -0.000408  0.000115
    25 H     0.006689 -0.000111 -0.003192
    26 Sn   -0.001891  0.004025 -0.001395
    27 Cl    0.008304  0.001970 -0.000403
    28 Cl   -0.003276  0.006235 -0.006443
    29 Cl   -0.001382 -0.005566 -0.003263
    30 Cl   -0.000101 -0.004183  0.009448
 ----------------------------------------
 Mulliken charges used for AMS results%charges...

 dE(predicted):    -0.42191E-02, dE(actual):    -0.24978E-02, Trust radius:    1.000000, all in a.u.
 
----------------------------------------------------------------------
Geometry Convergence after Step   8       (Hartree/Angstrom,Angstrom)
----------------------------------------------------------------------
current energy                               -5.39526737 Hartree
energy change                      -0.00249785     0.00030000    F
constrained gradient max            0.01704350     0.00100000    F
constrained gradient rms            0.00323894     0.00066667    F
gradient max                        0.01704350
gradient rms                        0.00323894
cart. step max                      0.21527785     0.01000000    F
cart. step rms                      0.05948582     0.00666667    F
 
 
--------
Geometry
--------
Formula: C8H16Cl4OSn
Atoms
  Index Symbol   x (angstrom)   y (angstrom)   z (angstrom)
      1      H     0.95591448    -1.15271143     1.10455745
      2      C    -0.90235024     0.05666629     1.05872678
      3      C     0.31482834    -0.61260017     0.39826027
      4      C     1.17407679     0.29000501    -0.41023042
      5      O     2.35830839     0.08730228    -0.67976646
      6      H    -1.30528963     0.76566726     0.31934661
      7      H     0.01394503    -1.38117782    -0.33417525
      8      H    -0.03373049     0.27656496     3.06693855
      9      C    -0.42705578     0.89523059     2.25353267
     10      H     0.38522081     1.56637251     1.95030333
     11      H    -1.22058517     1.52481239     2.65885475
     12      C    -2.63459290    -1.49260643     0.02632453
     13      C    -2.08419649    -0.92683894     1.35486474
     14      C    -3.23472802    -0.15986352     2.04479868
     15      C    -1.66439983    -2.09977757     2.26140034
     16      H    -1.30536869    -1.75858202     3.23686310
     17      H    -3.56460247    -2.04150151     0.20381620
     18      H    -1.94789123    -2.19629936    -0.45406036
     19      H    -2.85938411    -0.69617438    -0.69108722
     20      H    -4.12133378    -0.79734626     2.11399391
     21      H    -3.52019680     0.73603127     1.48256121
     22      H    -2.97947500     0.14486770     3.06269754
     23      H    -2.52020986    -2.75692959     2.44775520
     24      H    -0.88291727    -2.71790633     1.81038683
     25      H     0.72953804     1.20504818    -0.84500394
     26     Sn     4.14911507    -1.14016655    -1.63765605
     27     Cl     5.56677315     0.61827269    -0.86579555
     28     Cl     4.28287831    -0.37991883    -3.89577546
     29     Cl     2.39207821    -2.68901878    -2.22607156
     30     Cl     4.98782132    -2.65173743     0.01551520
 
Total System Charge             0.00000
 
 *** GOStep9 ***

 Energy gradients wrt nuclear displacements
 ==========================================

     Atom      Cartesian (a.u./angstrom)
                 X         Y         Z
 ----------------------------------------
     1 H     0.001273 -0.001467 -0.000676
     2 C    -0.000177 -0.006094  0.003681
     3 C    -0.003018  0.009058  0.000211
     4 C    -0.016974  0.000238  0.004352
     5 O     0.003680 -0.002768  0.001919
     6 H     0.000145  0.000413 -0.000556
     7 H     0.001726 -0.002942  0.000161
     8 H     0.000644  0.000192  0.000532
     9 C    -0.003794 -0.002136 -0.003270
    10 H     0.000488 -0.000145 -0.000253
    11 H     0.000054  0.000224 -0.000118
    12 C     0.000262  0.001845  0.000943
    13 C     0.005279  0.002994 -0.001277
    14 C     0.001130 -0.000237 -0.000052
    15 C     0.000013  0.002366 -0.002286
    16 H    -0.000381  0.000026  0.000325
    17 H    -0.000551  0.000292 -0.000445
    18 H    -0.000506 -0.001004  0.000426
    19 H     0.000278 -0.000532  0.000047
    20 H    -0.000215  0.000123 -0.000165
    21 H    -0.000002 -0.000130  0.000216
    22 H    -0.000130 -0.000598  0.000461
    23 H     0.000061 -0.000470  0.000078
    24 H    -0.000277 -0.000072  0.000208
    25 H     0.007291 -0.001448 -0.001968
    26 Sn    0.003088  0.002510 -0.003314
    27 Cl    0.008888  0.003047 -0.000155
    28 Cl   -0.004318  0.006743 -0.007755
    29 Cl   -0.003491 -0.005943 -0.002551
    30 Cl   -0.000468 -0.004086  0.011280
 ----------------------------------------
 Mulliken charges used for AMS results%charges...

 dE(predicted):    -0.35530E-02, dE(actual):    -0.24211E-02, Trust radius:    1.000000, all in a.u.
 
----------------------------------------------------------------------
Geometry Convergence after Step   9       (Hartree/Angstrom,Angstrom)
----------------------------------------------------------------------
current energy                               -5.39768843 Hartree
energy change                      -0.00242106     0.00030000    F
constrained gradient max            0.01697427     0.00100000    F
constrained gradient rms            0.00345844     0.00066667    F
gradient max                        0.01697427
gradient rms                        0.00345844
cart. step max                      0.21762150     0.01000000    F
cart. step rms                      0.05330051     0.00666667    F
 
 
--------
Geometry
--------
Formula: C8H16Cl4OSn
Atoms
  Index Symbol   x (angstrom)   y (angstrom)   z (angstrom)
      1      H     0.93854281    -1.16356699     1.04779767
      2      C    -0.91369077     0.05653101     1.05285045
      3      C     0.28773451    -0.61185754     0.36221554
      4      C     1.12964591     0.29824561    -0.46135525
      5      O     2.32341612     0.14265478    -0.70321709
      6      H    -1.32215934     0.77995606     0.33036565
      7      H    -0.04212829    -1.36436427    -0.37477711
      8      H    -0.02026497     0.24782904     3.05403514
      9      C    -0.41259422     0.87808512     2.24929580
     10      H     0.40646433     1.53807581     1.94139924
     11      H    -1.19353247     1.51491739     2.66717416
     12      C    -2.67568475    -1.45202480     0.02663705
     13      C    -2.08996150    -0.92067720     1.35492319
     14      C    -3.21948609    -0.16683337     2.09359617
     15      C    -1.65612547    -2.11850523     2.22170887
     16      H    -1.26629718    -1.80174247     3.19346398
     17      H    -3.60506775    -1.99950391     0.21019095
     18      H    -2.00141905    -2.14624654    -0.48376259
     19      H    -2.90882248    -0.63680465    -0.66627449
     20      H    -4.11047399    -0.79789359     2.16104208
     21      H    -3.50708392     0.75007564     1.56777402
     22      H    -2.93671490     0.10126060     3.11432749
     23      H    -2.51160624    -2.77302460     2.41786640
     24      H    -0.89255309    -2.73067611     1.73453805
     25      H     0.64515345     1.17999362    -0.92023305
     26     Sn     4.20930035    -1.14914834    -1.59571113
     27     Cl     5.45940963     0.73056376    -0.83855233
     28     Cl     4.46677110    -0.59754033    -3.89544745
     29     Cl     2.37994269    -2.65344747    -2.06438489
     30     Cl     5.14147580    -2.61864685     0.03438905
 
Total System Charge             0.00000
 
 *** GOStep10 ***

 Energy gradients wrt nuclear displacements
 ==========================================

     Atom      Cartesian (a.u./angstrom)
                 X         Y         Z
 ----------------------------------------
     1 H     0.000659 -0.001285 -0.001281
     2 C    -0.004105 -0.009577  0.003917
     3 C    -0.002390  0.008913  0.003829
     4 C    -0.013290 -0.000500 -0.001962
     5 O     0.001600 -0.002739  0.003385
     6 H     0.000396  0.000663 -0.000597
     7 H     0.000937 -0.003003 -0.000856
     8 H     0.000524  0.000341  0.000440
     9 C    -0.003823 -0.001683 -0.003193
    10 H     0.000517 -0.000535 -0.000391
    11 H     0.000038 -0.000145 -0.000401
    12 C    -0.000175  0.001439  0.000618
    13 C     0.009676  0.006341 -0.001888
    14 C     0.000218 -0.000407  0.000461
    15 C     0.000037  0.002063 -0.002537
    16 H    -0.000405  0.000175  0.000076
    17 H    -0.000486  0.000489 -0.000589
    18 H    -0.000048 -0.000640  0.000788
    19 H     0.000605 -0.000628  0.000233
    20 H    -0.000078  0.000288 -0.000300
    21 H     0.000219 -0.000227  0.000311
    22 H     0.000215 -0.000887  0.000127
    23 H     0.000174 -0.000436  0.000127
    24 H    -0.000465  0.000364  0.000320
    25 H     0.007027 -0.002555  0.000378
    26 Sn    0.006289  0.002439 -0.003713
    27 Cl    0.008543  0.004735  0.000455
    28 Cl   -0.004807  0.006761 -0.009138
    29 Cl   -0.007209 -0.005510 -0.001208
    30 Cl   -0.000392 -0.004256  0.012588
 ----------------------------------------
 Mulliken charges used for AMS results%charges...

 dE(predicted):    -0.88418E-02, dE(actual):    -0.33062E-02, Trust radius:    1.000000, all in a.u.
 
----------------------------------------------------------------------
Geometry Convergence after Step  10       (Hartree/Angstrom,Angstrom)
----------------------------------------------------------------------
current energy                               -5.40099461 Hartree
energy change                      -0.00330619     0.00030000    F
constrained gradient max            0.01328881     0.00100000    F
constrained gradient rms            0.00372674     0.00066667    F
gradient max                        0.01328881
gradient rms                        0.00372674
cart. step max                      0.21549386     0.01000000    F
cart. step rms                      0.04425336     0.00666667    F
 
 
--------
Geometry
--------
Formula: C8H16Cl4OSn
Atoms
  Index Symbol   x (angstrom)   y (angstrom)   z (angstrom)
      1      H     0.91888506    -1.16904021     1.01929289
      2      C    -0.92655190     0.05773894     1.04869836
      3      C     0.26789743    -0.61052899     0.34269021
      4      C     1.10315892     0.31173401    -0.48313867
      5      O     2.29829937     0.18599218    -0.70723011
      6      H    -1.33800224     0.78850777     0.33534105
      7      H    -0.08185514    -1.34738597    -0.40010670
      8      H    -0.01172755     0.23552842     3.04202442
      9      C    -0.40866793     0.87173411     2.24477576
     10      H     0.40946031     1.52900122     1.93089787
     11      H    -1.18439743     1.50761815     2.67315812
     12      C    -2.69510154    -1.44494141     0.03453791
     13      C    -2.09574447    -0.91614532     1.35850811
     14      C    -3.22036236    -0.16871922     2.11219004
     15      C    -1.65281549    -2.11780615     2.21659279
     16      H    -1.25062387    -1.80242269     3.18346419
     17      H    -3.61898379    -1.99898425     0.22416978
     18      H    -2.01895132    -2.12981295    -0.48501279
     19      H    -2.93811468    -0.62630083    -0.65063292
     20      H    -4.10883661    -0.80190709     2.18730301
     21      H    -3.51439212     0.74979972     1.59312753
     22      H    -2.92339445     0.09596834     3.12940846
     23      H    -2.50559061    -2.77278689     2.42150373
     24      H    -0.89445840    -2.72619456     1.71790730
     25      H     0.58540308     1.18010762    -0.93094760
     26     Sn     4.26310413    -1.16339063    -1.59004681
     27     Cl     5.33170320     0.78889465    -0.77117106
     28     Cl     4.68226495    -0.75825714    -3.88430812
     29     Cl     2.33643370    -2.55347186    -1.99705432
     30     Cl     5.29415197    -2.67884476    -0.08406683
 
Total System Charge             0.00000
 
 *** GOStep11 ***

 Energy gradients wrt nuclear displacements
 ==========================================

     Atom      Cartesian (a.u./angstrom)
                 X         Y         Z
 ----------------------------------------
     1 H    -0.000599 -0.000208 -0.001666
     2 C    -0.009334 -0.012048  0.003286
     3 C     0.000304  0.006779  0.007387
     4 C    -0.004011 -0.001243 -0.011854
     5 O     0.000077 -0.004581  0.004765
     6 H     0.000752  0.000922 -0.000404
     7 H    -0.000359 -0.002363 -0.001787
     8 H     0.000223  0.000480  0.000178
     9 C    -0.002408 -0.000971 -0.002416
    10 H     0.000320 -0.000960 -0.000452
    11 H    -0.000116 -0.000764 -0.000766
    12 C    -0.001177  0.000533  0.000107
    13 C     0.013878  0.009681 -0.002531
    14 C    -0.001199 -0.000663  0.000917
    15 C     0.000054  0.001110 -0.002309
    16 H    -0.000396  0.000402 -0.000324
    17 H    -0.000328  0.000619 -0.000704
    18 H     0.000491 -0.000007  0.001268
    19 H     0.000921 -0.000609  0.000524
    20 H     0.000106  0.000430 -0.000412
    21 H     0.000444 -0.000410  0.000334
    22 H     0.000759 -0.001059 -0.000445
    23 H     0.000297 -0.000304  0.000153
    24 H    -0.000690  0.000959  0.000435
    25 H     0.004983 -0.003740  0.004332
    26 Sn    0.007656  0.003924 -0.002368
    27 Cl    0.005609  0.006536  0.001624
    28 Cl   -0.004157  0.005657 -0.009183
    29 Cl   -0.012327 -0.003289  0.000714
    30 Cl    0.000224 -0.004814  0.011598
 ----------------------------------------
 Mulliken charges used for AMS results%charges...

 dE(predicted):    -0.11053E-01, dE(actual):    -0.37774E-02, Trust radius:    1.000000, all in a.u.
 
----------------------------------------------------------------------
Geometry Convergence after Step  11       (Hartree/Angstrom,Angstrom)
----------------------------------------------------------------------
current energy                               -5.40477200 Hartree
energy change                      -0.00377739     0.00030000    F
constrained gradient max            0.01387829     0.00100000    F
constrained gradient rms            0.00415815     0.00066667    F
gradient max                        0.01387829
gradient rms                        0.00415815
cart. step max                      0.21386477     0.01000000    F
cart. step rms                      0.04450400     0.00666667    F
 
 
--------
Geometry
--------
Formula: C8H16Cl4OSn
Atoms
  Index Symbol   x (angstrom)   y (angstrom)   z (angstrom)
      1      H     0.89854962    -1.17864221     0.97308807
      2      C    -0.93984048     0.05561641     1.04039958
      3      C     0.24103037    -0.61321197     0.31056120
      4      C     1.06410265     0.31837273    -0.52409346
      5      O     2.26304579     0.23081838    -0.72846849
      6      H    -1.35706881     0.79503142     0.33928237
      7      H    -0.13077370    -1.33763854    -0.43306063
      8      H     0.00274909     0.21638835     3.02270548
      9      C    -0.39692149     0.85986637     2.23286131
     10      H     0.42426015     1.50809570     1.90949753
     11      H    -1.16063473     1.50202773     2.67318281
     12      C    -2.73637350    -1.42212351     0.04657403
     13      C    -2.10514450    -0.91189236     1.36360587
     14      C    -3.21008987    -0.16939269     2.15147825
     15      C    -1.65127274    -2.12727278     2.19712041
     16      H    -1.22253787    -1.82494176     3.15664531
     17      H    -3.65826315    -1.97481127     0.24839500
     18      H    -2.07246766    -2.10148551    -0.49513226
     19      H    -2.98896590    -0.59323088    -0.62248923
     20      H    -4.10171134    -0.79698659     2.23327371
     21      H    -3.50600467     0.76025104     1.65385026
     22      H    -2.88957166     0.07566219     3.16630824
     23      H    -2.50357069    -2.77813340     2.41603383
     24      H    -0.90957285    -2.73417128     1.67285689
     25      H     0.51230918     1.15791455    -0.98720102
     26     Sn     4.32194798    -1.16463002    -1.56139128
     27     Cl     5.22752705     0.85238457    -0.72613484
     28     Cl     4.89612973    -0.90872668    -3.83364242
     29     Cl     2.35520835    -2.50077234    -1.93356853
     30     Cl     5.43611587    -2.67868144    -0.13066245
 
Total System Charge             0.00000
 
 *** GOStep12 ***

 Energy gradients wrt nuclear displacements
 ==========================================

     Atom      Cartesian (a.u./angstrom)
                 X         Y         Z
 ----------------------------------------
     1 H    -0.001165  0.000155 -0.002035
     2 C    -0.012526 -0.014513  0.003185
     3 C     0.000692  0.005836  0.009320
     4 C     0.001200 -0.001703 -0.015647
     5 O     0.002050 -0.005503  0.004196
     6 H     0.001049  0.001124 -0.000398
     7 H    -0.000814 -0.001910 -0.002054
     8 H     0.000085  0.000512  0.000080
     9 C    -0.002003 -0.000572 -0.002136
    10 H     0.000298 -0.001215 -0.000627
    11 H    -0.000181 -0.000982 -0.000917
    12 C    -0.001728  0.000046 -0.000145
    13 C     0.016752  0.012109 -0.003031
    14 C    -0.001941 -0.000897  0.001307
    15 C     0.000015  0.000538 -0.002261
    16 H    -0.000376  0.000544 -0.000498
    17 H    -0.000259  0.000760 -0.000720
    18 H     0.000734  0.000273  0.001487
    19 H     0.001164 -0.000597  0.000602
    20 H     0.000202  0.000523 -0.000492
    21 H     0.000644 -0.000428  0.000320
    22 H     0.000945 -0.001181 -0.000732
    23 H     0.000372 -0.000234  0.000169
    24 H    -0.000752  0.001273  0.000516
    25 H     0.003906 -0.004436  0.005986
    26 Sn    0.006716  0.006271 -0.000290
    27 Cl    0.002515  0.007758  0.002327
    28 Cl   -0.002561  0.003355 -0.008116
    29 Cl   -0.016247 -0.002048  0.001667
    30 Cl    0.001214 -0.004860  0.008936
 ----------------------------------------
 Mulliken charges used for AMS results%charges...
 Rebuilding optimization coordinates

 dE(predicted):    -0.58380E-02, dE(actual):    -0.23591E-02, Trust radius:    1.000000, all in a.u.
 
----------------------------------------------------------------------
Geometry Convergence after Step  12       (Hartree/Angstrom,Angstrom)
----------------------------------------------------------------------
current energy                               -5.40713115 Hartree
energy change                      -0.00235915     0.00030000    F
constrained gradient max            0.01675344     0.00100000    F
constrained gradient rms            0.00469191     0.00066667    F
gradient max                        0.01675344
gradient rms                        0.00469191
cart. step max                      0.21508833     0.01000000    F
cart. step rms                      0.05201008     0.00666667    F
 
 
--------
Geometry
--------
Formula: C8H16Cl4OSn
Atoms
  Index Symbol   x (angstrom)   y (angstrom)   z (angstrom)
      1      H     0.87285407    -1.20211543     0.90077307
      2      C    -0.95125735     0.04858374     1.02441503
      3      C     0.20460153    -0.62638828     0.25914060
      4      C     1.01077314     0.31056480    -0.59057803
      5      O     2.21410536     0.26986751    -0.77153410
      6      H    -1.37677148     0.79967101     0.34076604
      7      H    -0.19810945    -1.33734886    -0.48095211
      8      H     0.03104393     0.18171201     2.99001022
      9      C    -0.36974982     0.83669096     2.21021709
     10      H     0.45822577     1.46918471     1.87385505
     11      H    -1.11246077     1.49171765     2.66734351
     12      C    -2.79847045    -1.38824910     0.06632436
     13      C    -2.11728966    -0.90739003     1.37002801
     14      C    -3.18563646    -0.16399609     2.20689636
     15      C    -1.65269309    -2.14258789     2.16851617
     16      H    -1.18254512    -1.86093146     3.11490818
     17      H    -3.71933172    -1.93440460     0.28912405
     18      H    -2.15974467    -2.06435671    -0.50868776
     19      H    -3.06297111    -0.54489245    -0.57969950
     20      H    -4.08542459    -0.77784995     2.30152743
     21      H    -3.47919190     0.78180234     1.73914818
     22      H    -2.83008656     0.05276166     3.21649786
     23      H    -2.50676108    -2.78269432     2.41083899
     24      H    -0.94122974    -2.75297636     1.60783265
     25      H     0.42695915     1.11149676    -1.08435936
     26     Sn     4.38447285    -1.14922408    -1.50859893
     27     Cl     5.13909978     0.92597811    -0.68419903
     28     Cl     5.11121806    -1.01949175    -3.74021032
     29     Cl     2.42293112    -2.48524509    -1.88265423
     30     Cl     5.55563047    -2.62420458    -0.09481392
 
Total System Charge             0.00000
 
 *** GOStep13 ***

 Energy gradients wrt nuclear displacements
 ==========================================

     Atom      Cartesian (a.u./angstrom)
                 X         Y         Z
 ----------------------------------------
     1 H    -0.001320 -0.000009 -0.002259
     2 C    -0.013749 -0.015914  0.003087
     3 C     0.000148  0.005699  0.010622
     4 C     0.004192 -0.003071 -0.016538
     5 O     0.003713 -0.004896  0.003638
     6 H     0.001167  0.001236 -0.000508
     7 H    -0.000859 -0.001474 -0.002105
     8 H     0.000018  0.000458  0.000155
     9 C    -0.002229 -0.000382 -0.001864
    10 H     0.000356 -0.001300 -0.000773
    11 H    -0.000244 -0.000951 -0.000875
    12 C    -0.002113 -0.000263 -0.000327
    13 C     0.018026  0.013233 -0.003421
    14 C    -0.002163 -0.000992  0.001667
    15 C    -0.000008  0.000187 -0.002238
    16 H    -0.000300  0.000630 -0.000473
    17 H    -0.000257  0.000852 -0.000695
    18 H     0.000824  0.000309  0.001475
    19 H     0.001284 -0.000592  0.000503
    20 H     0.000225  0.000578 -0.000555
    21 H     0.000753 -0.000331  0.000332
    22 H     0.000958 -0.001196 -0.000767
    23 H     0.000378 -0.000200  0.000189
    24 H    -0.000699  0.001342  0.000598
    25 H     0.003462 -0.004177  0.006339
    26 Sn    0.005253  0.008665  0.001519
    27 Cl    0.000414  0.008131  0.002371
    28 Cl   -0.000999  0.001043 -0.006181
    29 Cl   -0.018226 -0.002282  0.001263
    30 Cl    0.001999 -0.004332  0.005819
 ----------------------------------------
 Mulliken charges used for AMS results%charges...

 dE(predicted):    -0.28508E-02, dE(actual):    -0.15311E-02, Trust radius:    1.000000, all in a.u.
 
----------------------------------------------------------------------
Geometry Convergence after Step  13       (Hartree/Angstrom,Angstrom)
----------------------------------------------------------------------
current energy                               -5.40866223 Hartree
energy change                      -0.00153108     0.00030000    F
constrained gradient max            0.01822521     0.00100000    F
constrained gradient rms            0.00495053     0.00066667    F
gradient max                        0.01822521
gradient rms                        0.00495053
cart. step max                      0.21412747     0.01000000    F
cart. step rms                      0.05171871     0.00666667    F
 
 
--------
Geometry
--------
Formula: C8H16Cl4OSn
Atoms
  Index Symbol   x (angstrom)   y (angstrom)   z (angstrom)
      1      H     0.84187014    -1.23087097     0.82189328
      2      C    -0.96140208     0.04134551     1.00600839
      3      C     0.16442401    -0.64270458     0.20236071
      4      C     0.95543521     0.29938157    -0.66023135
      5      O     2.16053701     0.30260759    -0.81957777
      6      H    -1.39581280     0.80447309     0.34155384
      7      H    -0.27254568    -1.33755238    -0.53298670
      8      H     0.06793769     0.14297663     2.94984980
      9      C    -0.33578707     0.81095122     2.18270139
     10      H     0.49753788     1.42752614     1.83090727
     11      H    -1.05422803     1.47855042     2.66016033
     12      C    -2.85908532    -1.35814264     0.09086533
     13      C    -2.12898275    -0.90286041     1.37771443
     14      C    -3.15894358    -0.15570573     2.25897449
     15      C    -1.65519797    -2.15501096     2.14491423
     16      H    -1.14379428    -1.89166375     3.07510044
     17      H    -3.77599713    -1.90087207     0.33685814
     18      H    -2.24545546    -2.02900767    -0.51670931
     19      H    -3.13840562    -0.50232043    -0.53227346
     20      H    -4.06554623    -0.75626995     2.37171544
     21      H    -3.45052951     0.80236814     1.81546893
     22      H    -2.76857634     0.03931454     3.26013696
     23      H    -2.51020945    -2.78324335     2.41344426
     24      H    -0.97606088    -2.77045785     1.55065139
     25      H     0.34318209     1.06217105    -1.18262914
     26     Sn     4.44205271    -1.13043568    -1.45304223
     27     Cl     5.04948660     0.98553145    -0.63053543
     28     Cl     5.32534553    -1.09395278    -3.62340426
     29     Cl     2.49482320    -2.46926424    -1.85534736
     30     Cl     5.65611829    -2.57117771    -0.05266644
 
Total System Charge             0.00000
 
 *** GOStep14 ***

 Energy gradients wrt nuclear displacements
 ==========================================

     Atom      Cartesian (a.u./angstrom)
                 X         Y         Z
 ----------------------------------------
     1 H    -0.001442 -0.000092 -0.002376
     2 C    -0.014380 -0.016107  0.002680
     3 C    -0.000230  0.004960  0.011385
     4 C     0.008279 -0.003976 -0.016515
     5 O     0.004374 -0.004163  0.003321
     6 H     0.001243  0.001292 -0.000593
     7 H    -0.001120 -0.000954 -0.002102
     8 H    -0.000057  0.000389  0.000218
     9 C    -0.002038 -0.000038 -0.001381
    10 H     0.000409 -0.001295 -0.000829
    11 H    -0.000234 -0.000895 -0.000814
    12 C    -0.002391 -0.000671 -0.000525
    13 C     0.018219  0.013519 -0.003689
    14 C    -0.002396 -0.000967  0.002028
    15 C    -0.000027 -0.000273 -0.002055
    16 H    -0.000168  0.000673 -0.000443
    17 H    -0.000204  0.000879 -0.000673
    18 H     0.000979  0.000357  0.001337
    19 H     0.001350 -0.000540  0.000351
    20 H     0.000252  0.000613 -0.000603
    21 H     0.000810 -0.000211  0.000335
    22 H     0.000923 -0.001136 -0.000792
    23 H     0.000374 -0.000153  0.000199
    24 H    -0.000574  0.001334  0.000642
    25 H     0.002559 -0.003760  0.006289
    26 Sn    0.003516  0.010548  0.003147
    27 Cl   -0.001784  0.007846  0.002138
    28 Cl    0.000441 -0.001221 -0.003040
    29 Cl   -0.019227 -0.002660  0.000498
    30 Cl    0.002544 -0.003298  0.001864
 ----------------------------------------
 Mulliken charges used for AMS results%charges...

 dE(predicted):    -0.13232E-02, dE(actual):    -0.11039E-02, Trust radius:    1.000000, all in a.u.
 
----------------------------------------------------------------------
Geometry Convergence after Step  14       (Hartree/Angstrom,Angstrom)
----------------------------------------------------------------------
current energy                               -5.40976616 Hartree
energy change                      -0.00110393     0.00030000    F
constrained gradient max            0.01922273     0.00100000    F
constrained gradient rms            0.00505120     0.00066667    F
gradient max                        0.01922273
gradient rms                        0.00505120
cart. step max                      0.21683560     0.01000000    F
cart. step rms                      0.05760530     0.00666667    F
 
 
--------
Geometry
--------
Formula: C8H16Cl4OSn
Atoms
  Index Symbol   x (angstrom)   y (angstrom)   z (angstrom)
      1      H     0.79772890    -1.27268458     0.72034757
      2      C    -0.96921703     0.03334993     0.97951968
      3      C     0.11340394    -0.66643078     0.12623539
      4      C     0.89389409     0.28166600    -0.74249830
      5      O     2.09969731     0.32216017    -0.87762956
      6      H    -1.41695385     0.81009125     0.34064793
      7      H    -0.36600944    -1.33806829    -0.60291129
      8      H     0.12972575     0.09001322     2.88709427
      9      C    -0.28308810     0.77674621     2.14175235
     10      H     0.55168680     1.37854966     1.76892484
     11      H    -0.96842820     1.45538436     2.65165746
     12      C    -2.92510656    -1.33728551     0.12775025
     13      C    -2.14214288    -0.89882152     1.38947682
     14      C    -3.12841572    -0.13686544     2.30773349
     15      C    -1.65949644    -2.16217811     2.13466298
     16      H    -1.10239094    -1.91183799     3.04196824
     17      H    -3.82957029    -1.88529810     0.40625906
     18      H    -2.33829010    -1.99794506    -0.51650932
     19      H    -3.23268348    -0.47283724    -0.47025938
     20      H    -4.03820017    -0.72538089     2.45459746
     21      H    -3.42366383     0.82455570     1.87355273
     22      H    -2.69991970     0.05535738     3.29383982
     23      H    -2.51499231    -2.77316075     2.43907364
     24      H    -1.01936649    -2.79011387     1.51025176
     25      H     0.26018448     1.00927695    -1.29546665
     26     Sn     4.49556388    -1.10477465    -1.38893966
     27     Cl     4.96904557     1.01914774    -0.52375125
     28     Cl     5.54218113    -1.07556302    -3.47849292
     29     Cl     2.60124692    -2.46661707    -1.89097847
     30     Cl     5.70576696    -2.52475148     0.02396663
 
Total System Charge             0.00000
 
 *** GOStep15 ***

 Energy gradients wrt nuclear displacements
 ==========================================

     Atom      Cartesian (a.u./angstrom)
                 X         Y         Z
 ----------------------------------------
     1 H    -0.001368 -0.000013 -0.001829
     2 C    -0.012198 -0.012298  0.001251
     3 C    -0.000352  0.002767  0.009737
     4 C     0.012593 -0.003533 -0.013678
     5 O     0.003661 -0.003145  0.003696
     6 H     0.001070  0.001185 -0.000512
     7 H    -0.001318 -0.000474 -0.001919
     8 H    -0.000206  0.000236  0.000299
     9 C    -0.000728  0.000583 -0.000333
    10 H     0.000442 -0.000973 -0.000583
    11 H    -0.000090 -0.000673 -0.000626
    12 C    -0.002517 -0.001355 -0.000774
    13 C     0.014513  0.010861 -0.003155
    14 C    -0.002502 -0.000664  0.002093
    15 C     0.000108 -0.001114 -0.001308
    16 H     0.000084  0.000553 -0.000345
    17 H    -0.000066  0.000716 -0.000549
    18 H     0.001024  0.000381  0.000828
    19 H     0.001138 -0.000311  0.000052
    20 H     0.000240  0.000537 -0.000591
    21 H     0.000657  0.000011  0.000327
    22 H     0.000703 -0.000796 -0.000682
    23 H     0.000309 -0.000039  0.000161
    24 H    -0.000295  0.000988  0.000540
    25 H     0.000403 -0.002576  0.004671
    26 Sn    0.000667  0.011667  0.004600
    27 Cl   -0.002598  0.005718  0.001284
    28 Cl    0.000807 -0.002662  0.000461
    29 Cl   -0.016316 -0.004145 -0.001295
    30 Cl    0.002134 -0.001432 -0.001822
 ----------------------------------------
 Mulliken charges used for AMS results%charges...

 dE(predicted):    -0.16616E-02, dE(actual):    -0.15806E-02, Trust radius:    1.000000, all in a.u.
 
----------------------------------------------------------------------
Geometry Convergence after Step  15       (Hartree/Angstrom,Angstrom)
----------------------------------------------------------------------
current energy                               -5.41134674 Hartree
energy change                      -0.00158058     0.00030000    F
constrained gradient max            0.01631673     0.00100000    F
constrained gradient rms            0.00436785     0.00066667    F
gradient max                        0.01631673
gradient rms                        0.00436785
cart. step max                      0.22357958     0.01000000    F
cart. step rms                      0.07493232     0.00666667    F
 
 
--------
Geometry
--------
Formula: C8H16Cl4OSn
Atoms
  Index Symbol   x (angstrom)   y (angstrom)   z (angstrom)
      1      H     0.74525452    -1.32775893     0.58693900
      2      C    -0.97294262     0.01748180     0.94052569
      3      C     0.05150469    -0.69998930     0.02614115
      4      C     0.81834092     0.25106790    -0.85228049
      5      O     2.02476564     0.33497582    -0.96072345
      6      H    -1.43689789     0.81009357     0.33422669
      7      H    -0.47835375    -1.34524996    -0.69010057
      8      H     0.21214456     0.02101236     2.79671682
      9      C    -0.21363291     0.72882847     2.07891005
     10      H     0.61954050     1.31394402     1.67737629
     11      H    -0.85620157     1.41945324     2.62771493
     12      C    -3.00974189    -1.30473685     0.17925962
     13      C    -2.15321453    -0.89619654     1.40237314
     14      C    -3.07338204    -0.11253614     2.36943448
     15      C    -1.66611235    -2.17656453     2.11643980
     16      H    -1.05064527    -1.94862645     2.99147637
     17      H    -3.90006414    -1.85205663     0.50206157
     18      H    -2.46973904    -1.95743344    -0.51252308
     19      H    -3.34698920    -0.42678099    -0.38271521
     20      H    -3.98741763    -0.68129477     2.56271259
     21      H    -3.36992818     0.85494483     1.94927401
     22      H    -2.59354906     0.07181812     3.33341522
     23      H    -2.52199762    -2.76180516     2.46718071
     24      H    -1.08263952    -2.82202889     1.45453938
     25      H     0.16888393     0.93641303    -1.44665011
     26     Sn     4.54729076    -1.06609638    -1.29641488
     27     Cl     4.87104134     1.05992645    -0.38974919
     28     Cl     5.76576071    -1.00679473    -3.28499130
     29     Cl     2.73948116    -2.47017219    -1.92353682
     30     Cl     5.72163067    -2.44815351     0.17484318
 
Total System Charge             0.00000
 
 *** GOStep16 ***

 Energy gradients wrt nuclear displacements
 ==========================================

     Atom      Cartesian (a.u./angstrom)
                 X         Y         Z
 ----------------------------------------
     1 H    -0.000891 -0.000173 -0.001345
     2 C    -0.008308 -0.008047 -0.000386
     3 C    -0.000363  0.001644  0.006922
     4 C     0.012188 -0.004238 -0.008129
     5 O     0.005484 -0.001455  0.003279
     6 H     0.000651  0.000890 -0.000273
     7 H    -0.000978  0.000064 -0.001712
     8 H    -0.000280  0.000091  0.000389
     9 C     0.000071  0.000758  0.000583
    10 H     0.000491 -0.000531 -0.000347
    11 H    -0.000067 -0.000197 -0.000255
    12 C    -0.002441 -0.001448 -0.000702
    13 C     0.009332  0.006942 -0.002065
    14 C    -0.001900 -0.000362  0.001611
    15 C     0.000137 -0.001620 -0.000374
    16 H     0.000263  0.000289 -0.000122
    17 H     0.000037  0.000487 -0.000283
    18 H     0.000561  0.000190  0.000289
    19 H     0.000652 -0.000028 -0.000259
    20 H     0.000127  0.000370 -0.000506
    21 H     0.000453  0.000266  0.000258
    22 H     0.000424 -0.000372 -0.000304
    23 H     0.000171  0.000055  0.000157
    24 H    -0.000104  0.000440  0.000378
    25 H    -0.001111 -0.000982  0.001806
    26 Sn   -0.002916  0.011812  0.004883
    27 Cl   -0.002099  0.003046  0.000233
    28 Cl    0.000741 -0.003234  0.002986
    29 Cl   -0.012040 -0.005020 -0.002562
    30 Cl    0.001715  0.000363 -0.004149
 ----------------------------------------
 Mulliken charges used for AMS results%charges...

 dE(predicted):    -0.25380E-02, dE(actual):    -0.16236E-02, Trust radius:    1.000000, all in a.u.
 
----------------------------------------------------------------------
Geometry Convergence after Step  16       (Hartree/Angstrom,Angstrom)
----------------------------------------------------------------------
current energy                               -5.41297036 Hartree
energy change                      -0.00162362     0.00030000    F
constrained gradient max            0.01218877     0.00100000    F
constrained gradient rms            0.00339628     0.00066667    F
gradient max                        0.01218877
gradient rms                        0.00339628
cart. step max                      0.19613031     0.01000000    F
cart. step rms                      0.07109638     0.00666667    F
 
 
--------
Geometry
--------
Formula: C8H16Cl4OSn
Atoms
  Index Symbol   x (angstrom)   y (angstrom)   z (angstrom)
      1      H     0.68762979    -1.38193721     0.46431787
      2      C    -0.97399727     0.00450630     0.90278051
      3      C    -0.01238765    -0.73467322    -0.06684981
      4      C     0.74403865     0.21490337    -0.95531460
      5      O     1.94929562     0.33081570    -1.04125653
      6      H    -1.45205813     0.81071441     0.32694661
      7      H    -0.59176145    -1.35547956    -0.76394615
      8      H     0.29680770    -0.04317097     2.70021262
      9      C    -0.14464010     0.68445733     2.01238823
     10      H     0.68188133     1.25738822     1.58115082
     11      H    -0.74431438     1.38227186     2.59987216
     12      C    -3.07647224    -1.27662355     0.22959851
     13      C    -2.15977647    -0.89194977     1.41540313
     14      C    -3.01875312    -0.08699303     2.41989706
     15      C    -1.66788540    -2.18411499     2.10507171
     16      H    -1.00415467    -1.97396894     2.94874552
     17      H    -3.94959545    -1.82889192     0.58976682
     18      H    -2.57731839    -1.91792593    -0.50251809
     19      H    -3.44232058    -0.38804257    -0.29733286
     20      H    -3.93084004    -0.64077731     2.66178340
     21      H    -3.32197252     0.88131663     2.00600441
     22      H    -2.49257333     0.09887336     3.35931909
     23      H    -2.52023340    -2.74796430     2.49737200
     24      H    -1.13473524    -2.84385094     1.41443339
     25      H     0.08668869     0.86910607    -1.58131345
     26     Sn     4.58440218    -1.03444434    -1.20836040
     27     Cl     4.75419514     1.07126419    -0.23390749
     28     Cl     5.95249367    -0.89076078    -3.08886099
     29     Cl     2.87636974    -2.46755863    -1.97703323
     30     Cl     5.70417755    -2.40080527     0.31350533
 
Total System Charge             0.00000
 
 *** GOStep17 ***

 Energy gradients wrt nuclear displacements
 ==========================================

     Atom      Cartesian (a.u./angstrom)
                 X         Y         Z
 ----------------------------------------
     1 H    -0.000514 -0.000181 -0.000632
     2 C    -0.003944 -0.002813 -0.002006
     3 C    -0.000289 -0.000161  0.003735
     4 C     0.012312 -0.005062 -0.003503
     5 O     0.005115 -0.000051  0.003616
     6 H     0.000070  0.000446  0.000005
     7 H    -0.000847  0.000437 -0.001491
     8 H    -0.000314 -0.000012  0.000385
     9 C     0.001180  0.000891  0.001384
    10 H     0.000536 -0.000098 -0.000069
    11 H     0.000113  0.000202  0.000029
    12 C    -0.001543 -0.001309 -0.000907
    13 C     0.003196  0.002557 -0.000529
    14 C    -0.001151  0.000214  0.001179
    15 C     0.000397 -0.001710  0.000344
    16 H     0.000416  0.000017  0.000019
    17 H     0.000221  0.000198 -0.000057
    18 H     0.000297  0.000057 -0.000316
    19 H     0.000143  0.000258 -0.000405
    20 H     0.000091  0.000195 -0.000357
    21 H     0.000192  0.000448  0.000192
    22 H     0.000169  0.000093  0.000101
    23 H     0.000045  0.000182  0.000103
    24 H     0.000137 -0.000099  0.000053
    25 H    -0.002237  0.000535 -0.000661
    26 Sn   -0.007027  0.010647  0.004405
    27 Cl   -0.001466  0.000264 -0.000747
    28 Cl    0.000296 -0.003439  0.004394
    29 Cl   -0.006813 -0.004663 -0.002875
    30 Cl    0.001217  0.001956 -0.005392
 ----------------------------------------
 Mulliken charges used for AMS results%charges...

 dE(predicted):    -0.23088E-02, dE(actual):    -0.14054E-02, Trust radius:    1.000000, all in a.u.
 
----------------------------------------------------------------------
Geometry Convergence after Step  17       (Hartree/Angstrom,Angstrom)
----------------------------------------------------------------------
current energy                               -5.41437572 Hartree
energy change                      -0.00140536     0.00030000    F
constrained gradient max            0.01230874     0.00100000    F
constrained gradient rms            0.00266846     0.00066667    F
gradient max                        0.01230874
gradient rms                        0.00266846
cart. step max                      0.20099605     0.01000000    F
cart. step rms                      0.07281258     0.00666667    F
 
 
--------
Geometry
--------
Formula: C8H16Cl4OSn
Atoms
  Index Symbol   x (angstrom)   y (angstrom)   z (angstrom)
      1      H     0.63479394    -1.43897599     0.34816602
      2      C    -0.97016710    -0.01529461     0.86397312
      3      C    -0.07186020    -0.77503501    -0.15388142
      4      C     0.67059855     0.16760524    -1.06010881
      5      O     1.87368788     0.31776828    -1.13020964
      6      H    -1.45502779     0.80577685     0.31610641
      7      H    -0.69770265    -1.37621467    -0.82555361
[...]
----------------------------------------------------------------------
current energy                               -5.42972402 Hartree
energy change                      -0.00000134     0.00030000    T
constrained gradient max            0.00242606     0.00100000    F
constrained gradient rms            0.00054998     0.00066667    T
gradient max                        0.00242606
gradient rms                        0.00054998
cart. step max                      0.07832407     0.01000000    F
cart. step rms                      0.02351504     0.00666667    F
 
 
--------
Geometry
--------
Formula: C8H16Cl4OSn
Atoms
  Index Symbol   x (angstrom)   y (angstrom)   z (angstrom)
      1      H     0.14006463    -1.56709357     0.22324923
      2      C    -1.32612090    -0.00843805     0.77659400
      3      C    -0.59506871    -0.91029166    -0.24946994
      4      C     0.09209224    -0.12755460    -1.34419331
      5      O     1.24363382    -0.26688139    -1.69565324
      6      H    -1.86565725     0.75418328     0.19540994
      7      H    -1.32090891    -1.54342556    -0.77651066
      8      H     0.30854270     0.05520917     2.24565091
      9      C    -0.28012469     0.73790935     1.62502035
     10      H     0.42702759     1.26829308     0.97979204
     11      H    -0.73475245     1.48421375     2.27897288
     12      C    -3.54542679    -1.26550196     0.64695532
     13      C    -2.44446435    -0.75037488     1.60132704
     14      C    -3.11439024     0.24577247     2.57540744
     15      C    -1.89042979    -1.94034018     2.41232518
     16      H    -1.12506201    -1.62846148     3.12857019
     17      H    -4.38003326    -1.68020515     1.22108273
     18      H    -3.19414498    -2.06037356    -0.01654298
     19      H    -3.94490966    -0.45791281     0.02345342
     20      H    -3.98040363    -0.22127971     3.05504125
     21      H    -3.47107675     1.14046562     2.05295861
     22      H    -2.43977360     0.56708995     3.37234417
     23      H    -2.69513345    -2.41358292     2.98467574
     24      H    -1.45560525    -2.71063765     1.76901469
     25      H    -0.56348033     0.62007526    -1.85939327
     26     Sn     6.44058265    -1.35617635    -1.28253013
     27     Cl     5.15711598    -1.99855391     0.53931415
     28     Cl     7.14866110     0.83502665    -0.99319740
     29     Cl     5.21393332    -1.53860060    -3.23752735
     30     Cl     8.29750318    -2.74686836    -1.42026542
 
Total System Charge             0.00000
 
 *** GOStep43 ***

 Energy gradients wrt nuclear displacements
 ==========================================

     Atom      Cartesian (a.u./angstrom)
                 X         Y         Z
 ----------------------------------------
     1 H    -0.000102 -0.000187 -0.000016
     2 C    -0.000961 -0.000328  0.000542
     3 C     0.000464 -0.000461  0.000330
     4 C     0.000081  0.000390 -0.000411
     5 O    -0.000743 -0.000006  0.000059
     6 H    -0.000033 -0.000051 -0.000179
     7 H    -0.000139  0.000262 -0.000017
     8 H     0.000084 -0.000013 -0.000054
     9 C     0.000008  0.000079  0.000063
    10 H    -0.000110  0.000029  0.000015
    11 H    -0.000072 -0.000074  0.000022
    12 C    -0.000030 -0.000029 -0.000129
    13 C     0.000785  0.000364 -0.000376
    14 C     0.000081  0.000200  0.000009
    15 C     0.000013 -0.000227  0.000035
    16 H    -0.000046  0.000038 -0.000007
    17 H    -0.000015  0.000034 -0.000025
    18 H     0.000047  0.000019 -0.000001
    19 H     0.000055  0.000002 -0.000014
    20 H     0.000007 -0.000003 -0.000056
    21 H     0.000010  0.000024 -0.000015
    22 H     0.000018 -0.000002 -0.000023
    23 H    -0.000027  0.000029 -0.000051
    24 H    -0.000028  0.000040  0.000085
    25 H     0.000327 -0.000164  0.000045
    26 Sn    0.000308  0.000493  0.000455
    27 Cl   -0.000146 -0.000062  0.000039
    28 Cl    0.000120  0.000352  0.000081
    29 Cl   -0.000328 -0.000119 -0.000302
    30 Cl    0.000372 -0.000629 -0.000105
 ----------------------------------------
 Mulliken charges used for AMS results%charges...

 dE(predicted):    -0.17431E-04, dE(actual):    -0.13903E-04, Trust radius:    1.000000, all in a.u.
 
----------------------------------------------------------------------
Geometry Convergence after Step  43       (Hartree/Angstrom,Angstrom)
----------------------------------------------------------------------
current energy                               -5.42973793 Hartree
energy change                      -0.00001390     0.00030000    T
constrained gradient max            0.00096112     0.00100000    T
constrained gradient rms            0.00024943     0.00066667    T
gradient max                        0.00096112
gradient rms                        0.00024943
cart. step max                      0.05824210     0.01000000    F
cart. step rms                      0.01220096     0.00666667    F
 
 
--------
Geometry
--------
Formula: C8H16Cl4OSn
Atoms
  Index Symbol   x (angstrom)   y (angstrom)   z (angstrom)
      1      H     0.14953665    -1.56236747     0.22720525
      2      C    -1.32120877    -0.00763006     0.77754818
      3      C    -0.58638084    -0.90767534    -0.24721627
      4      C     0.10142260    -0.12405388    -1.34065053
      5      O     1.25440018    -0.26009340    -1.68914982
      6      H    -1.86007640     0.75521307     0.19609940
      7      H    -1.30921300    -1.54331091    -0.77551416
      8      H     0.30589029     0.05557909     2.25469849
      9      C    -0.27830268     0.73820788     1.62975315
     10      H     0.43333173     1.26595915     0.98724490
     11      H    -0.73463808     1.48669463     2.28004930
     12      C    -3.54185931    -1.26354466     0.64142809
     13      C    -2.44165387    -0.75247775     1.59859638
     14      C    -3.11227899     0.23948543     2.57624474
     15      C    -1.88802621    -1.94558430     2.40487010
     16      H    -1.12180556    -1.63704708     3.12167657
     17      H    -4.37602628    -1.68235240     1.21328004
     18      H    -3.18993917    -2.05445931    -0.02646894
     19      H    -3.94240825    -0.45305451     0.02239015
     20      H    -3.97837103    -0.22973804     3.05369151
     21      H    -3.46913393     1.13611218     2.05724806
     22      H    -2.43820995     0.55789506     3.37482049
     23      H    -2.69257464    -2.42039108     2.97619849
     24      H    -1.45430387    -2.71390905     1.75839534
     25      H    -0.55512949     0.62088269    -1.85874011
     26     Sn     6.41722933    -1.35217872    -1.28033913
     27     Cl     5.13883587    -1.94031181     0.56303601
     28     Cl     7.15419565     0.83537937    -1.04129192
     29     Cl     5.18101792    -1.55997302    -3.22580107
     30     Cl     8.25787032    -2.76557155    -1.39742708
 
Total System Charge             0.00000
 
 *** GOStep44 ***

 Energy gradients wrt nuclear displacements
 ==========================================

     Atom      Cartesian (a.u./angstrom)
                 X         Y         Z
 ----------------------------------------
     1 H    -0.000092 -0.000154 -0.000048
     2 C    -0.000288 -0.000093  0.000376
     3 C     0.000330 -0.000139  0.000271
     4 C    -0.000059  0.000165  0.000039
     5 O    -0.000335 -0.000021 -0.000184
     6 H    -0.000040 -0.000073 -0.000129
     7 H    -0.000102  0.000154 -0.000048
     8 H     0.000079 -0.000028 -0.000037
     9 C    -0.000125 -0.000045 -0.000093
    10 H    -0.000056  0.000026  0.000007
    11 H    -0.000013 -0.000054  0.000011
    12 C     0.000016  0.000003 -0.000021
    13 C     0.000253  0.000145 -0.000174
    14 C     0.000047  0.000075 -0.000018
    15 C     0.000008 -0.000002 -0.000064
    16 H    -0.000020  0.000022  0.000001
    17 H    -0.000039  0.000010 -0.000025
    18 H     0.000004 -0.000007  0.000015
    19 H     0.000020 -0.000010 -0.000008
    20 H    -0.000018  0.000003 -0.000012
    21 H    -0.000002  0.000004 -0.000011
    22 H    -0.000019 -0.000011 -0.000007
    23 H    -0.000032  0.000014 -0.000031
    24 H    -0.000008  0.000012  0.000032
    25 H     0.000263 -0.000122 -0.000052
    26 Sn    0.000010  0.000372  0.000219
    27 Cl   -0.000040  0.000006  0.000062
    28 Cl    0.000143  0.000170  0.000051
    29 Cl   -0.000086 -0.000016 -0.000065
    30 Cl    0.000201 -0.000403 -0.000055
 ----------------------------------------
 Mulliken charges used for AMS results%charges...

 dE(predicted):    -0.52894E-05, dE(actual):    -0.31443E-05, Trust radius:    1.000000, all in a.u.
 
----------------------------------------------------------------------
Geometry Convergence after Step  44       (Hartree/Angstrom,Angstrom)
----------------------------------------------------------------------
current energy                               -5.42974107 Hartree
energy change                      -0.00000314     0.00030000    T
constrained gradient max            0.00040314     0.00100000    T
constrained gradient rms            0.00012588     0.00066667    T
gradient max                        0.00040314
gradient rms                        0.00012588
cart. step max                      0.01805916     0.01000000    F
cart. step rms                      0.00814272     0.00666667    F
 
 
--------
Geometry
--------
Formula: C8H16Cl4OSn
Atoms
  Index Symbol   x (angstrom)   y (angstrom)   z (angstrom)
      1      H     0.15622788    -1.54852052     0.23030464
      2      C    -1.32316998    -0.00176213     0.77683546
      3      C    -0.58227089    -0.89849424    -0.24649908
      4      C     0.10560100    -0.11268538    -1.33823743
      5      O     1.25851738    -0.24951874    -1.68665125
      6      H    -1.86641707     0.75756306     0.19497911
      7      H    -1.30016171    -1.53883735    -0.77575650
      8      H     0.29941497     0.07218753     2.25837428
      9      C    -0.28541258     0.75070941     1.62965956
     10      H     0.42613566     1.27925313     0.98767144
     11      H    -0.74638160     1.49945681     2.27642737
     12      C    -3.53597930    -1.27381782     0.64093266
     13      C    -2.43990893    -0.75408415     1.59807986
     14      C    -3.11840437     0.23337845     2.57472142
     15      C    -1.87780035    -1.94257901     2.40525751
     16      H    -1.11346875    -1.62833715     3.12157538
     17      H    -4.36647136    -1.69954692     1.21303637
     18      H    -3.17796480    -2.06175610    -0.02722349
     19      H    -3.94342108    -0.46649097     0.02223517
     20      H    -3.98023038    -0.24252682     3.05331130
     21      H    -3.48317372     1.12618270     2.05464621
     22      H    -2.44673041     0.55869424     3.37253704
     23      H    -2.67876888    -2.42263764     2.97725209
     24      H    -1.43899285    -2.70832447     1.75908572
     25      H    -0.55090803     0.63441393    -1.85376430
     26     Sn     6.40913441    -1.36522276    -1.28165223
     27     Cl     5.12905935    -1.95837097     0.55802008
     28     Cl     7.15347009     0.81798917    -1.03204724
     29     Cl     5.17533041    -1.55828255    -3.22962667
     30     Cl     8.24533611    -2.78234854    -1.40160889
 
Total System Charge             0.00000
 
 *** GOStep45 ***

 Energy gradients wrt nuclear displacements
 ==========================================

     Atom      Cartesian (a.u./angstrom)
                 X         Y         Z
 ----------------------------------------
     1 H    -0.000025  0.000036  0.000002
     2 C     0.000226  0.000318  0.000133
     3 C     0.000075 -0.000241 -0.000211
     4 C     0.000191  0.000105 -0.000098
     5 O    -0.000166 -0.000259  0.000025
     6 H    -0.000003 -0.000053 -0.000027
     7 H    -0.000040  0.000064  0.000003
     8 H    -0.000001 -0.000014 -0.000034
     9 C     0.000022 -0.000011 -0.000069
    10 H    -0.000019  0.000021  0.000011
    11 H     0.000036 -0.000027 -0.000001
    12 C    -0.000011 -0.000024  0.000028
    13 C    -0.000217 -0.000091  0.000023
    14 C    -0.000068 -0.000029 -0.000001
    15 C     0.000022  0.000107 -0.000017
    16 H    -0.000009  0.000007 -0.000007
    17 H    -0.000020 -0.000007 -0.000014
    18 H    -0.000020 -0.000007  0.000020
    19 H    -0.000016 -0.000001 -0.000004
    20 H    -0.000026  0.000007  0.000017
    21 H    -0.000011 -0.000017 -0.000015
    22 H    -0.000049 -0.000014 -0.000008
    23 H    -0.000021 -0.000003 -0.000009
    24 H     0.000009 -0.000001 -0.000040
    25 H    -0.000079  0.000028  0.000075
    26 Sn    0.000063  0.000152  0.000268
    27 Cl    0.000252  0.000087 -0.000201
    28 Cl    0.000077 -0.000193 -0.000003
    29 Cl    0.000057  0.000065  0.000103
    30 Cl   -0.000229 -0.000005  0.000050
 ----------------------------------------
 Mulliken charges used for AMS results%charges...

 dE(predicted):    -0.41040E-05, dE(actual):    -0.32404E-05, Trust radius:    1.000000, all in a.u.
 
----------------------------------------------------------------------
Geometry Convergence after Step  45       (Hartree/Angstrom,Angstrom)
----------------------------------------------------------------------
current energy                               -5.42974431 Hartree
energy change                      -0.00000324     0.00030000    T
constrained gradient max            0.00031744     0.00100000    T
constrained gradient rms            0.00009805     0.00066667    T
gradient max                        0.00031744
gradient rms                        0.00009805
cart. step max                      0.02600670     0.01000000    F
cart. step rms                      0.00587610     0.00666667    T
 
 
--------
Geometry
--------
Formula: C8H16Cl4OSn
Atoms
  Index Symbol   x (angstrom)   y (angstrom)   z (angstrom)
      1      H     0.16427212    -1.54012216     0.23593641
      2      C    -1.32253095     0.00069681     0.77735058
      3      C    -0.57712239    -0.89496331    -0.24301804
      4      C     0.10777245    -0.10920710    -1.33646257
      5      O     1.26045742    -0.24434257    -1.68670085
      6      H    -1.86746001     0.75737319     0.19365382
      7      H    -1.29091621    -1.54085863    -0.77128820
      8      H     0.29378881     0.08301011     2.26521469
      9      C    -0.28902218     0.75802509     1.63088685
     10      H     0.42486174     1.28416151     0.98944899
     11      H    -0.75322643     1.50941416     2.27229881
     12      C    -3.53119961    -1.27807236     0.63951410
     13      C    -2.43826859    -0.75451739     1.59803316
     14      C    -3.12088755     0.23171013     2.57289539
     15      C    -1.87392868    -1.94082338     2.40674177
     16      H    -1.11104282    -1.62418747     3.12353679
     17      H    -4.36170384    -1.70511892     1.21061813
     18      H    -3.16994531    -2.06600080    -0.02693734
     19      H    -3.93950498    -0.47259841     0.01896307
     20      H    -3.98187646    -0.24628746     3.05090305
     21      H    -3.48767396     1.12295186     2.05155281
     22      H    -2.45107105     0.55979298     3.37115189
     23      H    -2.67408145    -2.42258674     2.97847803
     24      H    -1.43259556    -2.70596438     1.76155558
     25      H    -0.55082343     0.63621512    -1.85193247
     26     Sn     6.40119861    -1.37251490    -1.28447251
     27     Cl     5.11747846    -1.98437767     0.54639088
     28     Cl     7.13661844     0.81131054    -1.01638670
     29     Cl     5.17749947    -1.55516130    -3.23949866
     30     Cl     8.24312414    -2.78127234    -1.40655191
 
Total System Charge             0.00000
 
 *** GOStep46 ***

 Energy gradients wrt nuclear displacements
 ==========================================

     Atom      Cartesian (a.u./angstrom)
                 X         Y         Z
 ----------------------------------------
     1 H    -0.000032  0.000069 -0.000003
     2 C     0.000568  0.000420 -0.000139
     3 C    -0.000155  0.000065 -0.000155
     4 C    -0.000078 -0.000086  0.000239
     5 O     0.000122 -0.000252 -0.000137
     6 H     0.000022 -0.000027  0.000000
     7 H    -0.000014 -0.000069 -0.000075
     8 H    -0.000023  0.000002 -0.000024
     9 C    -0.000093 -0.000045 -0.000099
    10 H     0.000025  0.000010  0.000001
    11 H     0.000069  0.000003  0.000002
    12 C     0.000063  0.000021  0.000042
    13 C    -0.000343 -0.000292  0.000202
    14 C    -0.000068 -0.000077 -0.000015
    15 C    -0.000044  0.000159 -0.000016
    16 H    -0.000020 -0.000012 -0.000010
    17 H    -0.000010  0.000014 -0.000002
    18 H    -0.000006 -0.000023  0.000017
    19 H    -0.000021  0.000002 -0.000025
    20 H    -0.000027  0.000011  0.000010
    21 H    -0.000006 -0.000014 -0.000021
    22 H    -0.000049 -0.000014 -0.000011
    23 H    -0.000003 -0.000034  0.000024
    24 H    -0.000001 -0.000003 -0.000053
    25 H    -0.000120  0.000097  0.000041
    26 Sn    0.000077  0.000030  0.000166
    27 Cl    0.000338  0.000084 -0.000198
    28 Cl    0.000067 -0.000311 -0.000042
    29 Cl    0.000180  0.000111  0.000193
    30 Cl   -0.000420  0.000161  0.000087
 ----------------------------------------
 Mulliken charges used for AMS results%charges...

 dE(predicted):    -0.39946E-05, dE(actual):    -0.57525E-05, Trust radius:    1.000000, all in a.u.
 
----------------------------------------------------------------------
Geometry Convergence after Step  46       (Hartree/Angstrom,Angstrom)
----------------------------------------------------------------------
current energy                               -5.42975006 Hartree
energy change                      -0.00000575     0.00030000    T
constrained gradient max            0.00056795     0.00100000    T
constrained gradient rms            0.00013705     0.00066667    T
gradient max                        0.00056795
gradient rms                        0.00013705
cart. step max                      0.17566366     0.01000000    F
cart. step rms                      0.03830121     0.00666667    F
 
 
--------
Geometry
--------
Formula: C8H16Cl4OSn
Atoms
  Index Symbol   x (angstrom)   y (angstrom)   z (angstrom)
      1      H     0.21361778    -1.49471887     0.26555270
      2      C    -1.31534607     0.01147460     0.77816647
      3      C    -0.54653953    -0.88038075    -0.22477873
      4      C     0.11489341    -0.09764266    -1.33396794
      5      O     1.26642366    -0.21726621    -1.69471058
      6      H    -1.86852746     0.75336565     0.18347888
      7      H    -1.23802725    -1.55992442    -0.74129364
      8      H     0.26787486     0.14000783     2.29794528
      9      C    -0.30332710     0.79524273     1.63302635
     10      H     0.42306869     1.30671591     0.99357932
     11      H    -0.78389846     1.56169045     2.24404580
     12      C    -3.50530035    -1.29757014     0.63528313
     13      C    -2.42566269    -0.75492037     1.59783017
     14      C    -3.12607402     0.22687566     2.56384778
     15      C    -1.85022475    -1.92976880     2.41475904
     16      H    -1.09393408    -1.60081359     3.13299237
     17      H    -4.33640557    -1.72768784     1.20318863
     18      H    -3.13027321    -2.08784614    -0.02083483
     19      H    -3.91625794    -0.50208515     0.00369656
     20      H    -3.98338392    -0.25944401     3.03999969
     21      H    -3.50135982     1.11079845     2.03610155
     22      H    -2.46400206     0.56760870     3.36332492
     23      H    -2.64631107    -2.41869144     2.98620149
     24      H    -1.39722157    -2.69271824     1.77502349
     25      H    -0.56065981     0.63025520    -1.85307350
     26     Sn     6.34588722    -1.40949912    -1.29425019
     27     Cl     5.02244936    -2.16004133     0.45437208
     28     Cl     7.00052479     0.77750370    -0.88510744
     29     Cl     5.20410450    -1.52474633    -3.30161288
     30     Cl     8.23608264    -2.75008928    -1.42091040
 
Total System Charge             0.00000
 
 *** GOStep47 ***
