

 Parallel Execution: Process Information
 ==============================================================================
 Rank   Node Name                              NodeID   MyNodeRank  NodeMaster
    0   node115                                   0          0          0
    1   node115                                   0          1         -1
    2   node115                                   0          2         -1
    3   node115                                   0          3         -1
 ==============================================================================


May use up to 122928MB of RAM as shared memory on node 0

 *******************************************************************************
 *                                                                             *
 *  --------------------------------                                           *
 *   Amsterdam Modeling Suite (AMS)              2021.102                      *
 *  --------------------------------                                           *
 *                                               r95042 2021-06-07             *
 *                                                                             *
 *                                                                             *
 *                              =================                              *
 *                              |               |                              *
 *                              |     A M S     |                              *
 *                              |               |                              *
 *                              =================                              *
 *                                                                             *
 *                                                                             *
 *   Online information and documentation:  https://www.scm.com/support/       *
 *   E-mail:  support@scm.com   info@scm.com                                   *
 *                                                                             *
 *   Scientific publications using AMS results must be properly referenced     *
 *   See the User Manuals (or the web site) for recommended citations          *
 *   The terms and conditions of the End User License Agreement apply to       *
 *   the use of AMS, https://www.scm.com/license-terms/                        *
 *                                                                             *
 **********************  x86_64_linux_intel / intelmpi  ************************
 
 Licensed to: VU/FEW (+ SARA) / ALGEMEEN / Amsterdam / THE NETHERLANDS
 SCM User ID: u7668
  
 AMS 2021.102  RunTime: Jan23-2022 00:07:35  ShM Nodes: 1  Procs: 4

 AMS jobname: 12.achiral_catalyst.H_H_I2.TS
 AMS jobid  : 1507540704

 Start   directory: /scistor/tc/yhk800/MasterProject/calculations/achiral_catalyst_H_H_I2/12.achiral_catalyst.H_H_I2.TS/
 Results directory: /scistor/tc/yhk800/MasterProject/calculations/achiral_catalyst_H_H_I2/12.achiral_catalyst.H_H_I2.TS/
 Scratch directory: /scratch/3976/amstmp_12.achiral_catalyst.H_H_I2.TS_kid0.1507540704/


 Communication costs MPI_COMM_WORLD:      0.929 usec per message,   0.0062 usec per 8-byte item
 Communication costs for intra-node:      0.944 usec per message,   0.0098 usec per 8-byte item

 RNG seed: -1593943316 787117245 -500080513 -900754546 417906687 -1617589395 -790211762 1625997474



                      ************************************************************************
                      *  ADF 2021.102  RunTime: Jan23-2022 00:07:36  ShM Nodes: 1  Procs: 4  *
                      ************************************************************************
  
       *****************************
       *  TRANSITION STATE SEARCH  *
       *****************************

Optimization Method                    Quasi Newton
Optimization Coordinates               Delocalized Coordinates
Optimize lattice                       F
 
 ------------------------------------------------------
 Convergence criteria (Hartree,Angstrom)
 ------------------------------------------------------
 Maximum gradient               0.001000000000
 Maximum rms gradient           0.000666666667
 Maximum step allowed           0.010000000000
 Maximum rms step allowed       0.006666666667
 Maximum energy change allowe   0.000140000000
 Maximum stress energy allowe   0.000500000000
 
Initial model Hessian                  Automatic Hessian
 
------------------------------------
Quasi-Newton Optimizer Parameters
------------------------------------
Hessian Update Method                  Bofill
Maximum number of steps                  250
First GDIIS cycle                          0
Maximum GDIIS vectors                      0
Trust radius (bohr)                        0.200000
Trust radius varies                        F
Constraints converged at all steps         T
Use projector                              T
 
 Rigid motions settings for: old optimizer
 Atomic rotations (x,y,z):     T T T
 Atomic translations (x,y,z):  T T T
 Tolerance:                   1.000000000000000E-006
 
           1  TSRC entries:
    i   type      a1    a2    a3    a4    coef
    1 Distance     2    10               -1.000
 
--------
Geometry
--------
Formula: C4H7I2O
Atoms
  Index Symbol   x (angstrom)   y (angstrom)   z (angstrom)
      1      H     0.19369716    -1.85361092    -0.24516176
      2      C    -0.92057816    -0.12292898     0.28183759
      3      C     0.21368396    -0.77846351    -0.06958517
      4      C     1.52168394    -0.13059856    -0.22805405
      5      O     1.77804810     1.04912696    -0.01680607
      6      H    -0.93117356     0.95749943     0.37346659
      7      H    -1.16677948    -1.14795174     3.01281369
      8      H    -2.10496465     0.45730942     2.86041604
      9      H    -0.24714630     0.47546451     3.02589233
     10      C    -1.16197426    -0.07675120     2.85297480
     11      H    -1.86354143    -0.62823164     0.30157320
     12      H     2.30109647    -0.78460704    -0.55924738
     13      I     2.49853305     4.24557076     0.37517415
     14      I     3.10308543     6.92767769     0.70408119
 
Total System Charge             0.00000
 
 
----------------
ADF Engine Input
----------------
 
 NumericalQuality VeryGood
 SCF
 Converge 1.0e-6
 Iterations 99
 End
 SYMMETRY NOSYM
 SpinPolarization 1.0
 Unrestricted Yes
 XC
 GGA OLYP
 End
 basis
 core None
 type TZ2P
 End
 

 Title: *** (NO TITLE) ***

Bad geometry: could not add a dihedral for atom   14
 Using automatic Hessian for delocalized coordinates.
 *** GOStep1 ***

 Energy gradients wrt nuclear displacements
 ==========================================

     Atom      Cartesian (a.u./angstrom)
                 X         Y         Z
 ----------------------------------------
     1 H     0.000219  0.000297 -0.000067
     2 C    -0.015894 -0.007626  0.001469
     3 C     0.001927 -0.002798 -0.001505
     4 C     0.031884 -0.026206 -0.013606
     5 O     0.004635 -0.003350 -0.001995
     6 H    -0.001500 -0.001392  0.000449
     7 H    -0.000050 -0.000061  0.000044
     8 H     0.000081  0.000060 -0.000076
     9 H    -0.000318 -0.000055  0.000124
    10 C    -0.000011 -0.000040 -0.001270
    11 H     0.017330  0.009212 -0.000147
    12 H    -0.038040  0.032412  0.016585
    13 I    -0.005695 -0.023838 -0.002830
    14 I     0.005433  0.023385  0.002824
 ----------------------------------------
 Mulliken charges used for AMS results%charges...
           Primitive Internal Coordinates (atoms in internal order)
-------------------------------------------------------------------------------
    index    type      i       j       k       l   value(A,deg)     TSRC Vect
-------------------------------------------------------------------------------
       1     bnd       1       3       0       0     1.08957265     0.00000000
       2     bnd       2       6       0       0     1.08435865     0.02102510
       3     bnd       2       3       0       0     1.35638270     0.08001071
       4     bnd       3       4       0       0     1.46823204     0.00000000
       5     bnd       4      12       0       0     1.07000000    -0.00000000
       6     bnd       4       5       0       0     1.22560214     0.00000000
       7     bnd       8      10       0       0     1.08374674    -0.00000000
       8     bnd       7      10       0       0     1.08307071     0.00000000
       9     bnd       9      10       0       0     1.08247534    -0.00000000
      10     bnd       2      11       0       0     1.07000000     0.02247028
      11     bnd      13      14       0       0     2.76900000     0.00000000
      12     bnd       5      13       0       0     3.30000000     0.00000000
      13     bnd       2      10       0       0     2.58285714    -0.24619945
      14     bnd       3      10       0       0     3.30547916    -0.14873406
      15     bnd       6      10       0       0     2.69646144    -0.15659756
      16     bnd      10      11       0       0     2.70295714    -0.15979841
      17     ang       6       2       3       0   120.77103538    -0.01459011
      18     ang       6       2      11       0   117.41061259     0.01545366
      19     ang       6       2      10       0    84.09702452     0.03209543
      20     ang       3       2      11       0   120.89733866    -0.01469613
      21     ang       3       2      10       0   110.16403203     0.01281043
      22     ang      11       2      10       0    84.70507552     0.03095457
      23     ang       1       3       2       0   120.21909900     0.00319835
      24     ang       1       3       4       0   115.74474309    -0.01058062
      25     ang       1       3      10       0   110.14017713     0.00942733
      26     ang       2       3       4       0   124.03410402     0.00728490
      27     ang       2       3      10       0    47.18020735    -0.03381496
      28     ang       4       3      10       0   111.87064539     0.01682352
      29     ang       3       4      12       0   114.37019830    -0.00000000
      30     ang       3       4       5       0   126.33327012     0.00000000
      31     ang      12       4       5       0   119.29637410    -0.00000000
      32     anX       4       5      13       0   176.83918609     0.00000000
      33     ang       2       6      10       0    72.32423502    -0.05143483
      34     ang       8      10       7       0   118.84988012     0.00015129
      35     ang       8      10       9       0   118.87311123     0.00014986
      36     ang       8      10       2       0    95.56458342    -0.00026194
      37     ang       8      10       3       0   118.21664669     0.02073914
      38     ang       8      10       6       0    83.78709033    -0.00889556
      39     ang       8      10      11       0    83.17600150    -0.00952589
      40     ang       7      10       9       0   118.99448321    -0.00046374
      41     ang       7      10       2       0    97.44889075     0.00030813
      42     ang       7      10       3       0    85.54757082    -0.01074809
      43     ang       7      10       6       0   121.02686159     0.01963721
      44     ang       7      10      11       0    86.35126158    -0.00992055
      45     ang       9      10       2       0    95.11483796     0.00040910
      46     ang       9      10       3       0    84.13492797    -0.00975468
      47     ang       9      10       6       0    83.04344314    -0.01018689
      48     ang       9      10      11       0   118.30898943     0.01985749
      49     ang       3      10       6       0    39.89548576     0.03374256
      50     ang       3      10      11       0    39.65746300     0.03387388
      51     ang       6      10      11       0    39.86924843     0.03365033
      52     ang       2      11      10       0    72.08048476    -0.05036934
      53     lai      14      13       4      12   180.35062525    -0.00000000
      54     anZ       4       5      14       0   179.55792619    -0.00000000
      55     lao      14      13       4      12    90.77279431     0.00000000
      56     dih       3       2       6      10   250.01560997    -0.03254599
      57     dih      11       2       6      10    80.90190766     0.04983658
      58     dih       6       2       3       1   185.43025046     0.03308365
      59     dih       6       2       3       4     5.97435318     0.04603759
      60     dih       6       2       3      10    95.22935729     0.04166255
      61     dih      11       2       3       1    -5.83693566    -0.04890702
      62     dih      11       2       3       4   174.70716706    -0.03595308
      63     dih      11       2       3      10   263.96217117    -0.04032811
      64     dih      10       2       3       1    90.20089317    -0.00857890
      65     dih      10       2       3       4   -89.25500411     0.00437504
      66     dih       1       3       4      12     3.58206089    -0.00235122
      67     dih       1       3       4       5   183.72850675    -0.00235122
      68     dih       2       3       4      12   183.06008625    -0.01471485
      69     dih       2       3       4       5     3.20653211    -0.01471485
      70     dih      10       3       4      12   130.84520156     0.01706607
      71     dih      10       3       4       5   -49.00835258     0.01706607
      72     dih       6       2      11      10   -80.53711805    -0.05057963
      73     dih       3       2      11      10   110.36368944     0.03189482
      74     dih       6       2      10       8    60.32627910     0.00255633
      75     dih       6       2      10       7   180.43650753     0.00271523
      76     dih       6       2      10       9   -59.39742086     0.00237866
      77     dih       6       2      10       3   239.33945908     0.00262458
      78     dih       6       2      10      11   118.31924217     0.00538532
      79     dih       3       2      10       8   180.98682002    -0.00006825
      80     dih       3       2      10       7   -58.90295155     0.00009065
      81     dih       3       2      10       9    61.26312006    -0.00024592
      82     dih       3       2      10       6   120.66054092    -0.00262458
      83     dih       3       2      10      11   238.97978309     0.00276074
      84     dih      11       2      10       8   -57.99296306    -0.00282899
      85     dih      11       2      10       7    62.11726537    -0.00267009
      86     dih      11       2      10       9   182.28333697    -0.00300666
      87     dih      11       2      10       3   121.02021691    -0.00276074
      88     dih      11       2      10       6   241.68075783    -0.00538532
      89     dih       1       3      10       8   248.09637082     0.00396379
      90     dih       1       3      10       7     8.59151161     0.00261831
      91     dih       1       3      10       9   128.37671670     0.00534694
      92     dih       1       3      10       2   246.98173076     0.00382388
      93     dih       1       3      10       6   214.53773955     0.00032452
      94     dih       1       3      10      11   -81.05971305     0.00760680
      95     dih       2       3      10       8     1.11464006     0.00013992
      96     dih       2       3      10       7   121.60978085    -0.00120556
      97     dih       2       3      10       9   241.39498594     0.00152307
      98     dih       2       3      10       6   -32.44399121    -0.00349936
      99     dih       2       3      10      11    31.95855619     0.00378293
     100     dih       4       3      10       8   117.87482254    -0.00338219
     101     dih       4       3      10       7   238.36996333    -0.00472767
     102     dih       4       3      10       9    -1.84483158    -0.00199904
     103     dih       4       3      10       2   116.76018248    -0.00352211
     104     dih       4       3      10       6    84.31619127    -0.00702147
     105     dih       4       3      10      11   148.71873867     0.00026082
     106     dih       2       6      10       8   240.44392034     0.00432131
     107     dih       2       6      10       7     0.50509070     0.00324563
     108     dih       2       6      10       9   120.27112633     0.00034359
     109     dih       2       6      10       3    31.10480653     0.00694813
     110     dih       2       6      10      11   -32.77264068    -0.00133600
     111     dih       8      10      11       2   121.78740409    -0.00473388
     112     dih       7      10      11       2   241.42927245    -0.00150650
     113     dih       9      10      11       2     2.58337770    -0.00292130
     114     dih       3      10      11       2   -31.14778288    -0.00672019
     115     dih       6      10      11       2    33.32040349     0.00073604
Hessian eigenvector     1(     0.005) has overlap with TSRC:    0.19027E-03
Hessian eigenvector     2(     0.009) has overlap with TSRC:    0.21554E-01
Hessian eigenvector     3(     0.010) has overlap with TSRC:    0.20206E-01
Hessian eigenvector     4(     0.010) has overlap with TSRC:    0.23594E-01
Hessian eigenvector     5(     0.011) has overlap with TSRC:    0.22591E-01
Hessian eigenvector     6(     0.013) has overlap with TSRC:    0.22966E+00
Hessian eigenvector     7(     0.031) has overlap with TSRC:    0.65818E-03
Hessian eigenvector     8(     0.039) has overlap with TSRC:    0.13285E+00
Hessian eigenvector     9(     0.047) has overlap with TSRC:    0.75455E-03
Hessian eigenvector    10(     0.054) has overlap with TSRC:    0.71980E-02
Hessian eigenvector    11(     0.059) has overlap with TSRC:    0.58488E-02
Hessian eigenvector    12(     0.060) has overlap with TSRC:    0.48879E-04
Hessian eigenvector    13(     0.060) has overlap with TSRC:    0.50567E-11
Hessian eigenvector    14(     0.060) has overlap with TSRC:    0.29259E-05
Hessian eigenvector    15(     0.061) has overlap with TSRC:    0.11240E-01
Hessian eigenvector    16(     0.068) has overlap with TSRC:    0.84192E-02
Hessian eigenvector    17(     0.070) has overlap with TSRC:    0.49404E-02
Hessian eigenvector    18(     0.076) has overlap with TSRC:    0.98805E-01
Hessian eigenvector    19(     0.087) has overlap with TSRC:    0.74751E-01
Hessian eigenvector    20(     0.093) has overlap with TSRC:    0.27754E+00
Hessian eigenvector    21(     0.100) has overlap with TSRC:    0.57121E-04
Hessian eigenvector    22(     0.111) has overlap with TSRC:    0.54877E-01
Hessian eigenvector    23(     0.208) has overlap with TSRC:    0.46618E-10
Hessian eigenvector    24(     0.225) has overlap with TSRC:    0.22107E-08
Hessian eigenvector    25(     0.248) has overlap with TSRC:    0.11296E-08
Hessian eigenvector    26(     0.354) has overlap with TSRC:    0.79603E-12
Hessian eigenvector    27(     0.395) has overlap with TSRC:    0.94853E-03
Hessian eigenvector    28(     0.402) has overlap with TSRC:    0.66095E-03
Hessian eigenvector    29(     0.440) has overlap with TSRC:    0.77823E-01
Hessian eigenvector    30(     0.500) has overlap with TSRC:    0.10565E-11
Hessian eigenvector    31(     0.503) has overlap with TSRC:    0.75043E-11
Hessian eigenvector    32(     0.503) has overlap with TSRC:    0.17845E-10
Hessian eigenvector    33(     0.503) has overlap with TSRC:    0.24441E-10
Hessian eigenvector    34(     0.509) has overlap with TSRC:    0.38806E-10
Hessian eigenvector    35(     0.524) has overlap with TSRC:    0.15763E-09
Hessian eigenvector    36(     0.600) has overlap with TSRC:    0.62167E-10
Hessian eigenvector    20 has the largest overlap with TSRC:  0.27754
           Primitive Internal Coordinates (atoms in internal order)
-------------------------------------------------------------------------------
    index    type      i       j       k       l   value(A,deg)     Max Ovl Vect
-------------------------------------------------------------------------------
       1     bnd       1       3       0       0     1.08957265    -0.00000000
       2     bnd       2       6       0       0     1.08435865    -0.01026214
       3     bnd       2       3       0       0     1.35638270    -0.05473341
       4     bnd       3       4       0       0     1.46823204     0.00000000
       5     bnd       4      12       0       0     1.07000000    -0.00000000
       6     bnd       4       5       0       0     1.22560214     0.00000000
       7     bnd       8      10       0       0     1.08374674     0.00000000
       8     bnd       7      10       0       0     1.08307071     0.00000000
       9     bnd       9      10       0       0     1.08247534    -0.00000000
      10     bnd       2      11       0       0     1.07000000    -0.00538665
      11     bnd      13      14       0       0     2.76900000     0.00000000
      12     bnd       5      13       0       0     3.30000000     0.00000000
      13     bnd       2      10       0       0     2.58285714     0.39249906
      14     bnd       3      10       0       0     3.30547916     0.58423653
      15     bnd       6      10       0       0     2.69646144     0.35608289
      16     bnd      10      11       0       0     2.70295714     0.25060871
      17     ang       6       2       3       0   120.77103538    -0.02917402
      18     ang       6       2      11       0   117.41061259    -0.00472915
      19     ang       6       2      10       0    84.09702452    -0.00027198
      20     ang       3       2      11       0   120.89733866     0.01743544
      21     ang       3       2      10       0   110.16403203     0.13787986
      22     ang      11       2      10       0    84.70507552    -0.05637176
      23     ang       1       3       2       0   120.21909900    -0.14927536
      24     ang       1       3       4       0   115.74474309     0.19245114
      25     ang       1       3      10       0   110.14017713    -0.12636081
      26     ang       2       3       4       0   124.03410402    -0.04401901
      27     ang       2       3      10       0    47.18020735    -0.06879303
      28     ang       4       3      10       0   111.87064539    -0.01020668
      29     ang       3       4      12       0   114.37019830     0.00000016
      30     ang       3       4       5       0   126.33327012     0.00000014
      31     ang      12       4       5       0   119.29637410     0.00000013
      32     anX       4       5      13       0   176.83918609    -0.00008034
      33     ang       2       6      10       0    72.32423502     0.03296929
      34     ang       8      10       7       0   118.84988012    -0.00464430
      35     ang       8      10       9       0   118.87311123    -0.00102970
      36     ang       8      10       2       0    95.56458342     0.00591814
      37     ang       8      10       3       0   118.21664669    -0.06306420
      38     ang       8      10       6       0    83.78709033     0.02363689
      39     ang       8      10      11       0    83.17600150     0.01811230
      40     ang       7      10       9       0   118.99448321     0.00722859
      41     ang       7      10       2       0    97.44889075    -0.00449852
      42     ang       7      10       3       0    85.54757082     0.03741290
      43     ang       7      10       6       0   121.02686159    -0.03719898
      44     ang       7      10      11       0    86.35126158     0.00628731
      45     ang       9      10       2       0    95.11483796    -0.00574320
      46     ang       9      10       3       0    84.13492797     0.02389505
      47     ang       9      10       6       0    83.04344314     0.00878505
      48     ang       9      10      11       0   118.30898943    -0.03018002
      49     ang       3      10       6       0    39.89548576    -0.08999146
      50     ang       3      10      11       0    39.65746300    -0.07682931
      51     ang       6      10      11       0    39.86924843    -0.04689379
      52     ang       2      11      10       0    72.08048476     0.08079836
      53     lai      14      13       4      12   180.35062525     0.00000001
      54     anZ       4       5      14       0   179.55792619    -0.00005059
      55     lao      14      13       4      12    90.77279431    -0.00000001
      56     dih       3       2       6      10   250.01560997    -0.15787221
      57     dih      11       2       6      10    80.90190766    -0.06363646
      58     dih       6       2       3       1   185.43025046    -0.01460771
      59     dih       6       2       3       4     5.97435318     0.09608878
      60     dih       6       2       3      10    95.22935729     0.07439095
      61     dih      11       2       3       1    -5.83693566    -0.11479292
      62     dih      11       2       3       4   174.70716706    -0.00409643
      63     dih      11       2       3      10   263.96217117    -0.02579426
      64     dih      10       2       3       1    90.20089317    -0.08899867
      65     dih      10       2       3       4   -89.25500411     0.02169783
      66     dih       1       3       4      12     3.58206089     0.04159708
      67     dih       1       3       4       5   183.72850675     0.04139618
      68     dih       2       3       4      12   183.06008625    -0.06623488
      69     dih       2       3       4       5     3.20653211    -0.06643578
      70     dih      10       3       4      12   130.84520156     0.02164019
      71     dih      10       3       4       5   -49.00835258     0.02143929
      72     dih       6       2      11      10   -80.53711805     0.02996485
      73     dih       3       2      11      10   110.36368944     0.12968410
      74     dih       6       2      10       8    60.32627910     0.00564272
      75     dih       6       2      10       7   180.43650753     0.00125894
      76     dih       6       2      10       9   -59.39742086     0.00668877
      77     dih       6       2      10       3   239.33945908     0.01786496
      78     dih       6       2      10      11   118.31924217     0.00466498
      79     dih       3       2      10       8   180.98682002    -0.01222223
      80     dih       3       2      10       7   -58.90295155    -0.01660602
      81     dih       3       2      10       9    61.26312006    -0.01117619
      82     dih       3       2      10       6   120.66054092    -0.01786496
      83     dih       3       2      10      11   238.97978309    -0.01319998
      84     dih      11       2      10       8   -57.99296306     0.00097775
      85     dih      11       2      10       7    62.11726537    -0.00340604
      86     dih      11       2      10       9   182.28333697     0.00202379
      87     dih      11       2      10       3   121.02021691     0.01319998
      88     dih      11       2      10       6   241.68075783    -0.00466498
      89     dih       1       3      10       8   248.09637082     0.08183376
      90     dih       1       3      10       7     8.59151161     0.08381202
      91     dih       1       3      10       9   128.37671670     0.08151318
      92     dih       1       3      10       2   246.98173076     0.09630907
      93     dih       1       3      10       6   214.53773955     0.06877091
      94     dih       1       3      10      11   -81.05971305     0.11364731
      95     dih       2       3      10       8     1.11464006    -0.01447532
      96     dih       2       3      10       7   121.60978085    -0.01249705
      97     dih       2       3      10       9   241.39498594    -0.01479590
      98     dih       2       3      10       6   -32.44399121    -0.02753816
      99     dih       2       3      10      11    31.95855619     0.01733824
     100     dih       4       3      10       8   117.87482254    -0.06474696
     101     dih       4       3      10       7   238.36996333    -0.06276870
     102     dih       4       3      10       9    -1.84483158    -0.06506755
     103     dih       4       3      10       2   116.76018248    -0.05027165
     104     dih       4       3      10       6    84.31619127    -0.07780981
     105     dih       4       3      10      11   148.71873867    -0.03293341
     106     dih       2       6      10       8   240.44392034     0.00011526
     107     dih       2       6      10       7     0.50509070     0.00126468
     108     dih       2       6      10       9   120.27112633     0.00773368
     109     dih       2       6      10       3    31.10480653    -0.02852631
     110     dih       2       6      10      11   -32.77264068     0.00213747
     111     dih       8      10      11       2   121.78740409     0.00541400
     112     dih       7      10      11       2   241.42927245    -0.00296548
     113     dih       9      10      11       2     2.58337770     0.00157978
     114     dih       3      10      11       2   -31.14778288     0.04881711
     115     dih       6      10      11       2    33.32040349    -0.01399266
 
----------------------------------------------------------------------
Geometry Convergence after Step   1       (Hartree/Angstrom,Angstrom)
----------------------------------------------------------------------
current energy                               -2.41257184 Hartree
energy change                      -2.41257184     0.00014000    F
constrained gradient max            0.03806223     0.00100000    F
constrained gradient rms            0.01254433     0.00066667    F
gradient max                        0.03806231
gradient rms                        0.01254433
cart. step max                      0.06907438     0.01000000    F
cart. step rms                      0.02301443     0.00666667    F
 
 
--------
Geometry
--------
Formula: C4H7I2O
Atoms
  Index Symbol   x (angstrom)   y (angstrom)   z (angstrom)
      1      H     0.17900971    -1.86646922    -0.23980041
      2      C    -0.91524623    -0.11754868     0.27442488
      3      C     0.21022137    -0.79008090    -0.07267941
      4      C     1.52369124    -0.15389744    -0.23632576
      5      O     1.77089909     1.02807735    -0.01834237
      6      H    -0.90774633     0.96429600     0.35717181
      7      H    -1.16048975    -1.11320604     3.01765290
      8      H    -2.07927902     0.50227278     2.85488772
      9      H    -0.22006952     0.49826110     3.00944123
     10      C    -1.14313750    -0.04375710     2.84750100
     11      H    -1.87412868    -0.61470426     0.30693359
     12      H     2.32267351    -0.82489986    -0.58140863
     13      I     2.47326131     4.22631036     0.39715351
     14      I     3.03401105     6.89485107     0.75276507
 
Total System Charge             0.00000
 
 *** GOStep2 ***

 Energy gradients wrt nuclear displacements
 ==========================================

     Atom      Cartesian (a.u./angstrom)
                 X         Y         Z
 ----------------------------------------
     1 H     0.000560  0.000166 -0.000119
     2 C    -0.004888 -0.002083  0.000366
     3 C     0.000061  0.001304  0.000015
     4 C     0.011700 -0.015195 -0.006142
     5 O     0.000765  0.004327  0.000721
     6 H    -0.000593 -0.000390  0.000567
     7 H    -0.000011 -0.000019  0.000051
     8 H     0.000023  0.000057 -0.000084
     9 H    -0.000102 -0.000004  0.000167
    10 C    -0.000172 -0.000188 -0.001495
    11 H     0.004701  0.002504  0.000741
    12 H    -0.011758  0.010071  0.005236
    13 I    -0.004269 -0.018777 -0.002416
    14 I     0.003983  0.018226  0.002392
 ----------------------------------------
 Mulliken charges used for AMS results%charges...
Hessian eigenvector     1(     0.005) has overlap with TSRC:    0.20369E-02
Hessian eigenvector     2(     0.009) has overlap with TSRC:    0.41236E-01
Hessian eigenvector     3(     0.010) has overlap with TSRC:    0.43888E-01
Hessian eigenvector     4(     0.011) has overlap with TSRC:    0.98282E-01
Hessian eigenvector     5(     0.011) has overlap with TSRC:    0.96558E-01
Hessian eigenvector     6(     0.016) has overlap with TSRC:    0.18274E+00
Hessian eigenvector     7(     0.032) has overlap with TSRC:    0.26205E-01
Hessian eigenvector     8(     0.039) has overlap with TSRC:    0.12724E+00
Hessian eigenvector     9(     0.047) has overlap with TSRC:    0.46159E-03
Hessian eigenvector    10(     0.054) has overlap with TSRC:    0.75353E-02
Hessian eigenvector    11(     0.059) has overlap with TSRC:    0.87143E-02
Hessian eigenvector    12(     0.059) has overlap with TSRC:    0.41499E-02
Hessian eigenvector    13(     0.060) has overlap with TSRC:    0.10282E-02
Hessian eigenvector    14(     0.060) has overlap with TSRC:    0.30938E-03
Hessian eigenvector    15(     0.061) has overlap with TSRC:    0.11083E-01
Hessian eigenvector    16(     0.068) has overlap with TSRC:    0.94645E-02
Hessian eigenvector    17(     0.070) has overlap with TSRC:    0.30405E-02
Hessian eigenvector    18(     0.076) has overlap with TSRC:    0.98635E-01
Hessian eigenvector    19(     0.086) has overlap with TSRC:    0.64578E-01
Hessian eigenvector    20(     0.093) has overlap with TSRC:    0.27923E+00
Hessian eigenvector    21(     0.100) has overlap with TSRC:    0.22247E-02
Hessian eigenvector    22(     0.110) has overlap with TSRC:    0.56392E-01
Hessian eigenvector    23(     0.204) has overlap with TSRC:    0.91962E-03
Hessian eigenvector    24(     0.212) has overlap with TSRC:    0.94322E-03
Hessian eigenvector    25(     0.225) has overlap with TSRC:    0.66489E-03
Hessian eigenvector    26(     0.252) has overlap with TSRC:    0.16452E-02
Hessian eigenvector    27(     0.394) has overlap with TSRC:    0.45636E-03
Hessian eigenvector    28(     0.400) has overlap with TSRC:    0.13027E-02
Hessian eigenvector    29(     0.440) has overlap with TSRC:    0.77454E-01
Hessian eigenvector    30(     0.469) has overlap with TSRC:    0.20337E-02
Hessian eigenvector    31(     0.500) has overlap with TSRC:    0.21090E-05
Hessian eigenvector    32(     0.503) has overlap with TSRC:    0.15941E-06
Hessian eigenvector    33(     0.503) has overlap with TSRC:    0.21010E-06
Hessian eigenvector    34(     0.503) has overlap with TSRC:    0.87577E-06
Hessian eigenvector    35(     0.524) has overlap with TSRC:    0.28878E-05
Hessian eigenvector    36(     0.600) has overlap with TSRC:    0.98331E-04
Hessian eigenvector    20 has the largest overlap with TSRC:  0.27923
           Primitive Internal Coordinates (atoms in internal order)
-------------------------------------------------------------------------------
    index    type      i       j       k       l   value(A,deg)     Max Ovl Vect
-------------------------------------------------------------------------------
       1     bnd       1       3       0       0     1.08973180     0.00006010
       2     bnd       2       6       0       0     1.08503051     0.01018364
       3     bnd       2       3       0       0     1.35626630     0.05475676
       4     bnd       3       4       0       0     1.46857504     0.00005985
       5     bnd       4      12       0       0     1.09895363     0.00536628
       6     bnd       4       5       0       0     1.22706678    -0.00136678
       7     bnd       8      10       0       0     1.08377311    -0.00000348
       8     bnd       7      10       0       0     1.08303915    -0.00000528
       9     bnd       9      10       0       0     1.08261852     0.00001232
      10     bnd       2      11       0       0     1.08059060     0.00726882
      11     bnd      13      14       0       0     2.74991080    -0.01096925
      12     bnd       5      13       0       0     3.30070354     0.00081011
      13     bnd       2      10       0       0     2.58420207    -0.39475838
      14     bnd       3      10       0       0     3.30394205    -0.58798116
      15     bnd       6      10       0       0     2.69690925    -0.35358345
      16     bnd      10      11       0       0     2.70459083    -0.25876122
      17     ang       6       2       3       0   120.54374119     0.02639016
      18     ang       6       2      11       0   117.55281910     0.00462864
      19     ang       6       2      10       0    84.04222822     0.00262496
      20     ang       3       2      11       0   121.05923042    -0.01417131
      21     ang       3       2      10       0   110.00874004    -0.13877105
      22     ang      11       2      10       0    84.54459303     0.05291257
      23     ang       1       3       2       0   120.34992371     0.14259617
      24     ang       1       3       4       0   115.87573460    -0.18765416
      25     ang       1       3      10       0   110.30010648     0.11990144
      26     ang       2       3       4       0   123.77225650     0.04588995
      27     ang       2       3      10       0    47.30269863     0.06929359
      28     ang       4       3      10       0   111.53018784     0.01219695
      29     ang       3       4      12       0   114.88129605    -0.00100765
      30     ang       3       4       5       0   125.28669072     0.00153308
      31     ang      12       4       5       0   119.83190101    -0.00052531
      32     anX       4       5      13       0   176.95282652     0.00536128
      33     ang       2       6      10       0    72.37017718    -0.03519766
      34     ang       8      10       7       0   118.85475241     0.00455283
      35     ang       8      10       9       0   118.89590041     0.00118351
      36     ang       8      10       2       0    95.58639546    -0.00604753
      37     ang       8      10       3       0   118.27169478     0.06333677
      38     ang       8      10       6       0    83.87871466    -0.02345908
      39     ang       8      10      11       0    83.06751302    -0.01892857
      40     ang       7      10       9       0   118.98187339    -0.00736570
      41     ang       7      10       2       0    97.44913005     0.00464949
      42     ang       7      10       3       0    85.54742700    -0.03694564
      43     ang       7      10       6       0   121.03494866     0.03722325
      44     ang       7      10      11       0    86.26130213    -0.00642787
      45     ang       9      10       2       0    95.05110297     0.00593333
      46     ang       9      10       3       0    84.03321566    -0.02447438
      47     ang       9      10       6       0    82.90991700    -0.00872209
      48     ang       9      10      11       0   118.46656979     0.03130802
      49     ang       3      10       6       0    39.87320327     0.08975882
      50     ang       3      10      11       0    39.89509997     0.07840013
      51     ang       6      10      11       0    40.10157314     0.04760093
      52     ang       2      11      10       0    72.01908042    -0.07828546
      53     lai      14      13       4      12   179.82804150     0.00225507
      54     anZ       4       5      14       0   179.66275824     0.00025269
      55     lao      14      13       4      12    90.69198795     0.00014218
      56     dih       3       2       6      10   250.25290621     0.15780794
      57     dih      11       2       6      10    80.66170039     0.06097963
      58     dih       6       2       3       1   185.35664655     0.01267812
      59     dih       6       2       3       4     5.90410044    -0.09654858
      60     dih       6       2       3      10    94.96867587    -0.07321804
      61     dih      11       2       3       1    -5.42034556     0.11514940
      62     dih      11       2       3       4   175.12710833     0.00592269
      63     dih      11       2       3      10   264.19168376     0.02925324
      64     dih      10       2       3       1    90.38797068     0.08589616
      65     dih      10       2       3       4   -89.06457543    -0.02333054
      66     dih       1       3       4      12     4.17955355    -0.03876003
      67     dih       1       3       4       5   184.30229375    -0.03881348
      68     dih       2       3       4      12   183.65448362     0.06760540
      69     dih       2       3       4       5     3.77722382     0.06755195
      70     dih      10       3       4      12   131.47184899    -0.02192585
      71     dih      10       3       4       5   -48.40541081    -0.02197930
      72     dih       6       2      11      10   -80.36133869    -0.03079524
      73     dih       3       2      11      10   110.10406377    -0.13241518
      74     dih       6       2      10       8    60.54314404    -0.00495998
      75     dih       6       2      10       7   180.66294856    -0.00066846
      76     dih       6       2      10       9   -59.19678308    -0.00617300
      77     dih       6       2      10       3   239.61709423    -0.01566030
      78     dih       6       2      10      11   118.50014590    -0.00456709
      79     dih       3       2      10       8   180.92604981     0.01070032
      80     dih       3       2      10       7   -58.95414567     0.01499184
      81     dih       3       2      10       9    61.18612269     0.00948731
      82     dih       3       2      10       6   120.38290577     0.01566030
      83     dih       3       2      10      11   238.88305167     0.01109321
      84     dih      11       2      10       8   -57.95700186    -0.00039290
      85     dih      11       2      10       7    62.16280266     0.00389863
      86     dih      11       2      10       9   182.30307102    -0.00160591
      87     dih      11       2      10       3   121.11694833    -0.01109321
      88     dih      11       2      10       6   241.49985410     0.00456709
      89     dih       1       3      10       8   247.98483480    -0.07994307
      90     dih       1       3      10       7     8.49797855    -0.08169614
      91     dih       1       3      10       9   128.28554982    -0.07952671
      92     dih       1       3      10       2   246.93833690    -0.09270239
      93     dih       1       3      10       6   214.36010312    -0.06599045
      94     dih       1       3      10      11   -80.99629841    -0.11063672
      95     dih       2       3      10       8     1.04649790     0.01275932
      96     dih       2       3      10       7   121.55964165     0.01100625
      97     dih       2       3      10       9   241.34721292     0.01317568
      98     dih       2       3      10       6   -32.57823377     0.02671194
      99     dih       2       3      10      11    32.06536470    -0.01793433
     100     dih       4       3      10       8   117.73180589     0.06391037
     101     dih       4       3      10       7   238.24494964     0.06215731
     102     dih       4       3      10       9    -1.96747909     0.06432673
     103     dih       4       3      10       2   116.68530799     0.05115106
     104     dih       4       3      10       6    84.10707422     0.07786299
     105     dih       4       3      10      11   148.75067269     0.03321672
     106     dih       2       6      10       8   240.64043745     0.00055884
     107     dih       2       6      10       7     0.76717768    -0.00058147
     108     dih       2       6      10       9   120.43680554    -0.00716872
     109     dih       2       6      10       3    31.26754853     0.03004742
     110     dih       2       6      10      11   -32.86274511    -0.00297884
     111     dih       8      10      11       2   121.80601119    -0.00500209
     112     dih       7      10      11       2   241.48414351     0.00342429
     113     dih       9      10      11       2     2.60984513    -0.00108028
     114     dih       3      10      11       2   -30.98799381    -0.04747179
     115     dih       6      10      11       2    33.08832920     0.01321369
 
----------------------------------------------------------------------
Geometry Convergence after Step   2       (Hartree/Angstrom,Angstrom)
----------------------------------------------------------------------
current energy                               -2.41417471 Hartree
energy change                      -0.00160287     0.00014000    F
constrained gradient max            0.01879062     0.00100000    F
constrained gradient rms            0.00594691     0.00066667    F
gradient max                        0.01879059
gradient rms                        0.00594691
cart. step max                      0.05474293     0.01000000    F
cart. step rms                      0.02054212     0.00666667    F
 
 
--------
Geometry
--------
Formula: C4H7I2O
Atoms
  Index Symbol   x (angstrom)   y (angstrom)   z (angstrom)
      1      H     0.17875037    -1.88361502    -0.22423121
      2      C    -0.91635954    -0.12722799     0.26726945
      3      C     0.20773514    -0.80483840    -0.07153823
      4      C     1.51547870    -0.15967399    -0.24731001
      5      O     1.75816710     1.01864439    -0.02463817
      6      H    -0.90487254     0.95608524     0.33230246
      7      H    -1.14125388    -1.07581597     3.02953390
      8      H    -2.06322372     0.53567881     2.84657804
      9      H    -0.20245691     0.53602876     2.98593088
     10      C    -1.12649585    -0.00935957     2.84142148
     11      H    -1.88039912    -0.62570591     0.31454676
     12      H     2.32889539    -0.83732751    -0.60487183
     13      I     2.47350378     4.21228024     0.41687362
     14      I     2.98620134     6.85435209     0.80750800
 
Total System Charge             0.00000
 
 *** GOStep3 ***

 Energy gradients wrt nuclear displacements
 ==========================================

     Atom      Cartesian (a.u./angstrom)
                 X         Y         Z
 ----------------------------------------
     1 H     0.000122 -0.000374 -0.000056
     2 C     0.001911  0.000991 -0.000515
     3 C     0.000179  0.001259  0.000964
     4 C    -0.002120  0.003640 -0.000489
     5 O    -0.000584 -0.002150  0.000419
     6 H     0.000155  0.000038  0.000505
     7 H     0.000016  0.000003  0.000042
     8 H    -0.000003  0.000026 -0.000106
     9 H     0.000025  0.000003  0.000180
    10 C    -0.000211 -0.000250 -0.001751
    11 H    -0.001690 -0.001014  0.001227
    12 H     0.002454 -0.001457 -0.000350
    13 I    -0.002070 -0.009753 -0.001397
    14 I     0.001815  0.009039  0.001328
 ----------------------------------------
 Mulliken charges used for AMS results%charges...
Hessian eigenvector     1(     0.005) has overlap with TSRC:    0.20674E-02
Hessian eigenvector     2(     0.008) has overlap with TSRC:    0.39900E-01
Hessian eigenvector     3(     0.010) has overlap with TSRC:    0.15713E-01
Hessian eigenvector     4(     0.011) has overlap with TSRC:    0.49280E-01
Hessian eigenvector     5(     0.013) has overlap with TSRC:    0.19441E+00
Hessian eigenvector     6(     0.019) has overlap with TSRC:    0.12185E+00
Hessian eigenvector     7(     0.032) has overlap with TSRC:    0.35279E-01
Hessian eigenvector     8(     0.039) has overlap with TSRC:    0.12227E+00
Hessian eigenvector     9(     0.047) has overlap with TSRC:    0.58038E-03
Hessian eigenvector    10(     0.054) has overlap with TSRC:    0.73503E-02
Hessian eigenvector    11(     0.056) has overlap with TSRC:    0.15522E-02
Hessian eigenvector    12(     0.060) has overlap with TSRC:    0.92080E-02
Hessian eigenvector    13(     0.060) has overlap with TSRC:    0.11338E-04
Hessian eigenvector    14(     0.060) has overlap with TSRC:    0.19600E-03
Hessian eigenvector    15(     0.061) has overlap with TSRC:    0.11588E-01
Hessian eigenvector    16(     0.068) has overlap with TSRC:    0.10488E-01
Hessian eigenvector    17(     0.070) has overlap with TSRC:    0.14381E-03
Hessian eigenvector    18(     0.076) has overlap with TSRC:    0.94164E-01
Hessian eigenvector    19(     0.085) has overlap with TSRC:    0.35143E-01
Hessian eigenvector    20(     0.093) has overlap with TSRC:    0.28609E+00
Hessian eigenvector    21(     0.100) has overlap with TSRC:    0.30208E-02
Hessian eigenvector    22(     0.109) has overlap with TSRC:    0.54742E-01
Hessian eigenvector    23(     0.165) has overlap with TSRC:    0.94599E-03
Hessian eigenvector    24(     0.210) has overlap with TSRC:    0.34788E-03
Hessian eigenvector    25(     0.225) has overlap with TSRC:    0.75800E-03
Hessian eigenvector    26(     0.252) has overlap with TSRC:    0.17326E-02
Hessian eigenvector    27(     0.394) has overlap with TSRC:    0.28181E-03
Hessian eigenvector    28(     0.400) has overlap with TSRC:    0.13675E-02
Hessian eigenvector    29(     0.440) has overlap with TSRC:    0.77091E-01
Hessian eigenvector    30(     0.469) has overlap with TSRC:    0.34823E-02
Hessian eigenvector    31(     0.500) has overlap with TSRC:    0.63921E-04
Hessian eigenvector    32(     0.503) has overlap with TSRC:    0.26994E-05
Hessian eigenvector    33(     0.503) has overlap with TSRC:    0.18796E-06
Hessian eigenvector    34(     0.503) has overlap with TSRC:    0.10121E-04
Hessian eigenvector    35(     0.524) has overlap with TSRC:    0.13141E-03
Hessian eigenvector    36(     0.599) has overlap with TSRC:    0.35104E-03
Hessian eigenvector    20 has the largest overlap with TSRC:  0.28609
           Primitive Internal Coordinates (atoms in internal order)
-------------------------------------------------------------------------------
    index    type      i       j       k       l   value(A,deg)     Max Ovl Vect
-------------------------------------------------------------------------------
       1     bnd       1       3       0       0     1.08991479    -0.00008249
       2     bnd       2       6       0       0     1.08532428     0.00981457
       3     bnd       2       3       0       0     1.35555721     0.05534403
       4     bnd       3       4       0       0     1.46878387     0.00048459
       5     bnd       4      12       0       0     1.11745759     0.01038553
       6     bnd       4       5       0       0     1.22348462    -0.00101177
       7     bnd       8      10       0       0     1.08376775    -0.00001031
       8     bnd       7      10       0       0     1.08302047    -0.00000896
       9     bnd       9      10       0       0     1.08267232    -0.00000018
      10     bnd       2      11       0       0     1.08631841     0.00981460
      11     bnd      13      14       0       0     2.71955836    -0.03086953
      12     bnd       5      13       0       0     3.30241566     0.00342611
      13     bnd       2      10       0       0     2.58540305    -0.40456884
      14     bnd       3      10       0       0     3.30125630    -0.59579737
      15     bnd       6      10       0       0     2.69756906    -0.34884990
      16     bnd      10      11       0       0     2.70801566    -0.28784290
      17     ang       6       2       3       0   120.34127289     0.02126627
      18     ang       6       2      11       0   117.69751279     0.00141976
      19     ang       6       2      10       0    84.01288313     0.00971213
      20     ang       3       2      11       0   121.15845584    -0.00536825
      21     ang       3       2      10       0   109.81846458    -0.13832529
      22     ang      11       2      10       0    84.57512247     0.04207593
      23     ang       1       3       2       0   120.51277314     0.11722754
      24     ang       1       3       4       0   116.21075000    -0.17219040
      25     ang       1       3      10       0   110.57113160     0.09464977
      26     ang       2       3       4       0   123.27571498     0.05574379
      27     ang       2       3      10       0    47.45717203     0.06829823
      28     ang       4       3      10       0   111.07555020     0.02381734
      29     ang       3       4      12       0   114.83628897    -0.00198687
      30     ang       3       4       5       0   125.30053818     0.00161118
      31     ang      12       4       5       0   119.86013641     0.00037655
      32     anX       4       5      13       0   177.16986570     0.03272950
      33     ang       2       6      10       0    72.40021009    -0.04212059
      34     ang       8      10       7       0   118.85630863     0.00435620
      35     ang       8      10       9       0   118.92808639     0.00101274
      36     ang       8      10       2       0    95.61915233    -0.00663927
      37     ang       8      10       3       0   118.34017112     0.06332694
      38     ang       8      10       6       0    83.99857414    -0.02444580
      39     ang       8      10      11       0    83.00845091    -0.02120453
      40     ang       7      10       9       0   118.97873239    -0.00769145
      41     ang       7      10       2       0    97.42055684     0.00533060
      42     ang       7      10       3       0    85.49723552    -0.03510876
      43     ang       7      10       6       0   121.00404118     0.03774602
      44     ang       7      10      11       0    86.22495072    -0.00669035
      45     ang       9      10       2       0    94.96173359     0.00777563
      46     ang       9      10       3       0    83.92773388    -0.02447750
      47     ang       9      10       6       0    82.74673669    -0.00639022
      48     ang       9      10      11       0   118.47693159     0.03567934
      49     ang       3      10       6       0    39.85201895     0.08949375
      50     ang       3      10      11       0    40.03221115     0.08215915
      51     ang       6      10      11       0    40.21794115     0.04903295
      52     ang       2      11      10       0    71.88717178    -0.07000002
      53     lai      14      13       4      12   178.74561507     0.02194624
      54     anZ       4       5      14       0   179.75437199    -0.00227034
      55     lao      14      13       4      12    90.56457973     0.00286380
      56     dih       3       2       6      10   250.51154076     0.15360892
      57     dih      11       2       6      10    80.65278493     0.05304606
      58     dih       6       2       3       1   185.45945927     0.00504290
      59     dih       6       2       3       4     5.78923193    -0.09749893
      60     dih       6       2       3      10    94.73076029    -0.06632832
      61     dih      11       2       3       1    -5.03736754     0.11000173
      62     dih      11       2       3       4   175.29240511     0.00745989
      63     dih      11       2       3      10   264.23393348     0.03863051
      64     dih      10       2       3       1    90.72869898     0.07137122
      65     dih      10       2       3       4   -88.94152837    -0.03117062
      66     dih       1       3       4      12     4.90789665    -0.03826429
      67     dih       1       3       4       5   185.54619280    -0.03865965
      68     dih       2       3       4      12   184.59123142     0.06148559
      69     dih       2       3       4       5     5.22952757     0.06109024
      70     dih      10       3       4      12   132.45658469    -0.03300403
      71     dih      10       3       4       5   -46.90511916    -0.03339938
      72     dih       6       2      11      10   -80.31760645    -0.03359465
      73     dih       3       2      11      10   109.91098287    -0.13735214
      74     dih       6       2      10       8    60.79762340    -0.00643529
      75     dih       6       2      10       7   180.92042710    -0.00234002
      76     dih       6       2      10       9   -58.96560539    -0.00768152
      77     dih       6       2      10       3   239.86089924    -0.01281358
      78     dih       6       2      10      11   118.64721897    -0.00716121
      79     dih       3       2      10       8   180.93672416     0.00637830
      80     dih       3       2      10       7   -58.94047213     0.01047356
      81     dih       3       2      10       9    61.17349537     0.00513207
      82     dih       3       2      10       6   120.13910076     0.01281358
      83     dih       3       2      10      11   238.78631974     0.00565237
      84     dih      11       2      10       8   -57.84959558     0.00072592
      85     dih      11       2      10       7    62.27320813     0.00482119
      86     dih      11       2      10       9   182.38717563    -0.00052031
      87     dih      11       2      10       3   121.21368026    -0.00565237
      88     dih      11       2      10       6   241.35278103     0.00716121
      89     dih       1       3      10       8   248.00222264    -0.07172234
      90     dih       1       3      10       7     8.50361537    -0.07264555
      91     dih       1       3      10       9   128.31223130    -0.07110595
      92     dih       1       3      10       2   246.94303946    -0.07960070
      93     dih       1       3      10       6   214.25849031    -0.05392392
      94     dih       1       3      10      11   -80.98458823    -0.09869427
      95     dih       2       3      10       8     1.05918318     0.00787836
      96     dih       2       3      10       7   121.56057591     0.00695516
      97     dih       2       3      10       9   241.36919184     0.00849476
      98     dih       2       3      10       6   -32.68454915     0.02567679
      99     dih       2       3      10      11    32.07237231    -0.01909357
     100     dih       4       3      10       8   117.44504453     0.06277475
     101     dih       4       3      10       7   237.94643726     0.06185155
     102     dih       4       3      10       9    -2.24494681     0.06339114
     103     dih       4       3      10       2   116.38586135     0.05489639
     104     dih       4       3      10       6    83.70131220     0.08057317
     105     dih       4       3      10      11   148.45823367     0.03580282
     106     dih       2       6      10       8   240.86731844    -0.00063243
     107     dih       2       6      10       7     1.06486843    -0.00251369
     108     dih       2       6      10       9   120.62349147    -0.00792736
     109     dih       2       6      10       3    31.42175208     0.03205140
     110     dih       2       6      10      11   -32.87263247    -0.00660437
     111     dih       8      10      11       2   121.90798743    -0.00440618
     112     dih       7      10      11       2   241.60274973     0.00418785
     113     dih       9      10      11       2     2.70580356     0.00024696
     114     dih       3      10      11       2   -30.90611435    -0.04354958
     115     dih       6      10      11       2    32.94564386     0.01275817
 
----------------------------------------------------------------------
Geometry Convergence after Step   3       (Hartree/Angstrom,Angstrom)
----------------------------------------------------------------------
current energy                               -2.41475653 Hartree
energy change                      -0.00058182     0.00014000    F
constrained gradient max            0.00976573     0.00100000    F
constrained gradient rms            0.00237039     0.00066667    F
gradient max                        0.00976570
gradient rms                        0.00237039
cart. step max                      0.03905630     0.01000000    F
cart. step rms                      0.00919459     0.00666667    F
 
 
--------
Geometry
--------
Formula: C4H7I2O
Atoms
  Index Symbol   x (angstrom)   y (angstrom)   z (angstrom)
      1      H     0.18202450    -1.88912729    -0.21622315
      2      C    -0.91378629    -0.13008428     0.26804459
      3      C     0.21104934    -0.81081975    -0.06251029
      4      C     1.51889225    -0.16348030    -0.23544950
      5      O     1.76118519     1.01766954    -0.01992684
      6      H    -0.89943456     0.95340155     0.32868435
      7      H    -1.14206619    -1.06707111     3.03375420
      8      H    -2.06496021     0.54309142     2.84421973
      9      H    -0.20407030     0.54515380     2.98390106
     10      C    -1.12784014    -0.00126531     2.84194729
     11      H    -1.87902835    -0.62513885     0.31159473
     12      H     2.31937875    -0.83157407    -0.64392813
     13      I     2.48715533     4.21209456     0.41616199
     14      I     2.96517097     6.83665528     0.81910511
 
Total System Charge             0.00000
 
 *** GOStep4 ***

 Energy gradients wrt nuclear displacements
 ==========================================

     Atom      Cartesian (a.u./angstrom)
                 X         Y         Z
 ----------------------------------------
     1 H     0.000020 -0.000095 -0.000178
     2 C     0.001008  0.000906 -0.000868
     3 C    -0.000934 -0.000172 -0.002262
     4 C    -0.001455 -0.000078  0.011586
     5 O    -0.000172  0.003144 -0.002775
     6 H     0.000179 -0.000011  0.000214
     7 H     0.000006 -0.000014  0.000018
     8 H     0.000002 -0.000010 -0.000126
     9 H     0.000015 -0.000021  0.000161
    10 C    -0.000086 -0.000180 -0.001667
    11 H    -0.000934 -0.000546  0.001506
    12 H     0.002566 -0.002129 -0.005487
    13 I    -0.000510 -0.002522 -0.000432
    14 I     0.000295  0.001728  0.000311
 ----------------------------------------
 Mulliken charges used for AMS results%charges...
Hessian eigenvector     1(     0.004) has overlap with TSRC:    0.26881E-01
Hessian eigenvector     2(     0.007) has overlap with TSRC:    0.82700E-01
Hessian eigenvector     3(     0.010) has overlap with TSRC:    0.10104E-01
Hessian eigenvector     4(     0.011) has overlap with TSRC:    0.46951E-01
Hessian eigenvector     5(     0.016) has overlap with TSRC:    0.21787E+00
Hessian eigenvector     6(     0.031) has overlap with TSRC:    0.31404E-01
Hessian eigenvector     7(     0.039) has overlap with TSRC:    0.12175E+00
Hessian eigenvector     8(     0.041) has overlap with TSRC:    0.64601E-02
Hessian eigenvector     9(     0.048) has overlap with TSRC:    0.32469E-03
Hessian eigenvector    10(     0.054) has overlap with TSRC:    0.71596E-02
Hessian eigenvector    11(     0.056) has overlap with TSRC:    0.90647E-04
Hessian eigenvector    12(     0.060) has overlap with TSRC:    0.66152E-02
Hessian eigenvector    13(     0.060) has overlap with TSRC:    0.12417E-02
Hessian eigenvector    14(     0.060) has overlap with TSRC:    0.73224E-02
Hessian eigenvector    15(     0.061) has overlap with TSRC:    0.12986E-01
Hessian eigenvector    16(     0.068) has overlap with TSRC:    0.11388E-01
Hessian eigenvector    17(     0.070) has overlap with TSRC:    0.15662E-02
Hessian eigenvector    18(     0.075) has overlap with TSRC:    0.92763E-01
Hessian eigenvector    19(     0.085) has overlap with TSRC:    0.30751E-01
Hessian eigenvector    20(     0.093) has overlap with TSRC:    0.28690E+00
Hessian eigenvector    21(     0.100) has overlap with TSRC:    0.35358E-02
Hessian eigenvector    22(     0.109) has overlap with TSRC:    0.54027E-01
Hessian eigenvector    23(     0.164) has overlap with TSRC:    0.13705E-02
Hessian eigenvector    24(     0.210) has overlap with TSRC:    0.32777E-03
Hessian eigenvector    25(     0.226) has overlap with TSRC:    0.73712E-03
Hessian eigenvector    26(     0.252) has overlap with TSRC:    0.17283E-02
Hessian eigenvector    27(     0.394) has overlap with TSRC:    0.57188E-03
Hessian eigenvector    28(     0.400) has overlap with TSRC:    0.10976E-02
Hessian eigenvector    29(     0.440) has overlap with TSRC:    0.76932E-01
Hessian eigenvector    30(     0.474) has overlap with TSRC:    0.30793E-02
Hessian eigenvector    31(     0.500) has overlap with TSRC:    0.66212E-04
Hessian eigenvector    32(     0.503) has overlap with TSRC:    0.17679E-05
Hessian eigenvector    33(     0.503) has overlap with TSRC:    0.10600E-05
Hessian eigenvector    34(     0.503) has overlap with TSRC:    0.11965E-04
Hessian eigenvector    35(     0.524) has overlap with TSRC:    0.11492E-03
Hessian eigenvector    36(     0.601) has overlap with TSRC:    0.30318E-03
Hessian eigenvector    20 has the largest overlap with TSRC:  0.28690
           Primitive Internal Coordinates (atoms in internal order)
-------------------------------------------------------------------------------
    index    type      i       j       k       l   value(A,deg)     Max Ovl Vect
-------------------------------------------------------------------------------
       1     bnd       1       3       0       0     1.08959499     0.00006733
       2     bnd       2       6       0       0     1.08527633    -0.00976819
       3     bnd       2       3       0       0     1.35570000    -0.05537871
       4     bnd       3       4       0       0     1.46949291    -0.00048342
       5     bnd       4      12       0       0     1.11981370    -0.01084685
       6     bnd       4       5       0       0     1.22485543     0.00100315
       7     bnd       8      10       0       0     1.08375433     0.00001028
       8     bnd       7      10       0       0     1.08302090     0.00000899
       9     bnd       9      10       0       0     1.08262433    -0.00000407
      10     bnd       2      11       0       0     1.08566471    -0.01021313
      11     bnd      13      14       0       0     2.69799575     0.03096980
      12     bnd       5      13       0       0     3.30477795    -0.00343221
      13     bnd       2      10       0       0     2.58599855     0.40583040
      14     bnd       3      10       0       0     3.29907218     0.59622477
      15     bnd       6      10       0       0     2.69815651     0.34823261
      16     bnd      10      11       0       0     2.71222898     0.29241028
      17     ang       6       2       3       0   120.26178537    -0.02061796
      18     ang       6       2      11       0   117.69441235    -0.00103591
      19     ang       6       2      10       0    84.01599505    -0.01062773
      20     ang       3       2      11       0   121.23106796     0.00425350
      21     ang       3       2      10       0   109.65629082     0.13794592
      22     ang      11       2      10       0    84.79012847    -0.04024084
      23     ang       1       3       2       0   120.61202925    -0.11362013
      24     ang       1       3       4       0   116.29934514     0.17013864
      25     ang       1       3      10       0   110.86913698    -0.09079830
      26     ang       2       3       4       0   123.08858808    -0.05728809
      27     ang       2       3      10       0    47.57652348    -0.06794280
      28     ang       4       3      10       0   110.89800729    -0.02563216
      29     ang       3       4      12       0   114.60209835     0.00201703
      30     ang       3       4       5       0   125.46078862    -0.00153003
      31     ang      12       4       5       0   119.87457574    -0.00047328
      32     anX       4       5      13       0   177.43280220    -0.03584585
      33     ang       2       6      10       0    72.40350733     0.04301476
      34     ang       8      10       7       0   118.85366461    -0.00433659
      35     ang       8      10       9       0   118.94904859    -0.00096088
      36     ang       8      10       2       0    95.66331552     0.00677262
      37     ang       8      10       3       0   118.42637763    -0.06317527
      38     ang       8      10       6       0    84.11290239     0.02470904
      39     ang       8      10      11       0    82.99269039     0.02147229
      40     ang       7      10       9       0   118.99156052     0.00775537
      41     ang       7      10       2       0    97.37369509    -0.00547597
      42     ang       7      10       3       0    85.39778322     0.03470641
      43     ang       7      10       6       0   120.94914915    -0.03787153
      44     ang       7      10      11       0    86.28596308     0.00681828
      45     ang       9      10       2       0    94.87718176    -0.00814045
      46     ang       9      10       3       0    83.85753066     0.02437155
      47     ang       9      10       6       0    82.60688816     0.00589440
      48     ang       9      10      11       0   118.34294498    -0.03644205
      49     ang       3      10       6       0    39.86218740    -0.08938870
      50     ang       3      10      11       0    40.05813346    -0.08258970
      51     ang       6      10      11       0    40.16601109    -0.04929505
      52     ang       2      11      10       0    71.71722423     0.06856003
      53     lai      14      13       4      12   177.88624343    -0.02572136
      54     anZ       4       5      14       0   179.90253139     0.00278941
      55     lao      14      13       4      12    90.42269694    -0.00348481
      56     dih       3       2       6      10   250.70570284    -0.15268893
      57     dih      11       2       6      10    80.90137852    -0.05151846
      58     dih       6       2       3       1   185.74877530    -0.00356650
      59     dih       6       2       3       4     5.67565365     0.09748178
      60     dih       6       2       3      10    94.60233832     0.06522924
      61     dih      11       2       3       1    -4.81293219    -0.10898219
      62     dih      11       2       3       4   175.11394616    -0.00793391
      63     dih      11       2       3      10   264.04063084    -0.04018645
      64     dih      10       2       3       1    91.14643698    -0.06879574
      65     dih      10       2       3       4   -88.92668468     0.03225254
      66     dih       1       3       4      12     7.93649742     0.04327328
      67     dih       1       3       4       5   185.03995819     0.03689563
      68     dih       2       3       4      12   188.00669447    -0.05501564
      69     dih       2       3       4       5     5.11015525    -0.06139329
      70     dih      10       3       4      12   135.81936887     0.04000694
      71     dih      10       3       4       5   -47.07717036     0.03362930
      72     dih       6       2      11      10   -80.43959971     0.03371529
      73     dih       3       2      11      10   109.86031831     0.13787841
      74     dih       6       2      10       8    60.99738840     0.00686313
      75     dih       6       2      10       7   181.11775752     0.00278828
      76     dih       6       2      10       9   -58.78024578     0.00809501
      77     dih       6       2      10       3   239.95859153     0.01249179
      78     dih       6       2      10      11   118.60694700     0.00739225
      79     dih       3       2      10       8   181.03879687    -0.00562866
      80     dih       3       2      10       7   -58.84083401    -0.00970351
      81     dih       3       2      10       9    61.26116269    -0.00439678
      82     dih       3       2      10       6   120.04140847    -0.01249179
      83     dih       3       2      10      11   238.64835547    -0.00509953
      84     dih      11       2      10       8   -57.60955860    -0.00052913
      85     dih      11       2      10       7    62.51081052    -0.00460397
      86     dih      11       2      10       9   182.61280722     0.00070276
      87     dih      11       2      10       3   121.35164453     0.00509953
      88     dih      11       2      10       6   241.39305300    -0.00739225
      89     dih       1       3      10       8   248.22988278     0.07092820
      90     dih       1       3      10       7     8.68997040     0.07167623
      91     dih       1       3      10       9   128.53919380     0.07028287
      92     dih       1       3      10       2   247.05441354     0.07795847
      93     dih       1       3      10       6   214.35077158     0.05245162
      94     dih       1       3      10      11   -81.00959656     0.09700876
      95     dih       2       3      10       8     1.17546924    -0.00703027
      96     dih       2       3      10       7   121.63555687    -0.00628225
      97     dih       2       3      10       9   241.48478026    -0.00767560
      98     dih       2       3      10       6   -32.70364195    -0.02550685
      99     dih       2       3      10      11    31.93598990     0.01905028
     100     dih       4       3      10       8   117.45224487    -0.06252246
     101     dih       4       3      10       7   237.91233249    -0.06177443
     102     dih       4       3      10       9    -2.23844411    -0.06316779
     103     dih       4       3      10       2   116.27677563    -0.05549219
     104     dih       4       3      10       6    83.57313368    -0.08099904
     105     dih       4       3      10      11   148.21276553    -0.03644190
     106     dih       2       6      10       8   241.03824965     0.00098888
     107     dih       2       6      10       7     1.29256819     0.00303188
     108     dih       2       6      10       9   120.76950683     0.00818677
     109     dih       2       6      10       3    31.51145212    -0.03220771
     110     dih       2       6      10      11   -32.85964458     0.00707555
     111     dih       8      10      11       2   122.15414031     0.00467734
     112     dih       7      10      11       2   241.83760242    -0.00395688
     113     dih       9      10      11       2     2.95822847    -0.00005756
     114     dih       3      10      11       2   -30.89861502     0.04300009
     115     dih       6      10      11       2    32.99024810    -0.01260143
 
----------------------------------------------------------------------
Geometry Convergence after Step   4       (Hartree/Angstrom,Angstrom)
----------------------------------------------------------------------
current energy                               -2.41477477 Hartree
energy change                      -0.00001824     0.00014000    T
constrained gradient max            0.01157845     0.00100000    F
constrained gradient rms            0.00228970     0.00066667    F
gradient max                        0.01157848
gradient rms                        0.00228970
cart. step max                      0.06702691     0.01000000    F
cart. step rms                      0.02419513     0.00666667    F
 
 
--------
Geometry
--------
Formula: C4H7I2O
Atoms
  Index Symbol   x (angstrom)   y (angstrom)   z (angstrom)
      1      H     0.19204790    -1.90806040    -0.19169852
      2      C    -0.92065435    -0.15192290     0.26434994
      3      C     0.20958388    -0.82659540    -0.06113044
      4      C     1.50700042    -0.16800032    -0.26744802
      5      O     1.75101281     1.01003528    -0.03812505
      6      H    -0.92067290     0.93286221     0.29589196
      7      H    -1.10238037    -1.02251559     3.05216418
      8      H    -2.05842371     0.56432207     2.83298585
      9      H    -0.19642761     0.60562581     2.95058505
     10      C    -1.11094854     0.03819054     2.83362666
     11      H    -1.87928027    -0.65613617     0.32428259
     12      H     2.31232712    -0.83838416    -0.65783470
     13      I     2.48044452     4.19832990     0.44559361
     14      I     2.95004140     6.81175431     0.88613203
 
Total System Charge             0.00000
 
 *** GOStep5 ***

 Energy gradients wrt nuclear displacements
 ==========================================

     Atom      Cartesian (a.u./angstrom)
                 X         Y         Z
 ----------------------------------------
     1 H     0.000127  0.000071  0.000059
     2 C     0.000224  0.000284 -0.000383
     3 C    -0.000065 -0.001544  0.001500
     4 C    -0.003371  0.002780 -0.001097
     5 O     0.001060  0.001518  0.001471
     6 H    -0.000068 -0.000106  0.000175
     7 H     0.000010 -0.000028 -0.000032
     8 H     0.000005 -0.000009 -0.000139
     9 H    -0.000007  0.000002  0.000129
    10 C    -0.000119 -0.000191 -0.001296
    11 H    -0.000084  0.000261  0.000694
    12 H     0.002481 -0.002238 -0.000971
    13 I    -0.000036 -0.000230 -0.000053
    14 I    -0.000157 -0.000570 -0.000057
 ----------------------------------------
 Mulliken charges used for AMS results%charges...
Hessian eigenvector     1(     0.004) has overlap with TSRC:    0.25013E-01
Hessian eigenvector     2(     0.009) has overlap with TSRC:    0.10890E+00
Hessian eigenvector     3(     0.010) has overlap with TSRC:    0.48162E-01
Hessian eigenvector     4(     0.011) has overlap with TSRC:    0.23096E-01
Hessian eigenvector     5(     0.016) has overlap with TSRC:    0.20560E+00
Hessian eigenvector     6(     0.031) has overlap with TSRC:    0.32082E-01
Hessian eigenvector     7(     0.039) has overlap with TSRC:    0.12173E+00
Hessian eigenvector     8(     0.047) has overlap with TSRC:    0.83410E-02
Hessian eigenvector     9(     0.048) has overlap with TSRC:    0.13911E-01
Hessian eigenvector    10(     0.054) has overlap with TSRC:    0.71764E-02
Hessian eigenvector    11(     0.056) has overlap with TSRC:    0.24694E-02
Hessian eigenvector    12(     0.060) has overlap with TSRC:    0.99618E-02
Hessian eigenvector    13(     0.060) has overlap with TSRC:    0.11330E-02
Hessian eigenvector    14(     0.060) has overlap with TSRC:    0.24104E-02
Hessian eigenvector    15(     0.061) has overlap with TSRC:    0.11419E-01
Hessian eigenvector    16(     0.068) has overlap with TSRC:    0.10720E-01
Hessian eigenvector    17(     0.070) has overlap with TSRC:    0.14965E-02
Hessian eigenvector    18(     0.075) has overlap with TSRC:    0.92804E-01
Hessian eigenvector    19(     0.085) has overlap with TSRC:    0.30128E-01
Hessian eigenvector    20(     0.093) has overlap with TSRC:    0.28603E+00
Hessian eigenvector    21(     0.099) has overlap with TSRC:    0.24342E-02
Hessian eigenvector    22(     0.109) has overlap with TSRC:    0.54308E-01
Hessian eigenvector    23(     0.165) has overlap with TSRC:    0.19308E-02
Hessian eigenvector    24(     0.210) has overlap with TSRC:    0.10271E-02
Hessian eigenvector    25(     0.226) has overlap with TSRC:    0.10547E-02
Hessian eigenvector    26(     0.252) has overlap with TSRC:    0.22629E-02
Hessian eigenvector    27(     0.394) has overlap with TSRC:    0.11711E-02
Hessian eigenvector    28(     0.400) has overlap with TSRC:    0.58646E-03
Hessian eigenvector    29(     0.440) has overlap with TSRC:    0.77244E-01
Hessian eigenvector    30(     0.476) has overlap with TSRC:    0.22033E-02
Hessian eigenvector    31(     0.500) has overlap with TSRC:    0.91499E-04
Hessian eigenvector    32(     0.503) has overlap with TSRC:    0.46742E-05
Hessian eigenvector    33(     0.503) has overlap with TSRC:    0.26351E-05
Hessian eigenvector    34(     0.503) has overlap with TSRC:    0.75461E-05
Hessian eigenvector    35(     0.524) has overlap with TSRC:    0.26991E-03
Hessian eigenvector    36(     0.602) has overlap with TSRC:    0.66069E-03
Hessian eigenvector    20 has the largest overlap with TSRC:  0.28603
           Primitive Internal Coordinates (atoms in internal order)
-------------------------------------------------------------------------------
    index    type      i       j       k       l   value(A,deg)     Max Ovl Vect
-------------------------------------------------------------------------------
       1     bnd       1       3       0       0     1.08945954    -0.00010440
       2     bnd       2       6       0       0     1.08524358     0.00974827
       3     bnd       2       3       0       0     1.35593470     0.05512734
       4     bnd       3       4       0       0     1.46955916     0.00066796
       5     bnd       4      12       0       0     1.11819826     0.01202126
       6     bnd       4       5       0       0     1.22470361    -0.00135336
       7     bnd       8      10       0       0     1.08375459    -0.00001185
       8     bnd       7      10       0       0     1.08301872    -0.00000661
[...]
     8     H      -0.004082  -0.001444  -0.051115
     9     H       0.012144  -0.002733  -0.056506
    10     C      -0.000570   0.003848   0.046933
    11     H      -0.009795   0.011739  -0.744562
    12     H      -0.112259  -0.039502   0.090271
    13     I       0.000013   0.000151   0.000019
    14     I      -0.000001  -0.000068  -0.000012
 
 Mode:    26      Frequency (cm-1):      969.6456     Intensity (km/mol):       13.3316
 Index  Atom      ---- Displacements (x/y/z) ----
     1     H      -0.246825   0.086364  -0.622826
     2     C       0.007453   0.023188   0.023237
     3     C      -0.024849  -0.043046   0.031217
     4     C       0.034871  -0.017067   0.062299
     5     O       0.010585   0.020619  -0.017481
     6     H      -0.149051   0.076678  -0.617182
     7     H      -0.003437  -0.005684   0.002945
     8     H      -0.002054  -0.002780  -0.016544
     9     H       0.000174  -0.005349  -0.021523
    10     C      -0.002944  -0.003671   0.011200
    11     H       0.041637  -0.073802   0.248771
    12     H       0.017844   0.080170  -0.217016
    13     I       0.000009   0.000019  -0.000035
    14     I      -0.000003  -0.000015   0.000013
 
 Mode:    27      Frequency (cm-1):      995.6361     Intensity (km/mol):        4.9592
 Index  Atom      ---- Displacements (x/y/z) ----
     1     H      -0.045051   0.062108  -0.413114
     2     C      -0.017524  -0.002479  -0.006380
     3     C       0.023232  -0.014882   0.123480
     4     C      -0.026464   0.039997  -0.204157
     5     O       0.005666  -0.010366   0.046219
     6     H       0.045961  -0.013212  -0.119644
     7     H       0.001404  -0.001584   0.000395
     8     H       0.000398  -0.000635  -0.006941
     9     H       0.000672  -0.001237  -0.003008
    10     C       0.000045  -0.000937   0.002727
    11     H      -0.033597   0.063486  -0.006085
    12     H       0.186569  -0.200767   0.814767
    13     I       0.000006  -0.000027   0.000046
    14     I      -0.000004   0.000012  -0.000012
 
 Mode:    28      Frequency (cm-1):     1056.2470     Intensity (km/mol):        6.9714
 Index  Atom      ---- Displacements (x/y/z) ----
     1     H       0.560747   0.011951  -0.230928
     2     C      -0.097620  -0.052428  -0.001726
     3     C       0.094595   0.110554   0.005991
     4     C       0.016165  -0.028169   0.026371
     5     O      -0.048987  -0.035673  -0.006811
     6     H       0.414306  -0.158364  -0.193000
     7     H       0.001916  -0.002226  -0.000338
     8     H       0.002642   0.003226  -0.005116
     9     H      -0.002865   0.004014  -0.000456
    10     C      -0.000940  -0.001069   0.001843
    11     H      -0.208876   0.454724   0.267271
    12     H      -0.130821  -0.083909  -0.114387
    13     I      -0.000042  -0.000124  -0.000031
    14     I       0.000003   0.000067   0.000018
 
 Mode:    29      Frequency (cm-1):     1268.4871     Intensity (km/mol):        6.2213
 Index  Atom      ---- Displacements (x/y/z) ----
     1     H      -0.725772   0.305781   0.186231
     2     C       0.021245  -0.134111  -0.012526
     3     C      -0.001842   0.121137   0.013077
     4     C       0.011577  -0.002221  -0.001211
     5     O       0.001108   0.017930   0.003643
     6     H       0.447715  -0.238717  -0.148666
     7     H       0.012399  -0.001703   0.003386
     8     H       0.008202   0.009115   0.012840
     9     H      -0.002779  -0.000180   0.011480
    10     C      -0.000954  -0.000850  -0.007689
    11     H       0.019001  -0.065921  -0.020530
    12     H      -0.130920  -0.093065  -0.001563
    13     I      -0.000022  -0.000116  -0.000025
    14     I      -0.000001   0.000046   0.000012
 
 Mode:    30      Frequency (cm-1):     1378.1536     Intensity (km/mol):        5.5105
 Index  Atom      ---- Displacements (x/y/z) ----
     1     H       0.035115  -0.006149  -0.005717
     2     C      -0.001520   0.004828   0.000957
     3     C      -0.009657   0.004789   0.002394
     4     C      -0.002288   0.002657   0.001270
     5     O      -0.000746  -0.008024  -0.001622
     6     H       0.046582  -0.006965  -0.006483
     7     H       0.677392  -0.169723   0.001561
     8     H       0.419699   0.540808  -0.083190
     9     H      -0.076495  -0.024628   0.078372
    10     C      -0.085454  -0.029260  -0.000133
    11     H       0.016541  -0.061081  -0.010114
    12     H       0.070309   0.056428  -0.001878
    13     I       0.000004   0.000017  -0.000003
    14     I       0.000000  -0.000010   0.000001
 
 Mode:    31      Frequency (cm-1):     1382.2469     Intensity (km/mol):        4.2771
 Index  Atom      ---- Displacements (x/y/z) ----
     1     H       0.048973  -0.007159  -0.011072
     2     C      -0.002585   0.005167   0.001036
     3     C      -0.015810   0.008112   0.003927
     4     C       0.001622   0.000773   0.000565
     5     O      -0.000955  -0.005735  -0.001376
     6     H       0.082236  -0.015946  -0.012419
     7     H       0.379358   0.005289   0.083805
     8     H      -0.319215  -0.278961  -0.054030
     9     H       0.264517  -0.746425   0.083108
    10     C      -0.026959   0.085539  -0.009925
    11     H       0.023765  -0.091521  -0.012821
    12     H       0.056877   0.041650  -0.002777
    13     I      -0.000003  -0.000016  -0.000002
    14     I      -0.000002   0.000002   0.000005
 
 Mode:    32      Frequency (cm-1):     1386.9134     Intensity (km/mol):        8.0497
 Index  Atom      ---- Displacements (x/y/z) ----
     1     H       0.093173   0.029779  -0.015805
     2     C      -0.009933   0.000596   0.001379
     3     C      -0.031955   0.051634   0.015577
     4     C      -0.048237   0.023715   0.017579
     5     O      -0.002730  -0.075799  -0.018043
     6     H       0.272459  -0.069568  -0.044994
     7     H      -0.134418   0.020831  -0.009706
     8     H      -0.011295  -0.033068   0.019120
     9     H      -0.024266   0.099097  -0.019741
    10     C       0.014712  -0.007759  -0.001244
    11     H       0.060289  -0.242042  -0.032058
    12     H       0.684706   0.576518  -0.008661
    13     I       0.000005   0.000140   0.000029
    14     I       0.000000  -0.000064  -0.000015
 
 Mode:    33      Frequency (cm-1):     1402.5347     Intensity (km/mol):       53.5196
 Index  Atom      ---- Displacements (x/y/z) ----
     1     H       0.383586  -0.106383  -0.091535
     2     C       0.004429   0.043186   0.003426
     3     C      -0.139243   0.025629   0.028534
     4     C       0.078333  -0.019682  -0.019243
     5     O      -0.006171   0.032531   0.008975
     6     H       0.449996  -0.071031  -0.049659
     7     H      -0.083933   0.009495  -0.007344
     8     H       0.015864   0.001905   0.014618
     9     H      -0.027378   0.090959  -0.014834
    10     C       0.008641  -0.009414  -0.002774
    11     H       0.184778  -0.626490  -0.093017
    12     H      -0.251324  -0.276595  -0.017489
    13     I      -0.000044  -0.000158  -0.000029
    14     I       0.000012   0.000070   0.000016
 
 Mode:    34      Frequency (cm-1):     1541.3213     Intensity (km/mol):      163.5131
 Index  Atom      ---- Displacements (x/y/z) ----
     1     H      -0.340704  -0.022939   0.074166
     2     C      -0.217053   0.181832   0.033699
     3     C       0.259207  -0.147584  -0.072418
     4     C      -0.122725  -0.098246  -0.000140
     5     O       0.048495   0.080081   0.009805
     6     H       0.629945   0.002220   0.002625
     7     H      -0.012565  -0.003036  -0.013448
     8     H      -0.000055   0.000803  -0.008843
     9     H      -0.001255   0.013037  -0.010789
    10     C      -0.000051   0.000790   0.017997
    11     H      -0.051959  -0.515115   0.041348
    12     H      -0.032851  -0.007627   0.004827
    13     I      -0.000020   0.000199   0.000047
    14     I       0.000018  -0.000085  -0.000024
 
 Mode:    35      Frequency (cm-1):     1683.1699     Intensity (km/mol):      242.1103
 Index  Atom      ---- Displacements (x/y/z) ----
     1     H       0.394205   0.030336  -0.064420
     2     C       0.093313  -0.098250  -0.029952
     3     C      -0.105265   0.134406   0.043081
     4     C      -0.252132  -0.497085  -0.064368
     5     O       0.156210   0.322847   0.045327
     6     H      -0.221040  -0.048911   0.020580
     7     H       0.009481  -0.001419   0.006646
     8     H       0.002175   0.005943   0.008697
     9     H      -0.000376  -0.003019   0.015576
    10     C      -0.001402   0.000411  -0.002138
    11     H       0.027681   0.244690   0.007982
    12     H       0.461239   0.106409  -0.082622
    13     I       0.000072   0.000372   0.000070
    14     I      -0.000004  -0.000169  -0.000040
 
 Mode:    36      Frequency (cm-1):     2844.1395     Intensity (km/mol):      191.0151
 Index  Atom      ---- Displacements (x/y/z) ----
     1     H       0.002578   0.044296   0.006469
     2     C      -0.000185  -0.000165   0.000024
     3     C       0.000710  -0.002525  -0.000478
     4     C      -0.050784   0.059891   0.024750
     5     O       0.001833   0.002631   0.000256
     6     H       0.000974  -0.005924  -0.000827
     7     H      -0.000321  -0.000494   0.000191
     8     H      -0.000498   0.000315  -0.000029
     9     H       0.000723   0.000338  -0.000125
    10     C       0.000035  -0.000037  -0.000065
    11     H      -0.001691   0.002101   0.000730
    12     H       0.567682  -0.761342  -0.298734
    13     I      -0.000006  -0.000020  -0.000003
    14     I       0.000002   0.000007   0.000001
 
 Mode:    37      Frequency (cm-1):     3066.0745     Intensity (km/mol):        0.1224
 Index  Atom      ---- Displacements (x/y/z) ----
     1     H       0.001124   0.003770   0.000411
     2     C       0.001398  -0.001238  -0.000194
     3     C      -0.000097  -0.000196  -0.000081
     4     C      -0.000252  -0.000105   0.000016
     5     O       0.000074   0.000103   0.000018
     6     H       0.004557   0.018788   0.000053
     7     H       0.108234   0.557243  -0.102086
     8     H       0.453660  -0.392742   0.002947
     9     H      -0.518813  -0.186908  -0.046923
    10     C      -0.003669   0.001868   0.012445
    11     H      -0.019588  -0.005258   0.000760
    12     H       0.000685  -0.000617  -0.000278
    13     I       0.000001   0.000001  -0.000003
    14     I       0.000000   0.000000   0.000000
 
 Mode:    38      Frequency (cm-1):     3111.2354     Intensity (km/mol):       13.3923
 Index  Atom      ---- Displacements (x/y/z) ----
     1     H      -0.219007  -0.809583  -0.088744
     2     C      -0.028440   0.015379   0.002053
     3     C       0.019507   0.068018   0.007281
     4     C      -0.003284   0.002885   0.001357
     5     O       0.000038  -0.000536  -0.000168
     6     H      -0.074849  -0.298764  -0.007203
     7     H       0.002207   0.012020  -0.001742
     8     H       0.006801  -0.006136   0.000031
     9     H      -0.010553  -0.004007  -0.000690
    10     C       0.000220  -0.000196   0.000331
    11     H       0.415802   0.113599  -0.020125
    12     H       0.021580  -0.023648  -0.010074
    13     I       0.000002  -0.000002  -0.000001
    14     I       0.000000   0.000002   0.000000
 
 Mode:    39      Frequency (cm-1):     3121.8828     Intensity (km/mol):       10.1964
 Index  Atom      ---- Displacements (x/y/z) ----
     1     H       0.131379   0.487987   0.053930
     2     C      -0.041090   0.041861   0.004658
     3     C      -0.007378  -0.045891  -0.006034
     4     C       0.003223  -0.000536  -0.000782
     5     O      -0.000140  -0.000363  -0.000028
     6     H      -0.148535  -0.599014  -0.014780
     7     H       0.003134   0.015094  -0.002973
     8     H       0.008597  -0.007366  -0.000221
     9     H      -0.012233  -0.004596  -0.000810
    10     C       0.000103  -0.000300   0.000937
    11     H       0.573589   0.155057  -0.027294
    12     H      -0.017072   0.015768   0.007073
    13     I       0.000008   0.000008   0.000001
    14     I      -0.000001  -0.000002  -0.000000
 
 Mode:    40      Frequency (cm-1):     3216.0477     Intensity (km/mol):        0.3618
 Index  Atom      ---- Displacements (x/y/z) ----
     1     H       0.020513   0.081840   0.009534
     2     C      -0.068147  -0.072452   0.001271
     3     C      -0.002222  -0.007774  -0.000842
     4     C       0.000236  -0.000245  -0.000095
     5     O       0.000070   0.000281   0.000038
     6     H       0.157000   0.706807   0.020141
     7     H      -0.003338  -0.018439   0.003089
     8     H      -0.003807   0.003928   0.000099
     9     H      -0.023325  -0.008252  -0.002126
    10     C       0.002746   0.002125  -0.000092
    11     H       0.655032   0.164234  -0.033733
    12     H      -0.000036  -0.001080  -0.000409
    13     I      -0.000006  -0.000004  -0.000000
    14     I      -0.000000  -0.000001  -0.000000
 
 Mode:    41      Frequency (cm-1):     3242.1190     Intensity (km/mol):        2.1992
 Index  Atom      ---- Displacements (x/y/z) ----
     1     H       0.000163   0.000852   0.000185
     2     C      -0.000003  -0.000299  -0.000077
     3     C      -0.000080   0.000045  -0.000026
     4     C      -0.000059  -0.000020   0.000012
     5     O       0.000014   0.000018  -0.000000
     6     H       0.001698   0.005184  -0.000777
     7     H       0.128752   0.587863  -0.116763
     8     H      -0.578888   0.492635   0.007930
     9     H      -0.171417  -0.081993  -0.017014
    10     C       0.052283  -0.084051   0.010717
    11     H      -0.001389  -0.000809  -0.000087
    12     H       0.000036   0.000037   0.000063
    13     I       0.000000  -0.000000  -0.000001
    14     I      -0.000000   0.000000   0.000000
 
 Mode:    42      Frequency (cm-1):     3253.0245     Intensity (km/mol):        1.2634
 Index  Atom      ---- Displacements (x/y/z) ----
     1     H      -0.000380  -0.002065  -0.000150
     2     C       0.002058   0.002259  -0.000040
     3     C       0.000028   0.000151   0.000002
     4     C      -0.000051   0.000010  -0.000007
     5     O       0.000007  -0.000005  -0.000010
     6     H      -0.005177  -0.022895   0.000213
     7     H      -0.089314  -0.515349   0.102791
     8     H      -0.161852   0.161538   0.001461
     9     H      -0.756833  -0.270480  -0.081379
    10     C       0.084829   0.052554  -0.001841
    11     H      -0.021110  -0.005512  -0.000114
    12     H       0.000062  -0.000113   0.000084
    13     I       0.000002   0.000003  -0.000002
    14     I       0.000000   0.000000  -0.000000

PES point character: Geometry corresponds to a transition state.
                     (Hint: Very small negative frequencies do not count towards being a
                     transition state, as they usually indicate noise on a very flat PES. See
                     the PESPointCharacter%NegativeFrequenciesTolerance keyword documentation.)




 ============================
 Statistical Thermal Analysis  ***  ideal gas assumed  ***
 ============================
  
 Pressure:                  1.000000 atm.
 Temperature:             298.150000 K



 Moments of Inertia [amu*bohr^2] and principal axis
 ==================================================

         932.3519       7494.2265       8181.7105
 ------------------------------------------------
           0.2158         -0.7733         -0.5962
           0.9691          0.0949          0.2276
           0.1194          0.6269         -0.7699


 The rotational contribution to the molecular entropy includes
 a term, dependent on the symmetry number sigma. The results 
 reported below were computed using sigma = 1, determined from
 the point group symmetry of the input geometry (NOSYM). 
 If this is not the correct symmetry, try symmetrizing the molecule before
 running the calculation (note: linear molecules should be aligned along one
 of the Cartesian axes).
 Contributions from frequencies below 20 1/cm are not included in vibrational sums.
 Their contributions, if any, are reported separately.


     Temp                                                        Transl      Rotat     Vibrat     Total
     ----                                                        ------      -----     ------     -----

     298.15   Entropy (cal/mol-K):                               43.230     32.414     36.318    111.962
              Nuclear Internal Energy (kcal/mol):                 0.889      0.889     62.960     64.738
              Constant Volume Heat Capacity (cal/mol-K):          2.981      2.981     25.467     31.429
          (c) Constant Volume Heat Capacity (cal/mol-K):          2.981      2.981     22.838     28.800

 Contributions from frequencies below 20 1/cm
 Frequency (1/cm):                                   13.727    18.688
 Entropy (cal/mol-K):                                 7.382     6.769
 Nuclear Internal Energy (kcal/mol):                  0.593     0.593
 Constant Volume Heat Capacity (cal/mol-K):           1.986     1.986

       Summary of energy terms
                                                   hartree              eV         kcal/mol           kJ/mol
                                      --------------------     -----------       ----------      -----------
      Energy from Engine:               -2.415210810737014        -65.7212         -1515.57         -6341.14
      Nuclear Internal Energy:           0.103166075746429          2.8073            64.74           270.86
  (c) Nuclear Internal Energy:           0.101830828256742          2.7710            63.90           267.36
      Internal Energy U:                -2.312044734990585        -62.9139         -1450.83         -6070.27
      pV/n = RT:                         0.000944186013486          0.0257             0.59             2.48
      Enthalpy H:                       -2.311100548977099        -62.8882         -1450.24         -6067.79
      -T*S:                             -0.053196713106139         -1.4476           -33.38          -139.67
  (c) -T*S:                             -0.054732061235239         -1.4893           -34.34          -143.70
      Gibbs free energy:                -2.364297262083238        -64.3358         -1483.62         -6207.46
 
 
 
  (c) The properties marked with this symbol have been corrected using 'low vibrational frequency free rotor
      interpolation corrections'. For those terms all positive frequencies are used (also ones below 20 1/cm),
      but the contribution to the partition function of small vibrational frequencies is modified as described
      in the following paper:
      S. Grimme, 'Supramolecular Binding Thermodynamics by Dispersion-Corrected Density Functional Theory'
      (Chem. Eur. J. 2012, 18, 9955-9964)
      Configuration: Dampener Frequency          :   100.000 1/cm
                     Dampener Alpha              :     4.000
                     Averaging Moment of Inertia : 1.000E-44 kg m2

--------------
Atomic charges
--------------
  Index   Atom    Charge
      1      H   -0.2218
      2      C    0.4865
      3      C    0.1802
      4      C    0.6484
      5      O   -0.5284
      6      H   -0.1555
      7      H   -0.1607
      8      H   -0.1659
      9      H   -0.1351
     10      C    0.5261
     11      H   -0.2047
     12      H   -0.2589
     13      I    0.0392
     14      I   -0.0492


Dipole moment vector    (Debye):    -2.73229717   -2.76344429    0.57931649
              magnitude (Debye):     3.92908129


Final PES point is a transition state. Transition state search successful!


AMS application finished. Exiting.
NORMAL TERMINATION
     Total cpu time:   29222.67
  Total system time:     275.02
 Total elapsed time:   59291.55
 WARNING: total elapsed time is much higher than the (CPU+system) time. 
 Make sure the machine is not oversubscribed and has enough memory, SCM_TMPDIR p
 oints to a fast file system, and the network is fast enough.
