

 Parallel Execution: Process Information
 ==============================================================================
 Rank   Node Name                              NodeID   MyNodeRank  NodeMaster
    0   DESKTOP-1M8FOJT                           0          0          0
    1   DESKTOP-1M8FOJT                           0          1         -1
    2   DESKTOP-1M8FOJT                           0          2         -1
    3   DESKTOP-1M8FOJT                           0          3         -1
 ==============================================================================


May use up to 4096MB of RAM as shared memory on node 0

 *******************************************************************************
 *                                                                             *
 *  --------------------------------                                           *
 *   Amsterdam Modeling Suite (AMS)              2021.106                      *
 *  --------------------------------                                           *
 *                                               r99350 2021-12-03             *
 *                                                                             *
 *                                                                             *
 *                              =================                              *
 *                              |               |                              *
 *                              |     A M S     |                              *
 *                              |               |                              *
 *                              =================                              *
 *                                                                             *
 *                                                                             *
 *   Online information and documentation:  https://www.scm.com/support/       *
 *   E-mail:  support@scm.com   info@scm.com                                   *
 *                                                                             *
 *   Scientific publications using AMS results must be properly referenced     *
 *   See the User Manuals (or the web site) for recommended citations          *
 *   The terms and conditions of the End User License Agreement apply to       *
 *   the use of AMS, https://www.scm.com/license-terms/                        *
 *                                                                             *
 *********************  x86_64_windows_amdZen / intelmpi  **********************
 
 Licensed to: Mr. Yuman Hordijk / SCM / Amsterdam / Netherlands 2021-10-04 09:39:26
 SCM User ID: u24430
  
 AMS 2021.106  RunTime: Jan26-2022 14:54:06  ShM Nodes: 1  Procs: 4

 AMS jobname: ams
 AMS jobid  : 939434628

 Start   directory: D:/Users/Yuman/Desktop/MasterProject/manual_calculations/substrate_conformers_Cl/tmp..10776.0.noindex/
 Results directory: D:/Users/Yuman/Desktop/MasterProject/manual_calculations/substrate_conformers_Cl/4.results/
 Scratch directory: Z:/SCMTMP/amstmp_ams_kid0.939434628/


 Communication costs MPI_COMM_WORLD:      1.484 usec per message,   0.0076 usec per 8-byte item
 Communication costs for intra-node:      1.994 usec per message,   0.0073 usec per 8-byte item

 RNG seed: -1616782206 -1031423013 -700580589 1846779963 1964320046 451524989 89065400 -382011449



                      ************************************************************************
                      *  ADF 2021.106  RunTime: Jan26-2022 14:54:06  ShM Nodes: 1  Procs: 4  *
                      ************************************************************************
  
       ***************************
       *  GEOMETRY OPTIMIZATION  *
       ***************************

Optimization Method                    Quasi Newton
Optimization Coordinates               Delocalized Coordinates
Optimize lattice                       F
 
 ------------------------------------------------------
 Convergence criteria (Hartree,Angstrom)
 ------------------------------------------------------
 Maximum gradient               0.001000000000
 Maximum rms gradient           0.000666666667
 Maximum step allowed           0.010000000000
 Maximum rms step allowed       0.006666666667
 Maximum energy change allowe   0.000080000000
 Maximum stress energy allowe   0.000500000000
 
Initial model Hessian                  Automatic Hessian
 
------------------------------------
Quasi-Newton Optimizer Parameters
------------------------------------
Hessian Update Method                  BFGS
Maximum number of steps                  250
First GDIIS cycle                          0
Maximum GDIIS vectors                      0
Trust radius (bohr)                        0.200000
Trust radius varies                        T
Constraints converged at all steps         T
Use projector                              T
 
 Rigid motions settings for: old optimizer
 Atomic rotations (x,y,z):     T T T
 Atomic translations (x,y,z):  T T T
 Tolerance:                   1.000000000000000E-006
 
--------
Geometry
--------
Formula: C3H3ClO
Atoms
  Index Symbol   x (angstrom)   y (angstrom)   z (angstrom)
      1      C    -1.59928865    -2.80170724    -0.14571870
      2      C    -1.67726107    -1.47665424     0.00198160
      3      C    -0.52643324    -0.56626402     0.05816785
      4      O    -0.63353418     0.62479493     0.19783390
      5      H    -2.65349905    -1.01099026     0.08908417
      6      H     0.45943812    -1.06563530    -0.03745521
      7     Cl    -0.14451391    -3.67553802    -0.30202859
      8      H    -2.49049003    -3.41828126    -0.18317096
 
Total System Charge             0.00000
Bonding info available!
 
 
----------------
ADF Engine Input
----------------
 
 Basis
 Type TZ2P
 Core None
 End
 XC
 GGA OLYP
 End
 

 Title: *** (NO TITLE) ***

 Using automatic Hessian for delocalized coordinates.
 *** GOStep1 ***

 Energy gradients wrt nuclear displacements
 ==========================================

     Atom      Cartesian (a.u./angstrom)
                 X         Y         Z
 ----------------------------------------
     1 C     0.016848 -0.002882  0.000273
     2 C    -0.002046 -0.010257 -0.000886
     3 C    -0.002035  0.039725  0.003971
     4 O     0.001197 -0.052568 -0.005824
     5 H     0.005054  0.002301 -0.000128
     6 H    -0.005285 -0.003326 -0.000057
     7 Cl   -0.013958  0.019541  0.002200
     8 H     0.000225  0.007467  0.000452
 ----------------------------------------
 Mulliken charges used for AMS results%charges...
 
----------------------------------------------------------------------
Geometry Convergence after Step   1       (Hartree/Angstrom,Angstrom)
----------------------------------------------------------------------
current energy                               -1.62642158 Hartree
energy change                      -1.62642158     0.00008000    F
constrained gradient max            0.05249271     0.00100000    F
constrained gradient rms            0.01514648     0.00066667    F
gradient max                        0.05249271
gradient rms                        0.01514648
cart. step max                      0.10771919     0.01000000    F
cart. step rms                      0.03212927     0.00666667    F
 
 
--------
Geometry
--------
Formula: C3H3ClO
Atoms
  Index Symbol   x (angstrom)   y (angstrom)   z (angstrom)
      1      C    -1.59704164    -2.81845259    -0.16139560
      2      C    -1.65250280    -1.48152574    -0.00428621
      3      C    -0.52010433    -0.53648296     0.06452106
      4      O    -0.65695838     0.67520786     0.21141823
      5      H    -2.63665826    -1.02963562     0.09076582
      6      H     0.48520729    -0.99760156    -0.04254666
      7     Cl    -0.18447779    -3.78325721    -0.29903653
      8      H    -2.50304610    -3.41852759    -0.18074604
 
Total System Charge             0.00000
Bonding info available!
 
 *** GOStep2 ***

 Energy gradients wrt nuclear displacements
 ==========================================

     Atom      Cartesian (a.u./angstrom)
                 X         Y         Z
 ----------------------------------------
     1 C     0.010200 -0.011171 -0.005952
     2 C    -0.006807 -0.001242 -0.000425
     3 C     0.002939 -0.010152  0.002002
     4 O    -0.001050  0.018149  0.000982
     5 H     0.003144  0.002186  0.000999
     6 H    -0.001258 -0.002875 -0.001393
     7 Cl   -0.006927  0.003529  0.001861
     8 H    -0.000239  0.001576  0.001927
 ----------------------------------------
 Mulliken charges used for AMS results%charges...

 dE(predicted):    -0.17179E-02, dE(actual):    -0.94994E-03, Trust radius:    0.200000, all in a.u.
 
----------------------------------------------------------------------
Geometry Convergence after Step   2       (Hartree/Angstrom,Angstrom)
----------------------------------------------------------------------
current energy                               -1.62737152 Hartree
energy change                      -0.00094994     0.00008000    F
constrained gradient max            0.01819767     0.00100000    F
constrained gradient rms            0.00597487     0.00066667    F
gradient max                        0.01819767
gradient rms                        0.00597487
cart. step max                      0.03564251     0.01000000    F
cart. step rms                      0.01327216     0.00666667    F
 
 
--------
Geometry
--------
Formula: C3H3ClO
Atoms
  Index Symbol   x (angstrom)   y (angstrom)   z (angstrom)
      1      C    -1.59848144    -2.82062241    -0.12575309
      2      C    -1.64836985    -1.48192244     0.00489638
      3      C    -0.51803572    -0.53390366     0.04656867
      4      O    -0.66238526     0.67194770     0.19918851
      5      H    -2.63693528    -1.03333856     0.08105255
      6      H     0.49465252    -0.98808015    -0.01185850
      7     Cl    -0.18960034    -3.78790663    -0.33095794
      8      H    -2.50642664    -3.41644927    -0.18444252
 
Total System Charge             0.00000
Bonding info available!
 
 *** GOStep3 ***

 Energy gradients wrt nuclear displacements
 ==========================================

     Atom      Cartesian (a.u./angstrom)
                 X         Y         Z
 ----------------------------------------
     1 C     0.007170 -0.007548  0.009213
     2 C    -0.003822  0.000679  0.003308
     3 C     0.001008 -0.001420 -0.013968
     4 O     0.000009  0.005295  0.005123
     5 H     0.001026  0.001275 -0.001289
     6 H    -0.000043 -0.001103  0.004010
     7 Cl   -0.004424  0.001617 -0.002363
     8 H    -0.000924  0.001204 -0.004034
 ----------------------------------------
 Mulliken charges used for AMS results%charges...

 dE(predicted):    -0.25235E-03, dE(actual):     0.10587E-03, Trust radius:    0.036011, all in a.u.
 
----------------------------------------------------------------------
Geometry Convergence after Step   3       (Hartree/Angstrom,Angstrom)
----------------------------------------------------------------------
current energy                               -1.62726565 Hartree
energy change                       0.00010587     0.00008000    F
constrained gradient max            0.01384213     0.00100000    F
constrained gradient rms            0.00473994     0.00066667    F
gradient max                        0.01384213
gradient rms                        0.00473994
cart. step max                      0.00655668     0.01000000    T
cart. step rms                      0.00322342     0.00666667    T
 
 
--------
Geometry
--------
Formula: C3H3ClO
Atoms
  Index Symbol   x (angstrom)   y (angstrom)   z (angstrom)
      1      C    -1.60090438    -2.81730517    -0.13188978
      2      C    -1.64907577    -1.48114985     0.00421182
      3      C    -0.51747431    -0.53670688     0.05312535
      4      O    -0.66161009     0.66677005     0.19835382
      5      H    -2.63852773    -1.03399464     0.08263342
      6      H     0.49547128    -0.98843023    -0.01819668
      7     Cl    -0.18643363    -3.78298304    -0.32521967
      8      H    -2.50702738    -3.41647565    -0.18432422
 
Total System Charge             0.00000
Bonding info available!
 
 *** GOStep4 ***

 Energy gradients wrt nuclear displacements
 ==========================================

     Atom      Cartesian (a.u./angstrom)
                 X         Y         Z
 ----------------------------------------
     1 C     0.004936 -0.003144  0.007033
     2 C    -0.001899 -0.000047  0.001672
     3 C    -0.000164  0.003788 -0.007505
     4 O     0.000696 -0.003571  0.002144
     5 H     0.000295  0.000740 -0.000971
     6 H     0.000092 -0.000094  0.002281
     7 Cl   -0.002921  0.001297 -0.001843
     8 H    -0.001035  0.001031 -0.002811
 ----------------------------------------
 Mulliken charges used for AMS results%charges...

 dE(predicted):    -0.21397E-03, dE(actual):    -0.23210E-03, Trust radius:    0.072022, all in a.u.
 
----------------------------------------------------------------------
Geometry Convergence after Step   4       (Hartree/Angstrom,Angstrom)
----------------------------------------------------------------------
current energy                               -1.62749775 Hartree
energy change                      -0.00023210     0.00008000    F
constrained gradient max            0.00740570     0.00100000    F
constrained gradient rms            0.00294843     0.00066667    F
gradient max                        0.00740570
gradient rms                        0.00294843
cart. step max                      0.01984484     0.01000000    F
cart. step rms                      0.00687800     0.00666667    F
 
 
--------
Geometry
--------
Formula: C3H3ClO
Atoms
  Index Symbol   x (angstrom)   y (angstrom)   z (angstrom)
      1      C    -1.60444424    -2.81338572    -0.15173462
      2      C    -1.65084595    -1.47961546    -0.00258116
      3      C    -0.51752387    -0.53871157     0.05666742
      4      O    -0.65808302     0.66579981     0.20706397
      5      H    -2.64001575    -1.03400003     0.08824403
      6      H     0.49334622    -0.99263047    -0.03050891
      7     Cl    -0.18159267    -3.77791768    -0.30893917
      8      H    -2.50642273    -3.41981429    -0.17951751
 
Total System Charge             0.00000
Bonding info available!
 
 *** GOStep5 ***

 Energy gradients wrt nuclear displacements
 ==========================================

     Atom      Cartesian (a.u./angstrom)
                 X         Y         Z
 ----------------------------------------
     1 C     0.001464 -0.000054 -0.000793
     2 C    -0.000261 -0.001382  0.001005
     3 C    -0.000127  0.000189 -0.003224
     4 O     0.000295  0.000139  0.000994
     5 H     0.000177  0.000264  0.000333
     6 H     0.000238 -0.000503  0.000959
     7 Cl   -0.001186  0.000830  0.000424
     8 H    -0.000600  0.000517  0.000300
 ----------------------------------------
 Mulliken charges used for AMS results%charges...

 dE(predicted):    -0.16926E-03, dE(actual):    -0.13089E-03, Trust radius:    0.144044, all in a.u.
 
----------------------------------------------------------------------
Geometry Convergence after Step   5       (Hartree/Angstrom,Angstrom)
----------------------------------------------------------------------
current energy                               -1.62762865 Hartree
energy change                      -0.00013089     0.00008000    F
constrained gradient max            0.00315338     0.00100000    F
constrained gradient rms            0.00094310     0.00066667    F
gradient max                        0.00315338
gradient rms                        0.00094310
cart. step max                      0.01712543     0.01000000    F
cart. step rms                      0.00535170     0.00666667    T
 
 
--------
Geometry
--------
Formula: C3H3ClO
Atoms
  Index Symbol   x (angstrom)   y (angstrom)   z (angstrom)
      1      C    -1.60530949    -2.81444539    -0.14348854
      2      C    -1.65015640    -1.47981915     0.00477596
      3      C    -0.51651711    -0.53984562     0.07379285
      4      O    -0.65826164     0.66896899     0.19627415
      5      H    -2.64002417    -1.03349288     0.08458261
      6      H     0.49318137    -0.99121265    -0.03696664
      7     Cl    -0.18198677    -3.77961785    -0.31267124
      8      H    -2.50650780    -3.42081086    -0.18760510
 
Total System Charge             0.00000
Bonding info available!
 
 *** GOStep6 ***

 Energy gradients wrt nuclear displacements
 ==========================================

     Atom      Cartesian (a.u./angstrom)
                 X         Y         Z
 ----------------------------------------
     1 C    -0.000280 -0.000787  0.002318
     2 C     0.000016  0.000294 -0.003112
     3 C     0.000817 -0.003816  0.008722
     4 O    -0.000145  0.004036 -0.002653
     5 H     0.000056  0.000215 -0.000528
     6 H     0.000067 -0.000139 -0.003314
     7 Cl   -0.000243  0.000051 -0.001089
     8 H    -0.000289  0.000146 -0.000344
 ----------------------------------------
 Mulliken charges used for AMS results%charges...

 dE(predicted):    -0.39756E-04, dE(actual):     0.94412E-04, Trust radius:    0.020000, all in a.u.
 
----------------------------------------------------------------------
Geometry Convergence after Step   6       (Hartree/Angstrom,Angstrom)
----------------------------------------------------------------------
current energy                               -1.62753423 Hartree
energy change                       0.00009441     0.00008000    F
constrained gradient max            0.00874395     0.00100000    F
constrained gradient rms            0.00244047     0.00066667    F
gradient max                        0.00874395
gradient rms                        0.00244047
cart. step max                      0.00536680     0.01000000    T
cart. step rms                      0.00165469     0.00666667    T
 
 
--------
Geometry
--------
Formula: C3H3ClO
Atoms
  Index Symbol   x (angstrom)   y (angstrom)   z (angstrom)
      1      C    -1.60518063    -2.81392836    -0.14535424
      2      C    -1.65027695    -1.47947301     0.00259768
      3      C    -0.51677239    -0.53940063     0.06842605
      4      O    -0.65839326     0.66712191     0.20013582
      5      H    -2.64008100    -1.03347456     0.08518368
      6      H     0.49353078    -0.99077698    -0.03549212
      7     Cl    -0.18205685    -3.77971668    -0.31152793
      8      H    -2.50635170    -3.42062711    -0.18527487
 
Total System Charge             0.00000
Bonding info available!
 
 *** GOStep7 ***

 Energy gradients wrt nuclear displacements
 ==========================================

     Atom      Cartesian (a.u./angstrom)
                 X         Y         Z
 ----------------------------------------
     1 C    -0.000015 -0.000394  0.001643
     2 C     0.000099  0.000384 -0.001777
     3 C     0.000235 -0.000720  0.005117
     4 O     0.000242  0.000280 -0.001752
     5 H     0.000020  0.000194 -0.000316
     6 H     0.000042  0.000032 -0.001947
     7 Cl   -0.000331  0.000032 -0.000726
     8 H    -0.000293  0.000192 -0.000242
 ----------------------------------------
 Mulliken charges used for AMS results%charges...

 dE(predicted):    -0.55303E-04, dE(actual):    -0.67499E-04, Trust radius:    0.040000, all in a.u.
 
----------------------------------------------------------------------
Geometry Convergence after Step   7       (Hartree/Angstrom,Angstrom)
----------------------------------------------------------------------
current energy                               -1.62760173 Hartree
energy change                      -0.00006750     0.00008000    T
constrained gradient max            0.00515707     0.00100000    F
constrained gradient rms            0.00129907     0.00066667    F
gradient max                        0.00515707
gradient rms                        0.00129907
cart. step max                      0.00745792     0.01000000    T
cart. step rms                      0.00252871     0.00666667    T
 
 
--------
Geometry
--------
Formula: C3H3ClO
Atoms
  Index Symbol   x (angstrom)   y (angstrom)   z (angstrom)
      1      C    -1.60513752    -2.81331919    -0.14962301
      2      C    -1.65070934    -1.47909999    -0.00112557
      3      C    -0.51715325    -0.53875795     0.06096813
      4      O    -0.65801377     0.66631938     0.20623171
      5      H    -2.64016587    -1.03344960     0.08665342
      6      H     0.49333490    -0.99162125    -0.03399978
      7     Cl    -0.18176470    -3.77940285    -0.30885698
      8      H    -2.50597246    -3.42094398    -0.18155387
 
Total System Charge             0.00000
Bonding info available!
 
 *** GOStep8 ***

 Energy gradients wrt nuclear displacements
 ==========================================

     Atom      Cartesian (a.u./angstrom)
                 X         Y         Z
 ----------------------------------------
     1 C     0.000228 -0.000058  0.000019
     2 C    -0.000051 -0.000178  0.000022
     3 C     0.000112 -0.000191 -0.000106
     4 O     0.000244  0.000180 -0.000025
     5 H     0.000110  0.000189  0.000105
     6 H     0.000093 -0.000259 -0.000133
     7 Cl   -0.000480  0.000095 -0.000015
     8 H    -0.000256  0.000222  0.000132
 ----------------------------------------
 Mulliken charges used for AMS results%charges...

 dE(predicted):    -0.28273E-04, dE(actual):    -0.30933E-04, Trust radius:    0.040000, all in a.u.
 
---------------------------------------------------------
Geometry Convergence after Step   8       ** CONVERGED **
---------------------------------------------------------
current energy                               -1.62763267 Hartree
energy change                      -0.00003093     0.00008000    T
constrained gradient max            0.00035875     0.00100000    T
constrained gradient rms            0.00012706     0.00066667    T
gradient max                        0.00035875
gradient rms                        0.00012706
cart. step max                      0.00043804     0.01000000    T
cart. step rms                      0.00014940     0.00666667    T
 
Geometry optimization converged

Optimized geometry:
 
--------
Geometry
--------
Formula: C3H3ClO
Atoms
  Index Symbol   x (angstrom)   y (angstrom)   z (angstrom)
      1      C    -1.60513752    -2.81331919    -0.14962301
      2      C    -1.65070934    -1.47909999    -0.00112557
      3      C    -0.51715325    -0.53875795     0.06096813
      4      O    -0.65801377     0.66631938     0.20623171
      5      H    -2.64016587    -1.03344960     0.08665342
      6      H     0.49333490    -0.99162125    -0.03399978
      7     Cl    -0.18176470    -3.77940285    -0.30885698
      8      H    -2.50597246    -3.42094398    -0.18155387
 
Total System Charge             0.00000
Bonding info available!
 
Performing a single point calculation on the final geometry ...

 *** adf ***



 ===========================
 A T T A C H E D   F I L E S
 ===========================
  
 RestartZ:/SCMTMP/amstmp_ams_kid0.939434628/GOStep8.rkf*** GOStep8 ***



 ===============================
 M O D E L   P A R A M E T E R S
 ===============================
  
 DENSITY FUNCTIONAL POTENTIAL (scf)
    LDA:                               Exchange only                           == Not Default ==
    Gradient Corrections:              OPTX LYP                                == Not Default ==

 SPIN  (restricted / unrestr.)
    Molecule:                          Restricted                               
    Fragments:                         Restricted                               

 OTHER ASPECTS
    Relativistic Corrections:          scalar (ZORA,MAPA)                       

    Nuclear Charge Density Model:      Point Charge Nuclei                      
    Core Treatment:                    Frozen Orbital(s)                        

    Hyperfine or Zeeman Interaction:   ---                                      



 ===============
 G E O M E T R Y  ***  3D  Molecule  ***
 ===============
  

 ATOMS
 =====                            X Y Z                    CHARGE
                                (Angstrom)             Nucl     +Core       At.Mass
                       --------------------------    ----------------       -------
    1  C              -1.6051   -2.8133   -0.1496      6.00      6.00       12.0000
    2  C              -1.6507   -1.4791   -0.0011      6.00      6.00       12.0000
    3  C              -0.5172   -0.5388    0.0610      6.00      6.00       12.0000
    4  O              -0.6580    0.6663    0.2062      8.00      8.00       15.9949
    5  H              -2.6402   -1.0334    0.0867      1.00      1.00        1.0078
    6  H               0.4933   -0.9916   -0.0340      1.00      1.00        1.0078
    7  Cl             -0.1818   -3.7794   -0.3089     17.00     17.00       34.9689
    8  H              -2.5060   -3.4209   -0.1816      1.00      1.00        1.0078


 FRAGMENTS
 =========                                     Atoms in this Fragment     Cart. coord.s (Angstrom)
                                               -------------------------------------------------------
    1  C                                                 1  C           -1.6051   -2.8133   -0.1496
    2  C                                                 2  C           -1.6507   -1.4791   -0.0011
    3  C                                                 3  C           -0.5172   -0.5388    0.0610
    4  O                                                 4  O           -0.6580    0.6663    0.2062
    5  H                                                 5  H           -2.6402   -1.0334    0.0867
    6  H                                                 6  H            0.4933   -0.9916   -0.0340
    7  H                                                 8  H           -2.5060   -3.4209   -0.1816
    8  Cl                                                7  Cl          -0.1818   -3.7794   -0.3089


 Interatomic Distance Matrix (Angstrom)
 --------------------------------------

   1)     0.000
   2)     1.343   0.000
   3)     2.530   1.474   0.000
   4)     3.624   2.373   1.222   0.000
   5)     2.072   1.089   2.180   2.614   0.000
   6)     2.781   2.199   1.111   2.033   3.136   0.000
   7)     1.728   2.747   3.279   4.501   3.707   2.881   0.000
   8)     1.087   2.130   3.510   4.502   2.406   3.863   2.355   0.000

 Min. Distance =    1.0871
 Max. Distance =    4.5023



 =====================================
 S Y M M E T R Y ,   E L E C T R O N S
 =====================================
  
 Symmetry: NOSYM

 Irreducible Representations, including subspecies
 -------------------------------------------------
 A


 Configuration of Valence Electrons
 ==================================
 ( determined in the SCF procedure )

 Total:   46

 Net Charge: 0 (Nuclei minus Electrons)

 Aufbau principle for MO occupations will be applied through SCF cycle no.     150
 Thereafter, the program will assign electrons to MOs that are spatially
 similar to the occupied MOs in a "reference" cycle ("KeepOrbitals").
 The reference cycle is always the PREVIOUS cycle: it will evolve with
 the SCF procedure.
1
 ***************************************************************************************************



                                      ****************************************
                                      *  B U I L D : (Fragments, Functions)  *
                                      ****************************************
  



 =======
 S F O s  ***  (Symmetrized Fragment Orbitals)  ***
 =======
  
 SFOs are linear combinations of (valence) Fragment Orbitals (FOs), such that the SFOs transform as the
 irreducible representations of the (molecular) symmetry group. Each SFO is therefore characterized by
 an irrep of the molecule and by a few (or only one) generating FOs.
 The SFOs constitute a symmetry-adapted basis for the Fock matrix. The MO eigenvector coefficients in
 this basis provide a direct interpretation of the MOs in terms of Frontier Orbital Theory.

 The SFOs are combined with auxiliary Core Functions (CFs) to ensure orthogonalization on the (frozen)
 Core Orbitals (COs). The Core-orthogonalized SFOs (CSFOs) constitute the true Fock basis.

 The FOs, and hence also the (C)SFOs are combinations of the elementary basis functions (BAS). The basis
 functions that participate in the description of the SFOs depend on the irrep. The indices of the
 involved functions are printed below for each irrep.
 (The complete list of primitive basis functions is printed in another section)

 Total nr. of (C)SFOs (summation over all irreps) :   171

 NOTE: a (C)SFO that is defined as a combination of more than one FO is usually NOT normalized.



                                       === A ===
 Nr. of SFOs :  171
 Cartesian basis functions that participate in this irrep (total number =   194) :
      1     2     3     4     5     6     9    12     7    10
     13     8    11    14    15    16    17    18    19    20
     21    22    23    24    25    26    27    28    29    30
     31    32    33    34    35    36    39    42    37    40
     43    38    41    44    45    46    47    48    49    50
     51    52    53    54    55    56    57    58    59    60
     61    62    63    64    65    66    69    72    67    70
     73    68    71    74    75    76    77    78    79    80
     81    82    83    84    85    86    87    88    89    90
     91    92    93    94    95    96    99   102    97   100
    103    98   101   104   105   106   107   108   109   110
    111   112   113   114   115   116   117   118   119   120
    121   122   123   124   125   126   127   128   129   130
    131   132   133   134   135   136   137   138   139   140
    141   142   143   144   145   146   147   148   149   150
    151   152   153   154   155   156   157   158   159   160
    167   168   169   161   164   170   173   176   162   165
    171   174   177   163   166   172   175   178   179   180
    181   182   183   184   185   186   187   188   189   190
    191   192   193   194

    SFO  (index         Fragment          Generating    Expansion in Fragment Orbitals
  indx  incl.CFs)   Occup   Orb.Energy   FragmentType  Coeff.   Orbital     on Fragment
 --------------------------------------------------------------------------------------
     1       1      2.000     -10.064 au  C             1.00      1 S               1
                        (    -273.865 eV)
     2       2      2.000      -0.507 au  C             1.00      2 S               1
                        (     -13.802 eV)
     3       3       --         0.384 au  C             1.00      3 S               1
                        (      10.456 eV)
     4       4       --         5.458 au  C             1.00      4 S               1
                        (     148.511 eV)
     5       5       --        49.970 au  C             1.00      5 S               1
                        (    1359.766 eV)
     6       6      0.667      -0.189 au  C             1.00      1 P:x             1
                        (      -5.135 eV)
     7       7       --         0.168 au  C             1.00      2 P:x             1
                        (       4.559 eV)
     8       8       --         2.056 au  C             1.00      3 P:x             1
                        (      55.959 eV)
     9       9      0.667      -0.189 au  C             1.00      1 P:y             1
                        (      -5.135 eV)
    10      10       --         0.168 au  C             1.00      2 P:y             1
                        (       4.559 eV)
    11      11       --         2.056 au  C             1.00      3 P:y             1
                        (      55.959 eV)
    12      12      0.667      -0.189 au  C             1.00      1 P:z             1
                        (      -5.135 eV)
    13      13       --         0.168 au  C             1.00      2 P:z             1
                        (       4.559 eV)
    14      14       --         2.056 au  C             1.00      3 P:z             1
                        (      55.959 eV)
    15      15       --         1.235 au  C             1.00      1 D:z2            1
                        (      33.605 eV)
    16      16       --         1.235 au  C             1.00      1 D:x2-y2         1
                        (      33.605 eV)
    17      17       --         1.235 au  C             1.00      1 D:xy            1
                        (      33.605 eV)
    18      18       --         1.235 au  C             1.00      1 D:xz            1
                        (      33.605 eV)
    19      19       --         1.235 au  C             1.00      1 D:yz            1
                        (      33.605 eV)
    20      20       --         4.005 au  C             1.00      1 F:z3            1
                        (     108.969 eV)
    21      21       --         4.005 au  C             1.00      1 F:z             1
                        (     108.969 eV)
    22      22       --         4.005 au  C             1.00      1 F:xyz           1
                        (     108.969 eV)
    23      23       --         4.005 au  C             1.00      1 F:z2x           1
                        (     108.969 eV)
    24      24       --         4.005 au  C             1.00      1 F:z2y           1
                        (     108.969 eV)
    25      25       --         4.005 au  C             1.00      1 F:x             1
                        (     108.969 eV)
    26      26       --         4.005 au  C             1.00      1 F:y             1
                        (     108.969 eV)
    27      27      2.000     -10.064 au  C             1.00      1 S               2
                        (    -273.865 eV)
    28      28      2.000      -0.507 au  C             1.00      2 S               2
                        (     -13.802 eV)
    29      29       --         0.384 au  C             1.00      3 S               2
                        (      10.456 eV)
    30      30       --         5.458 au  C             1.00      4 S               2
                        (     148.511 eV)
    31      31       --        49.970 au  C             1.00      5 S               2
                        (    1359.766 eV)
    32      32      0.667      -0.189 au  C             1.00      1 P:x             2
                        (      -5.135 eV)
    33      33       --         0.168 au  C             1.00      2 P:x             2
                        (       4.559 eV)
    34      34       --         2.056 au  C             1.00      3 P:x             2
                        (      55.959 eV)
    35      35      0.667      -0.189 au  C             1.00      1 P:y             2
                        (      -5.135 eV)
    36      36       --         0.168 au  C             1.00      2 P:y             2
                        (       4.559 eV)
    37      37       --         2.056 au  C             1.00      3 P:y             2
                        (      55.959 eV)
    38      38      0.667      -0.189 au  C             1.00      1 P:z             2
                        (      -5.135 eV)
    39      39       --         0.168 au  C             1.00      2 P:z             2
                        (       4.559 eV)
    40      40       --         2.056 au  C             1.00      3 P:z             2
                        (      55.959 eV)
    41      41       --         1.235 au  C             1.00      1 D:z2            2
                        (      33.605 eV)
    42      42       --         1.235 au  C             1.00      1 D:x2-y2         2
                        (      33.605 eV)
    43      43       --         1.235 au  C             1.00      1 D:xy            2
                        (      33.605 eV)
    44      44       --         1.235 au  C             1.00      1 D:xz            2
                        (      33.605 eV)
    45      45       --         1.235 au  C             1.00      1 D:yz            2
                        (      33.605 eV)
    46      46       --         4.005 au  C             1.00      1 F:z3            2
                        (     108.969 eV)
    47      47       --         4.005 au  C             1.00      1 F:z             2
                        (     108.969 eV)
    48      48       --         4.005 au  C             1.00      1 F:xyz           2
                        (     108.969 eV)
    49      49       --         4.005 au  C             1.00      1 F:z2x           2
                        (     108.969 eV)
    50      50       --         4.005 au  C             1.00      1 F:z2y           2
                        (     108.969 eV)
    51      51       --         4.005 au  C             1.00      1 F:x             2
                        (     108.969 eV)
    52      52       --         4.005 au  C             1.00      1 F:y             2
                        (     108.969 eV)
    53      53      2.000     -10.064 au  C             1.00      1 S               3
                        (    -273.865 eV)
    54      54      2.000      -0.507 au  C             1.00      2 S               3
                        (     -13.802 eV)
    55      55       --         0.384 au  C             1.00      3 S               3
                        (      10.456 eV)
    56      56       --         5.458 au  C             1.00      4 S               3
                        (     148.511 eV)
    57      57       --        49.970 au  C             1.00      5 S               3
                        (    1359.766 eV)
    58      58      0.667      -0.189 au  C             1.00      1 P:x             3
                        (      -5.135 eV)
    59      59       --         0.168 au  C             1.00      2 P:x             3
                        (       4.559 eV)
    60      60       --         2.056 au  C             1.00      3 P:x             3
                        (      55.959 eV)
    61      61      0.667      -0.189 au  C             1.00      1 P:y             3
                        (      -5.135 eV)
    62      62       --         0.168 au  C             1.00      2 P:y             3
                        (       4.559 eV)
    63      63       --         2.056 au  C             1.00      3 P:y             3
                        (      55.959 eV)
    64      64      0.667      -0.189 au  C             1.00      1 P:z             3
                        (      -5.135 eV)
    65      65       --         0.168 au  C             1.00      2 P:z             3
                        (       4.559 eV)
    66      66       --         2.056 au  C             1.00      3 P:z             3
                        (      55.959 eV)
    67      67       --         1.235 au  C             1.00      1 D:z2            3
                        (      33.605 eV)
    68      68       --         1.235 au  C             1.00      1 D:x2-y2         3
                        (      33.605 eV)
    69      69       --         1.235 au  C             1.00      1 D:xy            3
                        (      33.605 eV)
    70      70       --         1.235 au  C             1.00      1 D:xz            3
                        (      33.605 eV)
    71      71       --         1.235 au  C             1.00      1 D:yz            3
                        (      33.605 eV)
    72      72       --         4.005 au  C             1.00      1 F:z3            3
                        (     108.969 eV)
    73      73       --         4.005 au  C             1.00      1 F:z             3
                        (     108.969 eV)
    74      74       --         4.005 au  C             1.00      1 F:xyz           3
                        (     108.969 eV)
    75      75       --         4.005 au  C             1.00      1 F:z2x           3
                        (     108.969 eV)
    76      76       --         4.005 au  C             1.00      1 F:z2y           3
                        (     108.969 eV)
    77      77       --         4.005 au  C             1.00      1 F:x             3
                        (     108.969 eV)
    78      78       --         4.005 au  C             1.00      1 F:y             3
                        (     108.969 eV)
    79      79      2.000     -18.926 au  O             1.00      1 S               4
                        (    -515.001 eV)
    80      80      2.000      -0.887 au  O             1.00      2 S               4
                        (     -24.136 eV)
    81      81       --         0.804 au  O             1.00      3 S               4
                        (      21.890 eV)
    82      82       --        13.488 au  O             1.00      4 S               4
                        (     367.032 eV)
    83      83       --       121.767 au  O             1.00      5 S               4
                        (    3313.451 eV)
    84      84      1.333      -0.329 au  O             1.00      1 P:x             4
                        (      -8.949 eV)
    85      85       --         0.351 au  O             1.00      2 P:x             4
                        (       9.557 eV)
    86      86       --         3.863 au  O             1.00      3 P:x             4
                        (     105.120 eV)
    87      87      1.333      -0.329 au  O             1.00      1 P:y             4
                        (      -8.949 eV)
    88      88       --         0.351 au  O             1.00      2 P:y             4
                        (       9.557 eV)
    89      89       --         3.863 au  O             1.00      3 P:y             4
                        (     105.120 eV)
    90      90      1.333      -0.329 au  O             1.00      1 P:z             4
                        (      -8.949 eV)
    91      91       --         0.351 au  O             1.00      2 P:z             4
                        (       9.557 eV)
    92      92       --         3.863 au  O             1.00      3 P:z             4
                        (     105.120 eV)
    93      93       --         1.072 au  O             1.00      1 D:z2            4
                        (      29.175 eV)
    94      94       --         1.072 au  O             1.00      1 D:x2-y2         4
                        (      29.175 eV)
    95      95       --         1.072 au  O             1.00      1 D:xy            4
                        (      29.175 eV)
    96      96       --         1.072 au  O             1.00      1 D:xz            4
                        (      29.175 eV)
    97      97       --         1.072 au  O             1.00      1 D:yz            4
                        (      29.175 eV)
    98      98       --         3.353 au  O             1.00      1 F:z3            4
                        (      91.230 eV)
    99      99       --         3.353 au  O             1.00      1 F:z             4
                        (      91.230 eV)
   100     100       --         3.353 au  O             1.00      1 F:xyz           4
                        (      91.230 eV)
   101     101       --         3.353 au  O             1.00      1 F:z2x           4
                        (      91.230 eV)
   102     102       --         3.353 au  O             1.00      1 F:z2y           4
                        (      91.230 eV)
   103     103       --         3.353 au  O             1.00      1 F:x             4
                        (      91.230 eV)
   104     104       --         3.353 au  O             1.00      1 F:y             4
                        (      91.230 eV)
   105     105      1.000      -0.238 au  H             1.00      1 S               5
                        (      -6.484 eV)
   106     106       --         0.077 au  H             1.00      2 S               5
                        (       2.096 eV)
   107     107       --         1.521 au  H             1.00      3 S               5
                        (      41.380 eV)
   108     108       --         0.410 au  H             1.00      1 P:x             5
                        (      11.162 eV)
   109     109       --         0.410 au  H             1.00      1 P:y             5
                        (      11.162 eV)
   110     110       --         0.410 au  H             1.00      1 P:z             5
                        (      11.162 eV)
   111     111       --         2.567 au  H             1.00      1 D:z2            5
                        (      69.838 eV)
   112     112       --         2.567 au  H             1.00      1 D:x2-y2         5
                        (      69.838 eV)
   113     113       --         2.567 au  H             1.00      1 D:xy            5
                        (      69.838 eV)
   114     114       --         2.567 au  H             1.00      1 D:xz            5
                        (      69.838 eV)
   115     115       --         2.567 au  H             1.00      1 D:yz            5
                        (      69.838 eV)
   116     116      1.000      -0.238 au  H             1.00      1 S               6
                        (      -6.484 eV)
   117     117       --         0.077 au  H             1.00      2 S               6
                        (       2.096 eV)
   118     118       --         1.521 au  H             1.00      3 S               6
                        (      41.380 eV)
   119     119       --         0.410 au  H             1.00      1 P:x             6
                        (      11.162 eV)
   120     120       --         0.410 au  H             1.00      1 P:y             6
                        (      11.162 eV)
   121     121       --         0.410 au  H             1.00      1 P:z             6
                        (      11.162 eV)
   122     122       --         2.567 au  H             1.00      1 D:z2            6
                        (      69.838 eV)
   123     123       --         2.567 au  H             1.00      1 D:x2-y2         6
                        (      69.838 eV)
   124     124       --         2.567 au  H             1.00      1 D:xy            6
                        (      69.838 eV)
   125     125       --         2.567 au  H             1.00      1 D:xz            6
                        (      69.838 eV)
   126     126       --         2.567 au  H             1.00      1 D:yz            6
                        (      69.838 eV)
   127     127      1.000      -0.238 au  H             1.00      1 S               7
                        (      -6.484 eV)
   128     128       --         0.077 au  H             1.00      2 S               7
                        (       2.096 eV)
   129     129       --         1.521 au  H             1.00      3 S               7
                        (      41.380 eV)
   130     130       --         0.410 au  H             1.00      1 P:x             7
                        (      11.162 eV)
   131     131       --         0.410 au  H             1.00      1 P:y             7
                        (      11.162 eV)
   132     132       --         0.410 au  H             1.00      1 P:z             7
                        (      11.162 eV)
   133     133       --         2.567 au  H             1.00      1 D:z2            7
                        (      69.838 eV)
   134     134       --         2.567 au  H             1.00      1 D:x2-y2         7
                        (      69.838 eV)
   135     135       --         2.567 au  H             1.00      1 D:xy            7
                        (      69.838 eV)
   136     136       --         2.567 au  H             1.00      1 D:xz            7
                        (      69.838 eV)
   137     137       --         2.567 au  H             1.00      1 D:yz            7
                        (      69.838 eV)
   138     138      2.000    -101.052 au  Cl            1.00      1 S               8
                        (   -2749.765 eV)
   139     139      2.000      -9.313 au  Cl            1.00      2 S               8
                        (    -253.406 eV)
   140     140      2.000      -0.758 au  Cl            1.00      3 S               8
                        (     -20.633 eV)
   141     141       --         0.208 au  Cl            1.00      4 S               8
                        (       5.658 eV)
   142     142       --         2.007 au  Cl            1.00      5 S               8
                        (      54.621 eV)
   143     143       --        12.626 au  Cl            1.00      6 S               8
                        (     343.574 eV)
   144     144       --       205.598 au  Cl            1.00      7 S               8
                        (    5594.614 eV)
   145     145      2.000      -7.061 au  Cl            1.00      1 P:x             8
                        (    -192.151 eV)
   146     146      1.667      -0.312 au  Cl            1.00      2 P:x             8
                        (      -8.486 eV)
   147     147       --         0.227 au  Cl            1.00      3 P:x             8
                        (       6.179 eV)
   148     148       --         2.122 au  Cl            1.00      4 P:x             8
                        (      57.749 eV)
   149     149       --        18.691 au  Cl            1.00      5 P:x             8
                        (     508.605 eV)
   150     150      2.000      -7.061 au  Cl            1.00      1 P:y             8
                        (    -192.151 eV)
   151     151      1.667      -0.312 au  Cl            1.00      2 P:y             8
                        (      -8.486 eV)
   152     152       --         0.227 au  Cl            1.00      3 P:y             8
                        (       6.179 eV)
   153     153       --         2.122 au  Cl            1.00      4 P:y             8
                        (      57.749 eV)
   154     154       --        18.691 au  Cl            1.00      5 P:y             8
                        (     508.605 eV)
   155     155      2.000      -7.061 au  Cl            1.00      1 P:z             8
                        (    -192.151 eV)
   156     156      1.667      -0.312 au  Cl            1.00      2 P:z             8
                        (      -8.486 eV)
   157     157       --         0.227 au  Cl            1.00      3 P:z             8
                        (       6.179 eV)
   158     158       --         2.122 au  Cl            1.00      4 P:z             8
                        (      57.749 eV)
   159     159       --        18.691 au  Cl            1.00      5 P:z             8
                        (     508.605 eV)
   160     160       --         0.387 au  Cl            1.00      1 D:z2            8
                        (      10.541 eV)
   161     161       --         0.387 au  Cl            1.00      1 D:x2-y2         8
                        (      10.541 eV)
   162     162       --         0.387 au  Cl            1.00      1 D:xy            8
                        (      10.541 eV)
   163     163       --         0.387 au  Cl            1.00      1 D:xz            8
                        (      10.541 eV)
   164     164       --         0.387 au  Cl            1.00      1 D:yz            8
                        (      10.541 eV)
   165     165       --         1.191 au  Cl            1.00      1 F:z3            8
                        (      32.402 eV)
   166     166       --         1.191 au  Cl            1.00      1 F:z             8
                        (      32.402 eV)
   167     167       --         1.191 au  Cl            1.00      1 F:xyz           8
                        (      32.402 eV)
   168     168       --         1.191 au  Cl            1.00      1 F:z2x           8
                        (      32.402 eV)
   169     169       --         1.191 au  Cl            1.00      1 F:z2y           8
                        (      32.402 eV)
   170     170       --         1.191 au  Cl            1.00      1 F:x             8
                        (      32.402 eV)
   171     171       --         1.191 au  Cl            1.00      1 F:y             8
                        (      32.402 eV)



 ================================
 (Slater-type)  F U N C T I O N S  ***  (Basis and Fit)  ***
 ================================
  

 Atom Type    1  (C)
 ==============

 Valence Basis Sets:  10
 -----------------------
   1 S    7.680000
   1 S    5.000000
   2 S    1.280000
   2 S    2.100000
   2 S    4.600000
   2 P    0.820000
   2 P    1.480000
   2 P    2.940000
   3 D    2.200000
   4 F    3.300000

 Atom Type    2  (O)
 ==============

 Valence Basis Sets:  10
 -----------------------
   1 S    9.800000
   1 S    6.800000
   2 S    7.580000
   2 S    2.880000
   2 S    1.720000
   2 P    4.080000
   2 P    2.080000
   2 P    1.120000
   3 D    2.000000
   4 F    3.000000

 Atom Type    3  (H)
 ==============

 Valence Basis Sets:   5
 -----------------------
   1 S    0.690000
   1 S    0.920000
   1 S    1.580000
   2 P    1.250000
   3 D    2.500000

 Atom Type    4  (Cl)
 ==============

 Valence Basis Sets:  14
 -----------------------
   1 S   20.300000
   1 S   15.250000
   2 S    6.250000
   2 S    4.450000
   2 P    8.850000
   2 P    5.050000
   3 S    3.450000
   3 S    2.300000
   3 S    1.600000
   3 P    3.350000
   3 P    2.050000
   3 P    1.200000
   3 D    2.000000
   4 F    2.000000


 BAS: List of all Elementary Cartesian Basis Functions
 =====================================================

 The numbering in the list below (to the right of the function characteristics) is referred
 to in print-outs of MO eigenvectors and Mulliken populations in the BAS representation
 (as contrasted to the SFO representation).

 Notes:
 1. The functions are characterized by a polynomial prefactor (powers of x,y,z and r) and
    an exponential decay factor alpha.
 2. Since the basis sets are specific for an atom TYPE, the individual functions occur on
    all atoms of that type.
 3. The word 'Core' in the left margin signals that it is a Core Function (CF) : not a
    degree of freedom in the valence set, but only used to ensure orthogonalization of
    the other valence basis functions on the frozen Core Orbitals.


 (power of) X  Y  Z  R     Alpha  on Atom
            ==========     =====     ==========

 C                                    1    2    3
                                  ---------------------------------------------------------------------------
            0  0  0  0     7.680      1   31   61
            0  0  0  0     5.000      2   32   62
            0  0  0  1     1.280      3   33   63
            0  0  0  1     2.100      4   34   64
            0  0  0  1     4.600      5   35   65
            1  0  0  0     0.820      6   36   66
            0  1  0  0     0.820      7   37   67
            0  0  1  0     0.820      8   38   68
            1  0  0  0     1.480      9   39   69
            0  1  0  0     1.480     10   40   70
            0  0  1  0     1.480     11   41   71
            1  0  0  0     2.940     12   42   72
            0  1  0  0     2.940     13   43   73
            0  0  1  0     2.940     14   44   74
            2  0  0  0     2.200     15   45   75
            1  1  0  0     2.200     16   46   76
            1  0  1  0     2.200     17   47   77
            0  2  0  0     2.200     18   48   78
            0  1  1  0     2.200     19   49   79
            0  0  2  0     2.200     20   50   80
            3  0  0  0     3.300     21   51   81
            2  1  0  0     3.300     22   52   82
            2  0  1  0     3.300     23   53   83
            1  2  0  0     3.300     24   54   84
            1  1  1  0     3.300     25   55   85
            1  0  2  0     3.300     26   56   86
            0  3  0  0     3.300     27   57   87
            0  2  1  0     3.300     28   58   88
            0  1  2  0     3.300     29   59   89
            0  0  3  0     3.300     30   60   90

 O                                    4
                                  ---------------------------------------------------------------------------
            0  0  0  0     9.800     91
            0  0  0  0     6.800     92
            0  0  0  1     7.580     93
            0  0  0  1     2.880     94
            0  0  0  1     1.720     95
            1  0  0  0     4.080     96
            0  1  0  0     4.080     97
            0  0  1  0     4.080     98
            1  0  0  0     2.080     99
            0  1  0  0     2.080    100
            0  0  1  0     2.080    101
            1  0  0  0     1.120    102
            0  1  0  0     1.120    103
            0  0  1  0     1.120    104
            2  0  0  0     2.000    105
            1  1  0  0     2.000    106
            1  0  1  0     2.000    107
            0  2  0  0     2.000    108
            0  1  1  0     2.000    109
            0  0  2  0     2.000    110
            3  0  0  0     3.000    111
            2  1  0  0     3.000    112
            2  0  1  0     3.000    113
            1  2  0  0     3.000    114
            1  1  1  0     3.000    115
            1  0  2  0     3.000    116
            0  3  0  0     3.000    117
            0  2  1  0     3.000    118
            0  1  2  0     3.000    119
            0  0  3  0     3.000    120

 H                                    5    6    7
                                  ---------------------------------------------------------------------------
            0  0  0  0     0.690    121  133  145
            0  0  0  0     0.920    122  134  146
            0  0  0  0     1.580    123  135  147
            1  0  0  0     1.250    124  136  148
            0  1  0  0     1.250    125  137  149
            0  0  1  0     1.250    126  138  150
            2  0  0  0     2.500    127  139  151
            1  1  0  0     2.500    128  140  152
            1  0  1  0     2.500    129  141  153
            0  2  0  0     2.500    130  142  154
            0  1  1  0     2.500    131  143  155
            0  0  2  0     2.500    132  144  156

 Cl                                   8
                                  ---------------------------------------------------------------------------
            0  0  0  0    20.300    157
            0  0  0  0    15.250    158
            0  0  0  1     6.250    159
            0  0  0  1     4.450    160
            1  0  0  0     8.850    161
            0  1  0  0     8.850    162
            0  0  1  0     8.850    163
            1  0  0  0     5.050    164
            0  1  0  0     5.050    165
            0  0  1  0     5.050    166
            0  0  0  2     3.450    167
            0  0  0  2     2.300    168
            0  0  0  2     1.600    169
            1  0  0  1     3.350    170
            0  1  0  1     3.350    171
            0  0  1  1     3.350    172
            1  0  0  1     2.050    173
            0  1  0  1     2.050    174
            0  0  1  1     2.050    175
            1  0  0  1     1.200    176
            0  1  0  1     1.200    177
            0  0  1  1     1.200    178
            2  0  0  0     2.000    179
            1  1  0  0     2.000    180
            1  0  1  0     2.000    181
            0  2  0  0     2.000    182
            0  1  1  0     2.000    183
            0  0  2  0     2.000    184
            3  0  0  0     2.000    185
            2  1  0  0     2.000    186
            2  0  1  0     2.000    187
            1  2  0  0     2.000    188
            1  1  1  0     2.000    189
            1  0  2  0     2.000    190
            0  3  0  0     2.000    191
            0  2  1  0     2.000    192
            0  1  2  0     2.000    193
            0  0  3  0     2.000    194

 Total number of charge fitting functions (nprimf)       592
 Total number of Cartesian basis functions (naos)        194
 Total number of Cartesian core functions  (ncos)          0

1
 ***************************************************************************************************



                                              ***********************
                                              *  T E C H N I C A L  *
                                              ***********************
  



 =============================================================
 P A R A L L E L I Z A T I O N  and  V E C T O R I Z A T I O N
 =============================================================
  
 Nr of parallel processes:                                4
 Maximum vector length in NumInt loops:                 128



 =====================
 S C F   U P D A T E S
 =====================
  
 Max. nr. of cycles:                               300
 Convergence criterion:                              0.0000010000
   secondary criterion:                              0.0010000000

 Mix parameter (when DIIS does not apply):           0.2000000000
 Mixed ADIIS+SDIIS will be used                  
    Max number of expansion vectors:                10
    Pure ADIIS when Max([F,P]) is above              0.1000000000
    Pure SDIIS when Max([F,P]) is below              0.0010000000
 Automatic ElectronSmearing (in case of problematic SCF convergence) disabled



 =================
 P R E C I S I O N  ***  (General: NumInt, NeglectFunctionTails, ...)  ***
 =================
  

 NumInt:           Target precision:                 4.0000000000
 -------           Initial precision:                4.0000000000
                   Min. precision (optimization):    4.0000000000

 Neglect Functions:          Basis functions:        0.1000000000E-05
 ------------------          Fit functions:          0.1000000000E-05



 ===========================
 L I N E A R   S C A L I N G
 ===========================
  

 Cut-off radii density fit:                        0.1000000000E-07
 Overlap cut-off criterion AO matrix elements:     0.1000000000E-05
 Cut-offs for Coulomb potential and fitted density:0.1000000000E-07
 Cut-off criterion for Coulomb multipole terms:    0.1000000000E-07
 Progressive Convergence parameter:                 0.000000000    

 Number of elements of the density matrix on this node (used, total):      4860     18915



 ===========================================
 Numerical Integration : Fuzzy Cells (Becke)
 ===========================================
  
 Becke grid quality: NORMAL         
  
 Lebedev angular grid order:             min:  11 max:  23
 Nr. of radial points:                   min:  46 max:  67

 Total nr. of points:      54858
 Nr. of blocks:              429
 Block length:               128
 Nr. of dummy points:         54


 Test of Precision of the Numerical Integration Grid
 ===================================================

 Integral of the Total Core Density:                   0.00000000000000



 ========================
 Density Fitting (zlmFit)
 ========================
  
 ZlmFit Fit Quality: NORMAL         
  
 Max L-expansion:                        min:   6 max:   7
 Nr. of radial interpolation points:     min:  39 max:  60



 =====
 S C F  ***  ScaSCF  ***
 =====
  
 Initial density matrix is taken from previous geometry

 CYCLE    1
  ***********************************************************
  ** : orbital data taken from :Z:/SCMTMP/amstmp_ams_kid0.939434628/GOStep8.rkf
  ***********************************************************
 SCF Error: norm([F,P])=      0.000000505328, max([F,P])=      0.000000111959
 orbitals (Q,E):
 ---------------
 A :14...33          ( 2.00    -0.5192)  ( 2.00    -0.4620)  ( 2.00    -0.4443)  ( 2.00    -0.3865)
                     ( 2.00    -0.3740)  ( 2.00    -0.3700)  ( 2.00    -0.3440)  ( 2.00    -0.2997)
                     ( 2.00    -0.2574)  ( 2.00    -0.2221)  ( 0.00    -0.1165)  ( 0.00    -0.0251)
                     ( 0.00    -0.0196)  ( 0.00    -0.0026)  ( 0.00     0.0108)  ( 0.00     0.0359)
                     ( 0.00     0.0972)  ( 0.00     0.1246)  ( 0.00     0.1316)  ( 0.00     0.1587)

 CYCLE    2
  SDIIS (wt  0.000):  0.6554  0.3446
 A-DIIS (wt  1.000):  0.0000  1.0000
  DIIS coefficients:  0.0000  1.0000
 SCF Error: norm([F,P])=      0.000000950949, max([F,P])=      0.000000226306
 orbitals (Q,E):
 ---------------
 A :14...24          ( 2.00    -0.5192)  ( 2.00    -0.4620)  ( 2.00    -0.4443)  ( 2.00    -0.3865)
                     ( 2.00    -0.3740)  ( 2.00    -0.3700)  ( 2.00    -0.3440)  ( 2.00    -0.2997)
                     ( 2.00    -0.2574)  ( 2.00    -0.2221)  ( 0.00    -0.1165)

 SCF CONVERGED

 CYCLE    3
1
 ***************************************************************************************************



                                                *******************
                                                *  R E S U L T S  *
                                                *******************
  
 *** Using FIT density in Focky
  SDIIS (wt  0.000):  0.3869  0.4765  0.1366
 A-DIIS (wt  1.000):  0.0000  0.8284  0.1716
  DIIS coefficients:  0.0000  0.8284  0.1716
 SCF Error: norm([F,P])=      0.000001955403, max([F,P])=      0.000000463729

 Scaled ZORA Orbital Energies, per Irrep and Spin:
 =================================================
                        Occup              E (au)              E (eV)       Diff (eV) with prev. cycle
                        -----      --------------------        ------       --------------------------
 A
              14        2.000     -0.51915674155571E+00       -14.127               9.51E-07
              15        2.000     -0.46201323449956E+00       -12.572               2.19E-06
              16        2.000     -0.44433059976381E+00       -12.091               5.54E-07
              17        2.000     -0.38654402824433E+00       -10.518              -5.05E-08
              18        2.000     -0.37400337584048E+00       -10.177               6.48E-07
              19        2.000     -0.36997953252877E+00       -10.068               1.26E-06
              20        2.000     -0.34399263741698E+00        -9.361              -3.98E-07
              21        2.000     -0.29965088649967E+00        -8.154              -1.16E-06
              22        2.000     -0.25740743066016E+00        -7.004               1.13E-06
              23        2.000     -0.22208777543248E+00        -6.043              -9.27E-08
              24        0.000     -0.11649429099834E+00        -3.170
              25        0.000     -0.25106298477756E-01        -0.683
              26        0.000     -0.19644576899118E-01        -0.535
              27        0.000     -0.26440987843537E-02        -0.072
              28        0.000      0.10824819314580E-01         0.295
              29        0.000      0.35850494464579E-01         0.976
              30        0.000      0.97228659555191E-01         2.646
              31        0.000      0.12462476495505E+00         3.391
              32        0.000      0.13157835155727E+00         3.580
              33        0.000      0.15872147092519E+00         4.319
  
 HOMO :       23 A                -0.22208777543248E+00
 LUMO :       24 A                -0.11649429099834E+00
  


 All Electron Calculation, thus no Orbital Energies of the Core Orbitals are calculated


 Fit test: (difference of exact and fit density, squared integrated, result summed over spins)
         Sum-of-Fragments:                             0.00000000102443
         Orthogonalized Fragments:                     0.00009541597265
         SCF:                                          0.00017717314085



 ==========================
 Electron Density at Nuclei
 ==========================
  
 The electron density is calculated at points on a small sphere around the center of a nucleus.
 The printed electron density is the average electron density on these points.
 The radius of the sphere is the printed approximate finite nuclear radius.
 Note: ZORA-4 density is used, which includes small component density

         Atom        Nuclear Radius (Angstrom)             Electron Density (a.u.)
         ----        -------------------------             -----------------------
     1)   C                 0.0000320678                              126.83974
     2)   C                 0.0000320678                              126.81401
     3)   C                 0.0000320678                              126.88721
     4)   O                 0.0000345546                              313.41753
     5)   H                 0.0000181514                                0.50002
     6)   H                 0.0000181514                                0.50397
     7)   Cl                0.0000426624                             3309.55331
     8)   H                 0.0000181514                                0.50364



 =======================================
 M U L L I K E N   P O P U L A T I O N S
 =======================================
  
 The survey below gives for each atom:
 a) the total charge (Z minus electrons)
 b) the net spin polarization (nr of electrons spin-A minus spin-B)
 c) for each spin the atomic electron valence density (integrated) per L-value.

 Atom              Charge    Spin density          S         P         D         F
 ----              ------    ------------       ------    ------    ------    ------
 1 C               0.2760                       3.1062    2.5447    0.0684    0.0047
 2 C               0.2035                       3.1154    2.6245    0.0521    0.0045
 3 C               0.6238                       2.9763    2.2801    0.1124    0.0075
 4 O              -0.4810                       3.8453    4.5738    0.0558    0.0061
 5 H              -0.1602                       1.0863    0.0688    0.0051    0.0000
 6 H              -0.2126                       1.1417    0.0660    0.0049    0.0000
 7 Cl             -0.0922                       5.9178   11.0847    0.0745    0.0152
 8 H              -0.1572                       1.0802    0.0717    0.0053    0.0000

 Populations of individual BAS functions
 ----------------------------------------
 1 C            0.4694  1.5543  0.2532  0.9129 -0.0836 -0.1488 -0.1759  0.1079  0.7553  0.8206
                0.7020  0.1543  0.1956  0.1337  0.0104  0.0255  0.0062  0.0275  0.0143 -0.0155
                0.0013 -0.0005  0.0014  0.0038  0.0003 -0.0034  0.0066  0.0058 -0.0048 -0.0059
 2 C            0.4701  1.5526  0.2809  0.8939 -0.0821 -0.2118 -0.1938  0.1305  0.8656  0.8182
                0.7106  0.1780  0.1928  0.1345  0.0122  0.0180  0.0027  0.0254  0.0105 -0.0168
                0.0012  0.0003  0.0017  0.0042  0.0003 -0.0039  0.0061  0.0061 -0.0049 -0.0066
 3 C            0.4701  1.5537  0.1142  0.9262 -0.0880 -0.2848 -0.0485  0.0049  0.8695  0.6438
                0.5882  0.1873  0.2031  0.1165  0.0127  0.0557  0.0048  0.0319  0.0207 -0.0134
                0.0005 -0.0008  0.0005  0.0048  0.0004 -0.0028  0.0086  0.0065 -0.0053 -0.0051
 4 O            0.5952  1.4231 -0.0518  1.0516  0.8271  0.3235  0.2561  0.2153  1.0045  0.8770
                0.7684  0.5205  0.2709  0.3376 -0.0089  0.0149  0.0005  0.0274  0.0207  0.0011
               -0.0111 -0.0103 -0.0045  0.0130  0.0002  0.0001  0.0190  0.0122 -0.0069 -0.0055
 5 H            0.2318  0.5249  0.3296  0.0311  0.0183  0.0194  0.0090  0.0015  0.0012 -0.0023
                0.0005 -0.0047
 6 H            0.2198  0.6152  0.3067  0.0329  0.0205  0.0126  0.0094  0.0017  0.0011 -0.0035
                0.0003 -0.0040
 8 H            0.2123  0.5425  0.3253  0.0305  0.0224  0.0188  0.0072  0.0015  0.0010 -0.0001
                0.0007 -0.0050
 7 Cl           0.5855  1.3695  1.7612  0.2237  0.7329  0.7362  0.7382  1.2719  1.2679  1.2650
                0.5181  1.2023  0.2575  0.2042  0.2345  0.2579  1.0580  1.1691  1.2195  0.2148
                0.3219  0.3927  0.0263  0.0256  0.0140  0.0060  0.0082 -0.0055  0.0139  0.0136
                0.0123  0.0022  0.0028 -0.0104 -0.0020  0.0025 -0.0070 -0.0126

 Gross Charges per Atom (Z minus electrons)
 ==========================================
             0.2760    0.2035    0.6238   -0.4810   -0.1602   -0.2126   -0.0922   -0.1572
 Net Total:  0.00000000


 Atom-Atom Population Matrix (off-diagonal elements not doubled)
 ===============================================================

     1 :     4.4896
     2 :     0.5834    4.7128
     3 :    -0.0134    0.4268    4.0989
     4 :    -0.0008   -0.0460    0.5613    8.0328
     5 :    -0.0633    0.4060   -0.0715    0.0051    0.9482
     6 :    -0.0228   -0.1563    0.3861   -0.0708   -0.0064    1.0931
     7 :     0.3467   -0.0513   -0.0096    0.0010    0.0117    0.0036   16.8884
     8 :     0.4046   -0.0788   -0.0024   -0.0016   -0.0697   -0.0139   -0.0982    1.0172



 =================================================
 H I R S H F E L D   C H A R G E   A N A L Y S I S
 =================================================
  
 For each fragment: the (numerical) integral of rho(scf) * rho(fragment)/rho(sum-of-fragments)
 (nuclear charges are included, electrons are counted negative)

 The fragments and their ordering are defined in the early G E O M E T R Y output section.
 If you use single-atom fragments, this usually implies that all atoms of the same
 chemical type are grouped together. This may not be the order in which you listed them
 in the input file!

    1  C                         0.0040
    2  C                        -0.0600
    3  C                         0.1020
    4  O                        -0.2207
    5  H                         0.0627
    6  H                         0.0348
    7  H                         0.0643
    8  Cl                        0.0130

 Sum of these charges (accuracy NumInt/Tails) =           0.00007029



 =============================
 V O R O N O I   C H A R G E S
 =============================
  
 For each atom: the (numerical) integral of the total electronic charge density in its Voronoi cell,
 i.e. the region of space that is closer to that atom than to any other atom.
 (cf. Wigner-Seitz cells in crystals)

 Within the Voronoi cell the subintegrals over the atomic sphere and the remaining part are evaluated
 separately to give the numbers of electrons (negative charge) in these regions.
 The net total charge in the cell (including the nuclear charge) is also given.

 Values are provided for
    a) the Initial (sum-of-fragments) density
    b) the Orthogonalized-Fragments density
    c) the SCF density
    d) the Voronoi Deformation Density (VDD): the difference SCF-Initial for the complete atomic cell


  Atom                Initial                    OrthFrag                   SCF
             Sphere RestCell NetTotal   Sphere RestCell NetTotal   Sphere RestCell NetTotal      VDD
 -----       ------------------------   ------------------------   ------------------------    -----
    1 C      -2.261   -3.373    0.366   -2.419   -3.266    0.315   -2.287   -3.337    0.376    0.010
    2 C      -2.264   -3.167    0.570   -2.443   -3.149    0.408   -2.300   -3.221    0.479   -0.091
    3 C      -2.266   -3.079    0.655   -2.414   -3.050    0.536   -2.289   -2.942    0.768    0.113
    4 O      -3.303   -4.841   -0.144   -3.521   -4.615   -0.136   -3.330   -5.046   -0.376   -0.232
    5 H      -0.076   -1.475   -0.551   -0.098   -1.310   -0.408   -0.108   -1.360   -0.467    0.084
    6 H      -0.075   -1.489   -0.564   -0.097   -1.332   -0.429   -0.109   -1.392   -0.501    0.063
    7 Cl    -10.564   -6.214    0.222  -10.627   -6.237    0.135  -10.559   -6.246    0.195   -0.027
    8 H      -0.076   -1.477   -0.554   -0.097   -1.325   -0.422   -0.110   -1.365   -0.475    0.079
 ---------------------------------------------------------------------------------------------------
 Total NetCharge:               0.000                      0.000                      0.000    0.000
 (accuracy NumInt/Tails)

 Remark: the 'NetTotal' Voronoi charges often do not match the Mulliken and/or Hirshfeld charges very
 well. This is caused by the fact that chemically different atoms are not treated in accordance with
 their relative sizes. (Voronoi cells are defined by boundary planes halfway between the atoms.)
 However, the CHANGES in charge, comparing 'Initial' to 'SCF' for instance, do give a fair indication
 of the flow of charge caused by the relaxation from sum-of-fragments to self-consistency.

 Warning: the absolute accuracy of the VDD charges obtained using the Fuzzy Cells (Becke) integration
 scheme is much poorer than the one obtained with an 'equivalent' Voronoi integration grid. 



 =================================================================
 M U L T I P O L E   D E R I V E D   C H A R G E   A N A L Y S I S
 =================================================================

 This charge analysis uses the atomic multipoles (obtained from the fitted density) up to some level X,
 and reconstructs these multipoles exactly (up to level X) by distributing charges over all atoms.
 This is achieved by using Lagrange multipliers and a weight function to keep the multipoles local.

 Dummy atoms can be included (by setting INCDUM in MDC-block to 1) to obtain a fractional charge.
 This is generally useful and necessary only for small symmetrical molecules, when there are not
 enough degrees of freedom to reconstruct the multipoles.

 Since the atomic multipoles are reconstructed up to level X,
 the molecular multipoles are represented also up to level X.
 The recommended level is to reconstruct up to quadrupole : -> MDC-q charges.

 See: M. Swart, P.Th. van Duijnen, J.G. Snijders, J.Comput.Chem., (2001), p. 79-88.

 ------------------------------------------------------------- 
 Atomic electronic multipole moments from SCF equations (a.u.)
 ------------------------------------------------------------- 

   atom        charge        dip-x     dip-y     dip-z      quad-xx   quad-xy   quad-xz   quad-yy   quad-yz   quad-zz
 --------------------------------------------------------------------------------------------------------------------
    1 C     -0.110255    -0.382645  0.161787  0.032470     0.166881  0.223099  0.002928  0.490155  0.076521 -0.657036
    2 C      0.055400    -0.082807  0.081194  0.012925     0.347512  0.063381 -0.024177  0.508058  0.099713 -0.855570
    3 C      0.295431     0.045357  0.050289  0.003613     0.203411  0.007979 -0.014689  0.151717  0.039386 -0.355127
    4 O     -0.334351     0.044046 -0.311543 -0.037968    -0.515057 -0.087862  0.001152  0.618752  0.060201 -0.103695
    5 H     -0.035414    -0.026285  0.021711  0.003493     0.177728 -0.057022 -0.015328 -0.005537  0.014760 -0.172191
    6 H     -0.066720     0.011940  0.049366  0.004844     0.173072 -0.031088 -0.010979 -0.086459  0.001873 -0.086614
    7 Cl     0.239805    -0.499307  0.400358  0.062593     0.893246 -0.748957 -0.129156  0.061023  0.103846 -0.954269
    8 H     -0.043896    -0.056154 -0.005892  0.001560     0.113566  0.111207  0.005614  0.027357  0.008102 -0.140922

 --------------------------------------- 
 Multipole derived atomic charges (a.u.)
 --------------------------------------- 

 The MDC-m charges are just the Monopole terms in the multipole expansion, while for the MDC-d charges
 also the Dipoles are reconstructed. The usually preferred charges are the MDC-q charges.
 These reconstruct the Monopoles, Dipoles and Quadrupoles (both atomic AND molecular).

        Atom    Level:     MDC-m        MDC-d        MDC-q
 ---------------------------------------------------------
     1     C           -0.110255    -0.175982   -18.141807
     2     C            0.055400    -0.027937    10.652289
     3     C            0.295431     0.361531     7.706877
     4     O           -0.334351    -0.409059    -3.799258
     5     H           -0.035414     0.098141    -3.429083
[...]
                                    9.71%     1 P:x            -5.135  0.67     3 C
                                    7.82%     2 S             -13.802  2.00     3 C
                                    7.78%     2 S             -13.802  2.00     2 C
                                    6.67%     2 P:x            -8.486  1.67     8 Cl
                                    6.22%     1 P:x            -5.135  0.67     2 C
                                    4.84%     3 S             -20.633  2.00     8 Cl
                                    4.16%     2 S             -13.802  2.00     1 C
                                    4.00%     1 P:y            -5.135  0.67     1 C
                                    3.34%     1 P:x            -8.949  1.33     4 O
                                    3.18%     1 S              -6.484  1.00     7 H
                                    2.88%     2 P:y            -8.486  1.67     8 Cl
                                    2.01%     2 S             -24.136  2.00     4 O
                                   -1.58%     2 P:x             4.559  0.00     3 C
                                    1.57%     1 P:y            -5.135  0.67     3 C
                                   -1.46%     2 P:x             4.559  0.00     2 C
                                    1.45%     1 P:y            -8.949  1.33     4 O
                                    1.22%     1 P:y            -5.135  0.67     2 C
     -12.572  2.00    15 A         21.12%     1 P:y            -5.135  0.67     1 C
                                   17.03%     1 S              -6.484  1.00     7 H
                                   16.52%     1 P:y            -5.135  0.67     2 C
                                    8.10%     1 P:x            -5.135  0.67     1 C
                                    5.67%     1 P:y            -8.949  1.33     4 O
                                    4.64%     1 S              -6.484  1.00     5 H
                                    3.82%     2 P:x            -8.486  1.67     8 Cl
                                    3.45%     2 S             -24.136  2.00     4 O
                                    3.31%     1 P:x            -5.135  0.67     3 C
                                    3.26%     2 P:y            -8.486  1.67     8 Cl
                                    2.85%     2 P:y             4.559  0.00     2 C
                                    2.79%     2 P:y             4.559  0.00     1 C
                                    2.42%     1 P:x            -5.135  0.67     2 C
                                    1.71%     2 S             -13.802  2.00     3 C
                                    1.55%     1 P:x            -8.949  1.33     4 O
                                    1.16%     1 S              -6.484  1.00     6 H
     -12.091  2.00    16 A         14.92%     2 P:x            -8.486  1.67     8 Cl
                                   14.37%     1 P:x            -5.135  0.67     3 C
                                   14.36%     1 P:x            -5.135  0.67     1 C
                                    9.85%     2 P:y            -8.486  1.67     8 Cl
                                    9.50%     1 S              -6.484  1.00     6 H
                                    7.66%     1 P:x            -5.135  0.67     2 C
                                    7.58%     1 P:x            -8.949  1.33     4 O
                                    3.33%     1 S              -6.484  1.00     7 H
                                    3.19%     3 S             -20.633  2.00     8 Cl
                                    2.94%     1 P:y            -5.135  0.67     2 C
                                    1.87%     2 P:x             4.559  0.00     1 C
                                    1.31%     1 S              -6.484  1.00     5 H
                                    1.25%     2 P:x             4.559  0.00     3 C
                                    1.22%     1 P:y            -5.135  0.67     1 C
     -10.518  2.00    17 A         49.47%     1 P:y            -8.949  1.33     4 O
                                   12.17%     2 S             -24.136  2.00     4 O
                                   10.17%     1 P:y            -5.135  0.67     3 C
                                    6.51%     2 P:y             4.559  0.00     3 C
                                    4.07%     1 S              -6.484  1.00     7 H
                                    3.85%     1 S              -6.484  1.00     6 H
                                    2.13%     2 P:y            -8.486  1.67     8 Cl
                                    2.05%     1 P:y            -5.135  0.67     1 C
                                    1.63%     1 P:y            -5.135  0.67     2 C
                                    1.44%     1 P:x            -5.135  0.67     1 C
     -10.177  2.00    18 A         29.90%     1 P:z            -8.949  1.33     4 O
                                   26.59%     1 P:z            -5.135  0.67     3 C
                                   15.60%     1 P:z            -5.135  0.67     2 C
                                   13.38%     1 P:z            -5.135  0.67     1 C
                                   13.06%     2 P:z            -8.486  1.67     8 Cl
     -10.068  2.00    19 A         24.85%     1 S              -6.484  1.00     5 H
                                   13.40%     1 P:x            -5.135  0.67     2 C
                                   10.99%     2 P:x            -8.486  1.67     8 Cl
                                    8.33%     2 P:y            -8.486  1.67     8 Cl
                                    7.59%     1 P:x            -5.135  0.67     3 C
                                    5.76%     1 P:x            -8.949  1.33     4 O
                                    5.40%     1 S              -6.484  1.00     7 H
                                    5.13%     1 S              -6.484  1.00     6 H
                                    3.48%     1 P:x            -5.135  0.67     1 C
                                    2.91%     2 P:x             4.559  0.00     2 C
                                    2.12%     2 P:x             4.559  0.00     1 C
                                    1.93%     1 P:y            -5.135  0.67     2 C
                                    1.76%     2 P:x             4.559  0.00     3 C
                                    1.59%     1 P:y            -8.949  1.33     4 O
      -9.361  2.00    20 A         48.72%     2 P:z            -8.486  1.67     8 Cl
                                   22.78%     1 P:z            -8.949  1.33     4 O
                                   15.37%     1 P:z            -5.135  0.67     1 C
                                    8.95%     1 P:z            -5.135  0.67     3 C
      -8.154  2.00    21 A         56.48%     2 P:y            -8.486  1.67     8 Cl
                                   30.84%     2 P:x            -8.486  1.67     8 Cl
                                    4.38%     1 S              -6.484  1.00     7 H
                                    2.04%     1 P:x            -8.949  1.33     4 O
                                    1.46%     2 P:y             4.559  0.00     1 C
                                    1.08%     1 P:y            -5.135  0.67     2 C
      -7.004  2.00    22 A         32.82%     1 P:z            -5.135  0.67     2 C
                                   31.27%     2 P:z            -8.486  1.67     8 Cl
                                   18.72%     1 P:z            -5.135  0.67     1 C
                                   12.64%     1 P:z            -8.949  1.33     4 O
      -6.043  2.00    23 A         71.61%     1 P:x            -8.949  1.33     4 O
                                   11.97%     1 S              -6.484  1.00     6 H
                                    3.48%     1 P:x            -5.135  0.67     2 C
                                    2.50%     1 D:xy           33.605  0.00     3 C
                                    1.95%     1 P:y            -5.135  0.67     2 C
                                    1.87%     2 S             -13.802  2.00     2 C
                                    1.27%     2 P:x            -8.486  1.67     8 Cl
                                    1.19%     1 P:x            -5.135  0.67     3 C
                                    1.03%     1 S              -6.484  1.00     7 H
      -3.170  0.00    24 A         32.20%     1 P:z            -5.135  0.67     1 C
                                   25.47%     1 P:z            -5.135  0.67     3 C
                                   22.83%     1 P:z            -8.949  1.33     4 O
                                   11.57%     1 P:z            -5.135  0.67     2 C
                                    4.71%     2 P:z            -8.486  1.67     8 Cl
                                   -2.17%     2 P:z             4.559  0.00     1 C
                                   -1.94%     2 P:z             9.557  0.00     4 O
                                    1.40%     1 P:z            11.162  0.00     7 H
                                    1.26%     1 D:xz           10.541  0.00     8 Cl
                                    1.06%     1 P:z            11.162  0.00     6 H
      -0.683  0.00    25 A         25.89%     2 P:x            -8.486  1.67     8 Cl
                                   22.85%     1 P:x            -5.135  0.67     1 C
                                   15.91%     2 S             -13.802  2.00     1 C
                                   12.53%     2 P:y            -8.486  1.67     8 Cl
                                  -10.95%     4 S               5.658  0.00     8 Cl
                                   10.16%     1 P:y            -5.135  0.67     1 C
                                    6.63%     1 S              -6.484  1.00     7 H
                                   -6.35%     2 P:y             4.559  0.00     1 C
                                    6.34%     3 S             -20.633  2.00     8 Cl
                                   -6.01%     3 S              10.456  0.00     1 C
                                    5.93%     1 D:xy           10.541  0.00     8 Cl
                                    4.60%     1 S              -6.484  1.00     5 H
                                    4.22%     2 S               2.096  0.00     6 H
                                    3.80%     1 S              -6.484  1.00     6 H
                                    2.97%     3 P:x             6.179  0.00     8 Cl
                                    2.06%     1 D:z2           10.541  0.00     8 Cl
                                   -1.61%     2 P:y             4.559  0.00     2 C
                                   -1.49%     1 P:y            -5.135  0.67     2 C
                                    1.47%     2 S               2.096  0.00     7 H
      -0.535  0.00    26 A         59.99%     2 S               2.096  0.00     7 H
                                   40.88%     1 S              -6.484  1.00     7 H
                                   21.52%     2 S               2.096  0.00     5 H
                                  -17.55%     2 P:x             4.559  0.00     1 C
                                   13.33%     1 S              -6.484  1.00     5 H
                                   -7.18%     4 S               5.658  0.00     8 Cl
                                   -5.32%     3 S              10.456  0.00     1 C
                                    4.62%     1 P:x            -5.135  0.67     1 C
                                   -2.84%     2 S               2.096  0.00     6 H
                                   -2.75%     2 P:x             4.559  0.00     3 C
                                   -2.20%     3 S              10.456  0.00     2 C
                                   -1.94%     3 S              41.380  0.00     7 H
                                   -1.72%     3 P:x             6.179  0.00     8 Cl
                                   -1.13%     2 S             -13.802  2.00     1 C
                                   -1.07%     1 S              -6.484  1.00     6 H
                                    1.04%     1 P:x            11.162  0.00     5 H
      -0.072  0.00    27 A         40.85%     1 P:z            -5.135  0.67     2 C
                                   37.56%     1 P:z            -5.135  0.67     3 C
                                   16.47%     1 P:z            -5.135  0.67     1 C
                                   10.96%     1 P:z            -8.949  1.33     4 O
                                   -8.97%     2 P:z             4.559  0.00     2 C
                                   -4.38%     2 P:z             4.559  0.00     3 C
                                    2.64%     1 P:z            11.162  0.00     6 H
                                    2.32%     1 P:z            11.162  0.00     5 H
                                   -2.24%     2 P:z             4.559  0.00     1 C
                                   -2.16%     2 P:z             9.557  0.00     4 O
                                    1.74%     2 P:z            -8.486  1.67     8 Cl
                                    1.27%     1 D:xz           10.541  0.00     8 Cl
       0.295  0.00    28 A         62.87%     2 S               2.096  0.00     6 H
                                   52.63%     1 S              -6.484  1.00     6 H
                                  -34.69%     2 P:x             4.559  0.00     3 C
                                  -29.52%     2 P:x             4.559  0.00     2 C
                                   22.34%     1 S              -6.484  1.00     5 H
                                   15.85%     2 P:x             4.559  0.00     1 C
                                   -7.07%     4 S               5.658  0.00     8 Cl
                                   -5.38%     1 P:x            -5.135  0.67     2 C
                                    5.08%     2 P:y             4.559  0.00     2 C
                                    4.65%     2 S               2.096  0.00     5 H
                                    4.50%     2 P:y             4.559  0.00     1 C
                                   -2.82%     1 P:x            -5.135  0.67     3 C
                                    2.76%     2 S             -13.802  2.00     2 C
                                    2.03%     2 S               2.096  0.00     7 H
                                   -1.92%     3 S              10.456  0.00     1 C
                                   -1.77%     3 S              10.456  0.00     3 C
                                    1.74%     1 D:xy           10.541  0.00     8 Cl
                                    1.66%     2 P:x             9.557  0.00     4 O
                                   -1.41%     3 S              10.456  0.00     2 C
                                    1.40%     3 P:x            55.959  0.00     2 C
                                    1.38%     3 P:x             6.179  0.00     8 Cl
                                    1.23%     1 P:x            -5.135  0.67     1 C
                                    1.14%     3 S              41.380  0.00     5 H
                                    1.14%     2 S             -13.802  2.00     3 C
                                    1.13%     3 P:x            55.959  0.00     3 C
       0.976  0.00    29 A         58.30%     2 S               2.096  0.00     5 H
                                   25.49%     1 S              -6.484  1.00     5 H
                                   20.40%     2 S               2.096  0.00     6 H
                                   17.54%     1 S              -6.484  1.00     7 H
                                  -15.03%     2 P:y             4.559  0.00     2 C
                                  -12.18%     2 P:x             4.559  0.00     2 C
                                   12.12%     1 P:x            -5.135  0.67     1 C
                                  -10.41%     2 P:x             4.559  0.00     1 C
                                   -9.14%     2 P:y             4.559  0.00     1 C
                                    7.86%     2 S               2.096  0.00     7 H
                                    5.42%     1 S              -6.484  1.00     6 H
                                    5.27%     2 P:y             4.559  0.00     3 C
                                   -5.23%     3 S              10.456  0.00     3 C
                                   -3.52%     2 S             -13.802  2.00     3 C
                                   -3.44%     4 S               5.658  0.00     8 Cl
                                    2.97%     3 P:y             6.179  0.00     8 Cl
                                   -2.90%     1 P:y            -5.135  0.67     1 C
                                    2.87%     1 P:x            -5.135  0.67     2 C
                                    2.85%     1 P:y            -5.135  0.67     3 C
                                   -2.70%     3 S              10.456  0.00     2 C
                                   -2.64%     1 P:y            -5.135  0.67     2 C
                                    2.33%     1 P:x            -5.135  0.67     3 C
                                    2.08%     3 S              41.380  0.00     7 H
                                   -1.95%     3 S              21.890  0.00     4 O
                                   -1.78%     3 P:x             6.179  0.00     8 Cl
                                    1.75%     2 P:x            -8.486  1.67     8 Cl

 Energy gradients wrt nuclear displacements
 ==========================================

     Atom      Cartesian (a.u./angstrom)
                 X         Y         Z
 ----------------------------------------
     1 C     0.000228 -0.000058  0.000019
     2 C    -0.000051 -0.000178  0.000022
     3 C     0.000112 -0.000191 -0.000106
     4 O     0.000244  0.000180 -0.000025
     5 H     0.000110  0.000189  0.000105
     6 H     0.000093 -0.000259 -0.000133
     7 Cl   -0.000480  0.000095 -0.000015
     8 H    -0.000256  0.000222  0.000132
 ----------------------------------------



 =======================================================================
 Electrostatic potential at the Nuclei due to electrons and other nuclei
 =======================================================================
  
         Atom                  Potential
         ----                  ---------
     1)   C                  14.69703881
     2)   C                  14.75794567
     3)   C                  14.70109693
     4)   O                  22.39504475
     5)   H                   1.07306223
     6)   H                   1.09156014
     7)   Cl                 64.84555642
     8)   H                   1.05506508
 Mulliken charges used for AMS results%charges...


    =====================
     CALCULATION RESULTS
    =====================

Energy (hartree)            -1.62763267

Gradients (hartree/bohr)
  Index   Atom            d/dx            d/dy            d/dz
      1      C    0.0001204676   -0.0000307511    0.0000103080
      2      C   -0.0000270187   -0.0000941342    0.0000116991
      3      C    0.0000592109   -0.0001009090   -0.0000561912
      4      O    0.0001288842    0.0000951005   -0.0000130530
      5      H    0.0000582900    0.0001001597    0.0000558093
      6      H    0.0000493365   -0.0001369694   -0.0000704633
      7     Cl   -0.0002538981    0.0000500788   -0.0000079432
      8      H   -0.0001352723    0.0001174247    0.0000698343


--------------
Atomic charges
--------------
  Index   Atom    Charge
      1      C    0.2760
      2      C    0.2035
      3      C    0.6238
      4      O   -0.4810
      5      H   -0.1602
      6      H   -0.2126
      7     Cl   -0.0922
      8      H   -0.1572


Dipole moment vector    (Debye):    -1.07281532   -2.72954763   -0.27318385
              magnitude (Debye):     2.94550376


AMS application finished. Exiting.
NORMAL TERMINATION
     Total cpu time:      57.86
  Total system time:       3.56
 Total elapsed time:      66.28
