

 Parallel Execution: Process Information
 ==============================================================================
 Rank   Node Name                              NodeID   MyNodeRank  NodeMaster
    0   node109                                   0          0          0
    1   node109                                   0          1         -1
    2   node109                                   0          2         -1
    3   node109                                   0          3         -1
 ==============================================================================


May use up to 122928MB of RAM as shared memory on node 0

 *******************************************************************************
 *                                                                             *
 *  --------------------------------                                           *
 *   Amsterdam Modeling Suite (AMS)              2021.102                      *
 *  --------------------------------                                           *
 *                                               r95042 2021-06-07             *
 *                                                                             *
 *                                                                             *
 *                              =================                              *
 *                              |               |                              *
 *                              |     A M S     |                              *
 *                              |               |                              *
 *                              =================                              *
 *                                                                             *
 *                                                                             *
 *   Online information and documentation:  https://www.scm.com/support/       *
 *   E-mail:  support@scm.com   info@scm.com                                   *
 *                                                                             *
 *   Scientific publications using AMS results must be properly referenced     *
 *   See the User Manuals (or the web site) for recommended citations          *
 *   The terms and conditions of the End User License Agreement apply to       *
 *   the use of AMS, https://www.scm.com/license-terms/                        *
 *                                                                             *
 **********************  x86_64_linux_intel / intelmpi  ************************
 
 Licensed to: VU/FEW (+ SARA) / ALGEMEEN / Amsterdam / THE NETHERLANDS
 SCM User ID: u7668
  
 AMS 2021.102  RunTime: Jan30-2022 09:04:50  ShM Nodes: 1  Procs: 4

 AMS jobname: 6.achiral_catalyst.H_Ph_ZnCl2.P1
 AMS jobid  : 20717259

 Start   directory: /scistor/tc/yhk800/MasterProject/calculations/achiral_catalyst_H_Ph_ZnCl2/6.achiral_catalyst.H_Ph_ZnCl2.P1/
 Results directory: /scistor/tc/yhk800/MasterProject/calculations/achiral_catalyst_H_Ph_ZnCl2/6.achiral_catalyst.H_Ph_ZnCl2.P1/
 Scratch directory: /scratch/5292/amstmp_6.achiral_catalyst.H_Ph_ZnCl2.P1_kid0.20717259/


 Communication costs MPI_COMM_WORLD:      0.808 usec per message,   0.0066 usec per 8-byte item
 Communication costs for intra-node:      0.776 usec per message,   0.0066 usec per 8-byte item

 RNG seed: 157864648 -803682483 -1974932546 1405740286 -1908988817 -1016336668 796973897 135952657



                      ************************************************************************
                      *  ADF 2021.102  RunTime: Jan30-2022 09:04:51  ShM Nodes: 1  Procs: 4  *
                      ************************************************************************
  
       ***************************
       *  GEOMETRY OPTIMIZATION  *
       ***************************

Optimization Method                    Quasi Newton
Optimization Coordinates               Delocalized Coordinates
Optimize lattice                       F
 
 ------------------------------------------------------
 Convergence criteria (Hartree,Angstrom)
 ------------------------------------------------------
 Maximum gradient               0.001000000000
 Maximum rms gradient           0.000666666667
 Maximum step allowed           0.010000000000
 Maximum rms step allowed       0.006666666667
 Maximum energy change allowe   0.000250000000
 Maximum stress energy allowe   0.000500000000
 
Initial model Hessian                  Automatic Hessian
 
------------------------------------
Quasi-Newton Optimizer Parameters
------------------------------------
Hessian Update Method                  BFGS
Maximum number of steps                  250
First GDIIS cycle                          0
Maximum GDIIS vectors                      0
Trust radius (bohr)                        0.200000
Trust radius varies                        T
Constraints converged at all steps         T
Use projector                              T
 
 Rigid motions settings for: old optimizer
 Atomic rotations (x,y,z):     T T T
 Atomic translations (x,y,z):  T T T
 Tolerance:                   1.000000000000000E-006
 
--------
Geometry
--------
Formula: C10H11Cl2OSn
Atoms
  Index Symbol   x (angstrom)   y (angstrom)   z (angstrom)
      1      H     0.30883566    -1.71322737     0.34845077
      2      C    -0.85933175     0.07325638     0.95361639
      3      C     0.30566658    -0.62207952     0.35697327
      4      C     1.44363467     0.02246096    -0.23005168
      5      O     2.41991567    -0.55928782    -0.73004528
      6      H    -0.69195270     1.15283717     0.94428296
      7      H    -2.09949902     0.10683830     2.73788510
      8      H    -0.38777363    -0.20492454     3.06899219
      9      C    -1.20706757    -0.41125312     2.37345100
     10      H    -1.40849480    -1.48746718     2.39475159
     11      C    -4.29292549    -0.66839322    -1.59666079
     12      C    -3.82114632     0.63831354    -1.41996901
     13      C    -2.71340734     0.87758301    -0.59720381
     14      C    -2.07744753    -0.18985427     0.04886961
     15      C    -2.54922669    -1.49656102    -0.12782217
     16      C    -3.65696567    -1.73583049    -0.95058737
     17      H    -4.30779978     1.45514508    -1.91436167
     18      H    -2.35238932     1.87750995    -0.46199454
     19      H    -2.06257324    -2.31339256     0.36657049
     20      H    -4.01798370    -2.73575744    -1.08579664
     21      H    -5.14059697    -0.85148861    -2.22626272
     22      H     2.13175883    -0.63340533    -0.72119785
     23     Sn     1.54062743     0.82456511    -0.28082009
     24     Cl     1.39295292     1.73554202     1.91467519
     25     Cl     0.41913416     2.51362980    -1.53027936
 
Total System Charge             0.00000
 
 
----------------
ADF Engine Input
----------------
 
 NumericalQuality VeryGood
 SCF
 Converge 1.0e-6
 Iterations 99
 End
 SYMMETRY NOSYM
 SpinPolarization 1.0
 Unrestricted Yes
 XC
 GGA OLYP
 End
 basis
 core None
 type TZ2P
 End
 

 Title: *** (NO TITLE) ***

 Using automatic Hessian for delocalized coordinates.
 *** GOStep1 ***

 Energy gradients wrt nuclear displacements
 ==========================================

     Atom      Cartesian (a.u./angstrom)
                 X         Y         Z
 ----------------------------------------
     1 H    -0.017368 -0.008649  0.015579
     2 C     0.059820 -0.003861  0.004682
     3 C     0.057103  0.163742 -0.070387
     4 C     2.983950 21.726147 -1.651603
     5 O   -29.498423 -7.039106  0.818400
     6 H     0.009942  0.005530 -0.010604
     7 H     0.000502 -0.000160  0.003358
     8 H     0.001736  0.000113  0.002058
     9 C    -0.018412 -0.003634 -0.017894
    10 H    -0.000383 -0.003221  0.001799
    11 C    -0.020354 -0.006467 -0.014616
    12 C    -0.011443  0.024326 -0.014101
    13 C     0.016076  0.025667  0.004590
    14 C    -0.002970 -0.002834  0.005025
    15 C     0.022511 -0.020018  0.021959
    16 C    -0.011572 -0.024460 -0.006035
    17 H     0.009038 -0.015888  0.009078
    18 H    -0.005359 -0.016045 -0.001103
    19 H    -0.005390  0.017382 -0.006799
    20 H     0.007124  0.019627  0.002320
    21 H     0.016236  0.003903  0.012106
    22 H    28.833360  8.116448 -0.355334
    23 Sn   -2.476375-22.837674  1.312858
    24 Cl   -0.002471 -0.055933 -0.107006
    25 Cl    0.053123 -0.064936  0.041671
 ----------------------------------------
 Mulliken charges used for AMS results%charges...
 
----------------------------------------------------------------------
Geometry Convergence after Step   1       (Hartree/Angstrom,Angstrom)
----------------------------------------------------------------------
current energy                                4.24272212 Hartree
energy change                       4.24272212     0.00025000    F
constrained gradient max           29.49838926     0.00100000    F
constrained gradient rms            6.14370592     0.00066667    F
gradient max                       29.49838926
gradient rms                        6.14370592
cart. step max                      0.02892477     0.01000000    F
cart. step rms                      0.00668541     0.00666667    F
 
 
--------
Geometry
--------
Formula: C10H11Cl2OSn
Atoms
  Index Symbol   x (angstrom)   y (angstrom)   z (angstrom)
      1      H     0.30323005    -1.71727876     0.35032996
      2      C    -0.86045810     0.07514944     0.95423705
      3      C     0.30355210    -0.62615142     0.35744531
      4      C     1.43692529    -0.00330070    -0.22777618
      5      O     2.44757699    -0.55569128    -0.73097859
      6      H    -0.69400409     1.15484606     0.94526937
      7      H    -2.09758243     0.10469385     2.74067434
      8      H    -0.38489631    -0.20533863     3.06842146
      9      C    -1.20511623    -0.41176224     2.37401827
     10      H    -1.40512434    -1.48824877     2.39417135
     11      C    -4.29217401    -0.66885228    -1.59807096
     12      C    -3.82174631     0.63818360    -1.42057695
     13      C    -2.71465701     0.87817295    -0.59719429
     14      C    -2.07792724    -0.18887109     0.04874823
     15      C    -2.54841680    -1.49594979    -0.12878868
     16      C    -3.65550081    -1.73592047    -0.95216926
     17      H    -4.30898668     1.45483131    -1.91488294
     18      H    -2.35467965     1.87847167    -0.46139157
     19      H    -2.06122498    -2.31263166     0.36549213
     20      H    -4.01551599    -2.73621974    -1.08799519
     21      H    -5.13943512    -0.85250570    -2.22821055
     22      H     2.10283406    -0.64677703    -0.71900600
     23     Sn     1.53997088     0.83734275    -0.28086859
     24     Cl     1.40118562     1.75150463     1.91443093
     25     Cl     0.41811551     2.52706212    -1.52986307
 
Total System Charge             0.00000
 
 *** GOStep2 ***

 Energy gradients wrt nuclear displacements
 ==========================================

     Atom      Cartesian (a.u./angstrom)
                 X         Y         Z
 ----------------------------------------
     1 H    -0.012914 -0.006375  0.015012
     2 C     0.058515 -0.000580  0.003432
     3 C     0.050175  0.160700 -0.066128
     4 C     2.520800 17.652937 -1.408807
     5 O   -18.053740 -4.215196  0.571796
     6 H     0.008315  0.005920 -0.010177
     7 H     0.000444 -0.000196  0.003249
     8 H     0.001579 -0.000034  0.002097
     9 C    -0.017457 -0.004080 -0.017360
    10 H    -0.000447 -0.003280  0.001814
    11 C    -0.020258 -0.006623 -0.014451
    12 C    -0.011323  0.024200 -0.013922
    13 C     0.015723  0.025334  0.004660
    14 C    -0.002993 -0.002774  0.004745
    15 C     0.022536 -0.019870  0.022017
    16 C    -0.011615 -0.024339 -0.006117
    17 H     0.008916 -0.015838  0.009080
    18 H    -0.005392 -0.016025 -0.001050
    19 H    -0.005424  0.017208 -0.006625
    20 H     0.007002  0.019471  0.002365
    21 H     0.016062  0.003844  0.012125
    22 H    17.396558  5.268862 -0.109451
    23 Sn   -2.008632-18.743568  1.065951
    24 Cl   -0.005007 -0.055704 -0.104989
    25 Cl    0.048579 -0.063993  0.040734
 ----------------------------------------
 Mulliken charges used for AMS results%charges...

 dE(predicted):    -0.26465E+01, dE(actual):    -0.21964E+01, Trust radius:    0.400000, all in a.u.
 
----------------------------------------------------------------------
Geometry Convergence after Step   2       (Hartree/Angstrom,Angstrom)
----------------------------------------------------------------------
current energy                                2.04635903 Hartree
energy change                      -2.19636309     0.00025000    F
constrained gradient max           18.74337888     0.00100000    F
constrained gradient rms            4.24416359     0.00066667    F
gradient max                       18.74337888
gradient rms                        4.24416359
cart. step max                      0.07111745     0.01000000    F
cart. step rms                      0.01489090     0.00666667    F
 
 
--------
Geometry
--------
Formula: C10H11Cl2OSn
Atoms
  Index Symbol   x (angstrom)   y (angstrom)   z (angstrom)
      1      H     0.28815001    -1.72860486     0.35597817
      2      C    -0.86346745     0.08078309     0.95607127
      3      C     0.29815041    -0.63758561     0.35888394
      4      C     1.41839319    -0.07441815    -0.22099435
      5      O     2.48384069    -0.55830905    -0.73312775
      6      H    -0.69988786     1.16080019     0.94824446
      7      H    -2.09175561     0.09839733     2.74868771
      8      H    -0.37627822    -0.20628425     3.06673572
      9      C    -1.19912281    -0.41314762     2.37564131
     10      H    -1.39482637    -1.49042186     2.39241825
     11      C    -4.28991975    -0.67026682    -1.60198589
     12      C    -3.82355568     0.63769713    -1.42207926
     13      C    -2.71833749     0.87983860    -0.59699318
     14      C    -2.07915410    -0.18598628     0.04845407
     15      C    -2.54583902    -1.49415869    -0.13167655
     16      C    -3.65101326    -1.73620299    -0.95674215
     17      H    -4.31267469     1.45387595    -1.91606646
     18      H    -2.36149393     1.88133349    -0.45942982
     19      H    -2.05696285    -2.31051489     0.36217368
     20      H    -4.00803528    -2.73770452    -1.09442425
     21      H    -5.13609408    -0.85559683    -2.23369405
     22      H     2.05957376    -0.67868666    -0.71458878
     23     Sn     1.53791578     0.87471776    -0.28089843
     24     Cl     1.42037093     1.79709274     1.91439528
     25     Cl     0.41796808     2.56811163    -1.52951736
 
Total System Charge             0.00000
 
 *** GOStep3 ***

 Energy gradients wrt nuclear displacements
 ==========================================

     Atom      Cartesian (a.u./angstrom)
                 X         Y         Z
 ----------------------------------------
     1 H    -0.000847  0.001231  0.009324
     2 C     0.054976  0.009161  0.003362
     3 C     0.043967  0.169351 -0.062011
     4 C     1.644118 10.343360 -0.960598
     5 O    -9.408047 -2.175628  0.371670
     6 H     0.004614  0.006621 -0.009327
     7 H     0.000511 -0.000369  0.002592
     8 H     0.001319 -0.000310  0.001902
     9 C    -0.014935 -0.005729 -0.016037
    10 H    -0.000558 -0.003564  0.001833
    11 C    -0.019517 -0.007060 -0.013919
    12 C    -0.010852  0.023568 -0.013297
    13 C     0.015084  0.024570  0.004819
    14 C    -0.003348 -0.003329  0.002978
    15 C     0.022810 -0.019273  0.021741
    16 C    -0.011663 -0.023911 -0.006448
    17 H     0.008734 -0.015612  0.008895
    18 H    -0.005178 -0.015935 -0.001226
    19 H    -0.005333  0.016440 -0.006277
    20 H     0.006777  0.018901  0.002314
    21 H     0.015650  0.003606  0.011894
    22 H     8.792986  3.152293  0.075787
    23 Sn   -1.148631-11.380193  0.629405
    24 Cl   -0.012469 -0.057199 -0.094460
    25 Cl    0.029833 -0.060990  0.035085
 ----------------------------------------
 Mulliken charges used for AMS results%charges...

 dE(predicted):    -0.30496E+01, dE(actual):    -0.27116E+01, Trust radius:    0.800000, all in a.u.
 
----------------------------------------------------------------------
Geometry Convergence after Step   3       (Hartree/Angstrom,Angstrom)
----------------------------------------------------------------------
current energy                               -0.66524253 Hartree
energy change                      -2.71160156     0.00025000    F
constrained gradient max           11.38026869     0.00100000    F
constrained gradient rms            2.37357753     0.00066667    F
gradient max                       11.38026869
gradient rms                        2.37357753
cart. step max                      0.12554171     0.01000000    F
cart. step rms                      0.03338073     0.00666667    F
 
 
--------
Geometry
--------
Formula: C10H11Cl2OSn
Atoms
  Index Symbol   x (angstrom)   y (angstrom)   z (angstrom)
      1      H     0.24751565    -1.75966233     0.37970147
      2      C    -0.87562642     0.09344872     0.96556211
      3      C     0.27744482    -0.66720996     0.37224156
      4      C     1.37137924    -0.19995986    -0.19425043
      5      O     2.52442193    -0.60886947    -0.75845786
      6      H    -0.72103854     1.17332353     0.96083573
      7      H    -2.07948804     0.08113338     2.77432892
      8      H    -0.35631006    -0.20614829     3.06677421
      9      C    -1.18592107    -0.41688148     2.38555123
     10      H    -1.36846187    -1.49578005     2.39438409
     11      C    -4.28936739    -0.67350510    -1.61414850
     12      C    -3.83280440     0.63440373    -1.42489464
     13      C    -2.73353035     0.88005670    -0.59451182
     14      C    -2.08727531    -0.18203379     0.04972435
     15      C    -2.54756080    -1.49170999    -0.14199429
     16      C    -3.64598182    -1.73668943    -0.97204120
     17      H    -4.32696150     1.45301901    -1.91817855
     18      H    -2.38483348     1.88704638    -0.45095459
     19      H    -2.05601886    -2.31220651     0.34969181
     20      H    -3.99634428    -2.74370471    -1.11675149
     21      H    -5.13449659    -0.86207306    -2.25278312
     22      H     2.07832371    -0.76470907    -0.72525762
     23     Sn     1.53966505     0.97668790    -0.28035505
     24     Cl     1.47352164     1.91999119     1.92941472
     25     Cl     0.42569316     2.67679138    -1.54816545
 
Total System Charge             0.00000
 
 *** GOStep4 ***

 Energy gradients wrt nuclear displacements
 ==========================================

     Atom      Cartesian (a.u./angstrom)
                 X         Y         Z
 ----------------------------------------
     1 H     0.032720  0.025839 -0.025983
     2 C     0.057111  0.024833  0.017182
     3 C    -0.024335  0.180205  0.005289
     4 C     0.965862  4.021770 -0.603628
     5 O    -7.162794 -2.290074  0.497248
     6 H    -0.006036  0.005885 -0.005540
     7 H    -0.000633 -0.001233  0.004382
     8 H     0.001129 -0.000549  0.001205
     9 C    -0.014282 -0.000730 -0.012867
    10 H     0.000304 -0.003188  0.000416
    11 C    -0.014454 -0.003332 -0.010455
    12 C    -0.009180  0.016422 -0.011639
    13 C     0.010201  0.017234  0.004550
    14 C    -0.003162 -0.000614  0.000349
    15 C     0.015682 -0.012355  0.015147
    16 C    -0.007220 -0.018218 -0.003683
    17 H     0.006111 -0.011816  0.005919
    18 H    -0.004400 -0.012201 -0.000209
    19 H    -0.002768  0.012247 -0.004593
    20 H     0.004487  0.013976  0.001572
    21 H     0.011364  0.002735  0.008814
    22 H     6.765327  2.924456 -0.168672
    23 Sn   -0.610834 -4.833199  0.313390
    24 Cl   -0.018970 -0.037340 -0.040525
    25 Cl    0.008770 -0.020754  0.012332
 ----------------------------------------
 Mulliken charges used for AMS results%charges...

 dE(predicted):    -0.17861E+01, dE(actual):    -0.20418E+01, Trust radius:    1.000000, all in a.u.
 
----------------------------------------------------------------------
Geometry Convergence after Step   4       (Hartree/Angstrom,Angstrom)
----------------------------------------------------------------------
current energy                               -2.70701815 Hartree
energy change                      -2.04177562     0.00025000    F
constrained gradient max            7.16281029     0.00100000    F
constrained gradient rms            1.42594254     0.00066667    F
gradient max                        7.16281029
gradient rms                        1.42594254
cart. step max                      0.19275148     0.01000000    F
cart. step rms                      0.03508177     0.00666667    F
 
 
--------
Geometry
--------
Formula: C10H11Cl2OSn
Atoms
  Index Symbol   x (angstrom)   y (angstrom)   z (angstrom)
      1      H     0.21313044    -1.78524572     0.40218482
      2      C    -0.88736102     0.09346141     0.97505430
      3      C     0.26062326    -0.68509571     0.38436323
      4      C     1.33040712    -0.21438458    -0.17020757
      5      O     2.71717341    -0.54789590    -0.79903175
      6      H    -0.73669698     1.17254453     0.97045601
      7      H    -2.07619599     0.07025534     2.79059862
      8      H    -0.34942836    -0.20832802     3.07154381
      9      C    -1.18265947    -0.42280178     2.39650765
     10      H    -1.35864485    -1.50193491     2.40465692
     11      C    -4.28990543    -0.67320321    -1.62417572
     12      C    -3.83451238     0.63220748    -1.42709889
     13      C    -2.74048682     0.87509284    -0.59175402
     14      C    -2.09557209    -0.18730535     0.05241570
     15      C    -2.55694269    -1.49656258    -0.14848449
     16      C    -3.65001996    -1.73748754    -0.98395697
     17      H    -4.32769378     1.45609178    -1.92085640
     18      H    -2.39264725     1.88529880    -0.44339665
     19      H    -2.06847434    -2.32357633     0.34249106
     20      H    -4.00060782    -2.74761830    -1.13482953
     21      H    -5.13487911    -0.85982602    -2.26997794
     22      H     1.95242468    -0.86560178    -0.71584855
     23     Sn     1.55322524     1.02387785    -0.28462474
     24     Cl     1.54802240     1.99449903     1.92745126
     25     Cl     0.42366618     2.70829751    -1.56801457
 
Total System Charge             0.00000
 
 *** GOStep5 ***

 Energy gradients wrt nuclear displacements
 ==========================================

     Atom      Cartesian (a.u./angstrom)
                 X         Y         Z
 ----------------------------------------
     1 H     0.031768  0.007608 -0.016610
     2 C     0.050801  0.041799  0.007531
     3 C     0.036021  0.153684 -0.031175
     4 C     0.828737  3.013547 -0.468045
     5 O    -0.664314 -0.078132  0.098485
     6 H    -0.008092  0.003395 -0.004907
     7 H     0.000251 -0.000298  0.001234
     8 H     0.000519 -0.000529  0.000739
     9 C    -0.006916 -0.007152 -0.011246
    10 H     0.000357 -0.002262  0.000717
    11 C    -0.008506 -0.002361 -0.006077
    12 C    -0.005364  0.010426 -0.007524
    13 C     0.007422  0.012720  0.003207
    14 C    -0.004317 -0.001670 -0.003509
    15 C     0.010708 -0.010482  0.010415
    16 C    -0.004997 -0.011591 -0.002975
    17 H     0.004087 -0.007976  0.003829
    18 H    -0.002617 -0.008247 -0.000063
    19 H    -0.001077  0.008564 -0.002810
    20 H     0.002880  0.009335  0.000959
    21 H     0.007498  0.001791  0.005914
    22 H     0.334365  0.478166  0.130988
    23 Sn   -0.582265 -3.566934  0.302891
    24 Cl   -0.021466 -0.029967 -0.017924
    25 Cl   -0.005484 -0.013434  0.005955
 ----------------------------------------
 Mulliken charges used for AMS results%charges...
 Rebuilding optimization coordinates

 dE(predicted):    -0.20534E+01, dE(actual):    -0.12942E+01, Trust radius:    1.000000, all in a.u.
 
----------------------------------------------------------------------
Geometry Convergence after Step   5       (Hartree/Angstrom,Angstrom)
----------------------------------------------------------------------
current energy                               -4.00121492 Hartree
energy change                      -1.29419677     0.00025000    F
constrained gradient max            3.56694044     0.00100000    F
constrained gradient rms            0.56558216     0.00066667    F
gradient max                        3.56694044
gradient rms                        0.56558216
cart. step max                      0.21228278     0.01000000    F
cart. step rms                      0.04600410     0.00666667    F
 
 
--------
Geometry
--------
Formula: C10H11Cl2OSn
Atoms
  Index Symbol   x (angstrom)   y (angstrom)   z (angstrom)
      1      H     0.13648093    -1.85434261     0.47542545
      2      C    -0.89582679     0.05665450     0.97660142
      3      C     0.24318257    -0.74939297     0.40990128
      4      C     1.27207016    -0.26847402    -0.10464451
      5      O     2.75830860    -0.45206263    -0.82219307
      6      H    -0.73115255     1.13285305     0.97000787
      7      H    -2.07280348     0.04995967     2.79505266
      8      H    -0.34297408    -0.21217453     3.07563320
      9      C    -1.17713404    -0.44420962     2.40809179
     10      H    -1.34698322    -1.52298639     2.43293388
     11      C    -4.30616535    -0.66513788    -1.63773122
     12      C    -3.82827403     0.62874176    -1.42889892
     13      C    -2.72864912     0.84594634    -0.59716196
     14      C    -2.09912394    -0.22616033     0.04592193
     15      C    -2.58926260    -1.52493169    -0.16579130
     16      C    -3.68417692    -1.74136447    -1.00351236
     17      H    -4.30727775     1.46985396    -1.91666485
     18      H    -2.36178901     1.85359699    -0.44904104
     19      H    -2.12700608    -2.37090668     0.32585528
     20      H    -4.05334055    -2.74876943    -1.15830304
     21      H    -5.15707479    -0.83367346    -2.28770985
     22      H     1.99146961    -0.87759013    -0.71681051
     23     Sn     1.56952254     1.11694793    -0.28142491
     24     Cl     1.70422249     2.20678181     1.87469123
     25     Cl     0.44970182     2.78559966    -1.58476286
 
Total System Charge             0.00000
 
 *** GOStep6 ***

 Energy gradients wrt nuclear displacements
 ==========================================

     Atom      Cartesian (a.u./angstrom)
                 X         Y         Z
 ----------------------------------------
     1 H     0.017751 -0.009312 -0.008661
     2 C     0.055619  0.053864  0.003046
     3 C     0.132715  0.172069 -0.082240
     4 C     0.461410  1.429010 -0.287571
     5 O    -0.465669 -0.090735  0.100443
     6 H    -0.008088  0.000032 -0.003242
     7 H     0.000547  0.000266 -0.001765
     8 H    -0.000610 -0.000388  0.000268
     9 C     0.000419 -0.012992 -0.007500
    10 H     0.000263 -0.001018  0.001043
    11 C    -0.002794 -0.001680 -0.002221
    12 C    -0.002134  0.004269 -0.001560
    13 C     0.005077  0.006884  0.001801
    14 C    -0.001082 -0.008039 -0.008595
    15 C     0.004346 -0.007463  0.003258
    16 C    -0.003195 -0.005091 -0.001814
    17 H     0.001906 -0.003777  0.001811
    18 H    -0.000663 -0.004051 -0.000182
    19 H    -0.000438  0.004666 -0.001358
    20 H     0.001047  0.004359  0.000335
    21 H     0.003405  0.000719  0.002532
    22 H     0.178109  0.331638  0.087375
    23 Sn   -0.350280 -1.848472  0.200316
    24 Cl   -0.015654 -0.013701  0.001551
    25 Cl   -0.012007 -0.001056  0.002928
 ----------------------------------------
 Mulliken charges used for AMS results%charges...

 dE(predicted):    -0.40800E+00, dE(actual):    -0.48485E+00, Trust radius:    1.000000, all in a.u.
 
----------------------------------------------------------------------
Geometry Convergence after Step   6       (Hartree/Angstrom,Angstrom)
----------------------------------------------------------------------
current energy                               -4.48606127 Hartree
energy change                      -0.48484636     0.00025000    F
constrained gradient max            1.84847343     0.00100000    F
constrained gradient rms            0.29128885     0.00066667    F
gradient max                        1.84847343
gradient rms                        0.29128885
cart. step max                      0.18895432     0.01000000    F
cart. step rms                      0.05595608     0.00666667    F
 
 
--------
Geometry
--------
Formula: C10H11Cl2OSn
Atoms
  Index Symbol   x (angstrom)   y (angstrom)   z (angstrom)
      1      H     0.11778637    -1.94417999     0.52502441
      2      C    -0.90698643    -0.03207434     0.96393078
      3      C     0.24549574    -0.84382653     0.42313404
      4      C     1.28320926    -0.30938961    -0.03915525
      5      O     2.87297827    -0.26310831    -0.84915804
      6      H    -0.71839253     1.04098533     0.95649796
      7      H    -2.07382877     0.05190357     2.79425946
      8      H    -0.34183390    -0.20090350     3.06991513
      9      C    -1.18271051    -0.46171558     2.42130909
     10      H    -1.35570862    -1.53700149     2.49649724
     11      C    -4.34686250    -0.64624388    -1.64783939
     12      C    -3.82466925     0.62960328    -1.44068766
     13      C    -2.71832831     0.80885651    -0.60978568
     14      C    -2.11616424    -0.28028927     0.03306840
     15      C    -2.65951128    -1.55860986    -0.17174373
     16      C    -3.76029693    -1.73893900    -1.00902144
     17      H    -4.27720013     1.48984489    -1.92604358
     18      H    -2.31992046     1.80753945    -0.46518662
     19      H    -2.23740598    -2.42366633     0.32800891
     20      H    -4.16397262    -2.73658413    -1.15805705
     21      H    -5.20606573    -0.78802958    -2.29730403
     22      H     2.13657107    -0.83224146    -0.71631808
     23     Sn     1.57893272     1.19879555    -0.26519581
     24     Cl     1.81257499     2.38666241     1.82701564
     25     Cl     0.47825418     2.83737072    -1.60769913
 
Total System Charge             0.00000
 
 *** GOStep7 ***

 Energy gradients wrt nuclear displacements
 ==========================================

     Atom      Cartesian (a.u./angstrom)
                 X         Y         Z
 ----------------------------------------
     1 H     0.003792 -0.013775  0.002540
     2 C     0.053434  0.046765 -0.002335
     3 C     0.134678  0.118953 -0.080132
     4 C     0.314763  0.837233 -0.210019
     5 O    -0.360980 -0.120637  0.128685
     6 H    -0.007316 -0.002376  0.001009
     7 H     0.000456  0.000415 -0.001953
     8 H    -0.001083  0.000320  0.000757
     9 C     0.005606 -0.009359 -0.001572
    10 H     0.000416  0.000901 -0.000209
    11 C    -0.000208 -0.000641 -0.000255
    12 C    -0.000440  0.000942  0.000033
    13 C     0.001428  0.003478  0.001922
    14 C     0.000472 -0.008122 -0.014630
    15 C     0.000727 -0.003714  0.000950
    16 C    -0.001211 -0.001069 -0.000802
    17 H     0.000533 -0.001262  0.000719
    18 H     0.000323 -0.001657 -0.000483
    19 H    -0.001085  0.002034 -0.000369
    20 H     0.000408  0.001486 -0.000036
    21 H     0.000985  0.000254  0.000763
    22 H     0.069738  0.184153  0.036179
    23 Sn   -0.172605 -1.039040  0.123350
    24 Cl   -0.015872 -0.005220  0.019773
    25 Cl   -0.026960  0.009936 -0.003886
 ----------------------------------------
 Mulliken charges used for AMS results%charges...

 dE(predicted):    -0.14088E+00, dE(actual):    -0.23762E+00, Trust radius:    1.000000, all in a.u.
 
----------------------------------------------------------------------
Geometry Convergence after Step   7       (Hartree/Angstrom,Angstrom)
----------------------------------------------------------------------
current energy                               -4.72368240 Hartree
energy change                      -0.23762113     0.00025000    F
constrained gradient max            1.03905416     0.00100000    F
constrained gradient rms            0.17190144     0.00066667    F
gradient max                        1.03905416
gradient rms                        0.17190144
cart. step max                      0.21134534     0.01000000    F
cart. step rms                      0.05979478     0.00666667    F
 
 
--------
Geometry
--------
Formula: C10H11Cl2OSn
Atoms
  Index Symbol   x (angstrom)   y (angstrom)   z (angstrom)
      1      H     0.00582534    -2.01232591     0.55463079
      2      C    -0.94008016    -0.06741521     0.96343360
      3      C     0.19205768    -0.93041021     0.44380386
      4      C     1.27599825    -0.41470925    -0.00862205
      5      O     3.04270415    -0.05176297    -0.87798741
      6      H    -0.71779513     1.00295917     0.95185460
      7      H    -2.09906498     0.04034233     2.80961795
      8      H    -0.36590301    -0.23059331     3.06370645
      9      C    -1.21787644    -0.48405687     2.42616994
     10      H    -1.40447006    -1.55725380     2.50980837
     11      C    -4.38543936    -0.65435842    -1.64303858
     12      C    -3.85161279     0.61827943    -1.44682236
     13      C    -2.74375927     0.79429691    -0.61681455
     14      C    -2.14781693    -0.29263432     0.03774816
     15      C    -2.70383163    -1.56571625    -0.15862907
     16      C    -3.80601570    -1.74482022    -0.99357089
     17      H    -4.29670766     1.48047121    -1.93955460
     18      H    -2.33998285     1.79401639    -0.48086671
     19      H    -2.28827893    -2.43392881     0.34623897
     20      H    -4.21643255    -2.74306634    -1.13269286
     21      H    -5.24704945    -0.79578938    -2.29194956
     22      H     2.33533670    -0.76833898    -0.77542186
     23     Sn     1.64257546     1.25999314    -0.25890658
     24     Cl     1.93905617     2.49768559     1.77481282
     25     Cl     0.65450755     2.91389490    -1.62148287
 
Total System Charge             0.00000
 
 *** GOStep8 ***

 Energy gradients wrt nuclear displacements
 ==========================================

     Atom      Cartesian (a.u./angstrom)
                 X         Y         Z
 ----------------------------------------
     1 H    -0.003745 -0.009171  0.004040
     2 C     0.043586  0.037748 -0.003096
     3 C     0.068935  0.067345 -0.042559
     4 C     0.173204  0.352113 -0.090973
     5 O    -0.163940 -0.056632  0.072236
     6 H    -0.007309  0.002220  0.001765
     7 H    -0.000190 -0.000408 -0.000175
     8 H    -0.000514  0.000832  0.000319
     9 C     0.005173 -0.009633 -0.002747
    10 H     0.000002 -0.000098  0.000003
    11 C     0.000502 -0.000359  0.000276
    12 C     0.000309 -0.000439  0.000545
    13 C    -0.001747  0.000395  0.000257
    14 C     0.004918 -0.006667 -0.009968
    15 C     0.001195  0.000441  0.000398
    16 C     0.000232  0.001471 -0.000375
    17 H    -0.000556  0.000566 -0.000308
    18 H    -0.000003 -0.000335 -0.000333
    19 H     0.000313 -0.000311  0.000947
    20 H    -0.000217 -0.000638 -0.000155
    21 H    -0.000656 -0.000061 -0.000381
    22 H    -0.005645  0.052440  0.015116
    23 Sn   -0.087134 -0.440387  0.037012
    24 Cl   -0.010950  0.001638  0.017124
    25 Cl   -0.015765  0.007930  0.001032
 ----------------------------------------
 Mulliken charges used for AMS results%charges...

 dE(predicted):    -0.19345E+00, dE(actual):    -0.19549E+00, Trust radius:    1.000000, all in a.u.
 
----------------------------------------------------------------------
Geometry Convergence after Step   8       (Hartree/Angstrom,Angstrom)
----------------------------------------------------------------------
current energy                               -4.91917590 Hartree
energy change                      -0.19549350     0.00025000    F
constrained gradient max            0.44041439     0.00100000    F
constrained gradient rms            0.07475467     0.00066667    F
gradient max                        0.44041439
gradient rms                        0.07475467
cart. step max                      0.20718573     0.01000000    F
cart. step rms                      0.05169412     0.00666667    F
 
 
--------
Geometry
--------
Formula: C10H11Cl2OSn
Atoms
  Index Symbol   x (angstrom)   y (angstrom)   z (angstrom)
      1      H    -0.01540184    -2.07521936     0.56783462
      2      C    -0.96155309    -0.12709572     0.95740810
      3      C     0.17901460    -1.00364688     0.45573392
      4      C     1.28488057    -0.49102488     0.00186270
      5      O     3.16751243     0.15542276    -0.86836956
      6      H    -0.71636084     0.93857310     0.93178104
      7      H    -2.12069934     0.04133579     2.80237702
      8      H    -0.38800367    -0.23448492     3.06075508
      9      C    -1.24347198    -0.49965281     2.43249086
     10      H    -1.43684591    -1.56881564     2.54724431
     11      C    -4.42321868    -0.64403187    -1.63543114
     12      C    -3.85182100     0.61363207    -1.44886070
     13      C    -2.73949312     0.76331127    -0.61994173
     14      C    -2.17444502    -0.33504085     0.04205121
     15      C    -2.76599881    -1.59356332    -0.14868461
     16      C    -3.87476583    -1.74669947    -0.97934271
     17      H    -4.27006440     1.48525522    -1.94859485
     18      H    -2.30655629     1.75284650    -0.49175925
     19      H    -2.37392759    -2.47236130     0.35704926
     20      H    -4.31274186    -2.73423926    -1.11188957
     21      H    -5.28830695    -0.76513880    -2.28387987
     22      H     2.49865727    -0.67117959    -0.79602126
     23     Sn     1.67395930     1.31536317    -0.25747787
     24     Cl     2.01597852     2.59381359     1.72307358
     25     Cl     0.75961793     2.95740003    -1.65394299
 
Total System Charge             0.00000
 
 *** GOStep9 ***

 Energy gradients wrt nuclear displacements
 ==========================================

     Atom      Cartesian (a.u./angstrom)
                 X         Y         Z
 ----------------------------------------
     1 H    -0.004116 -0.000565  0.002755
     2 C     0.033231  0.029240 -0.004924
     3 C     0.028852  0.039706 -0.020380
     4 C     0.119027  0.154083 -0.048567
     5 O    -0.072591  0.007255  0.046894
     6 H    -0.006092  0.002013  0.002604
     7 H    -0.000606 -0.000652  0.000949
     8 H    -0.000168  0.001007  0.000116
     9 C     0.002540 -0.006438 -0.001510
    10 H     0.000144  0.000241 -0.000089
    11 C     0.000431 -0.000233  0.000375
    12 C     0.000715 -0.000906  0.000439
    13 C    -0.001475 -0.001042  0.000971
    14 C     0.003421 -0.005062 -0.005917
    15 C    -0.000376  0.000867 -0.001232
    16 C     0.000364  0.001129 -0.000110
    17 H    -0.000405  0.000784 -0.000379
    18 H     0.000474  0.000616 -0.000105
    19 H    -0.000433 -0.000527  0.000500
    20 H    -0.000314 -0.000918 -0.000177
    21 H    -0.000680 -0.000118 -0.000461
    22 H    -0.043769 -0.017086  0.008315
    23 Sn   -0.045964 -0.211550  0.003723
    24 Cl   -0.005787  0.003994  0.011447
    25 Cl   -0.006425  0.004162  0.004764
 ----------------------------------------
 Mulliken charges used for AMS results%charges...
 Rebuilding optimization coordinates

 dE(predicted):    -0.69271E-01, dE(actual):    -0.68939E-01, Trust radius:    1.000000, all in a.u.
 
----------------------------------------------------------------------
Geometry Convergence after Step   9       (Hartree/Angstrom,Angstrom)
----------------------------------------------------------------------
current energy                               -4.98811487 Hartree
energy change                      -0.06893897     0.00025000    F
constrained gradient max            0.21156069     0.00100000    F
constrained gradient rms            0.03691922     0.00066667    F
gradient max                        0.21156069
gradient rms                        0.03691922
cart. step max                      0.20260911     0.01000000    F
cart. step rms                      0.06128582     0.00666667    F
 
 
--------
Geometry
--------
Formula: C10H11Cl2OSn
Atoms
  Index Symbol   x (angstrom)   y (angstrom)   z (angstrom)
      1      H    -0.01338867    -2.16247363     0.57030159
      2      C    -0.98696099    -0.20928315     0.94306100
      3      C     0.16876369    -1.09372745     0.47083330
      4      C     1.25761398    -0.55509696     0.01383501
      5      O     3.29410807     0.35803187    -0.84671394
      6      H    -0.69984675     0.84582947     0.90004650
      7      H    -2.14242747     0.06431166     2.77194363
      8      H    -0.41833576    -0.25348949     3.05092737
      9      C    -1.28017379    -0.51758466     2.43109194
     10      H    -1.50430932    -1.57580099     2.58818325
     11      C    -4.47206509    -0.63588956    -1.61774427
     12      C    -3.85634022     0.60398204    -1.45381019
     13      C    -2.72957604     0.72465131    -0.64005044
     14      C    -2.20361223    -0.38383865     0.03766289
     15      C    -2.83407189    -1.62532335    -0.13590825
     16      C    -3.95496812    -1.75006979    -0.95431408
     17      H    -4.24767321     1.48253476    -1.96201817
     18      H    -2.26382111     1.70094104    -0.52519335
     19      H    -2.45786314    -2.51310447     0.36649763
     20      H    -4.42579169    -2.72360125    -1.07293659
     21      H    -5.34585542    -0.73532994    -2.25740863
     22      H     2.66629851    -0.51446027    -0.82321328
     23     Sn     1.72868560     1.39318454    -0.22853093
     24     Cl     2.15592061     2.71904736     1.67399507
     25     Cl     0.88163484     3.01131839    -1.66507148
 
Total System Charge             0.00000
 
 *** GOStep10 ***

 Energy gradients wrt nuclear displacements
 ==========================================

     Atom      Cartesian (a.u./angstrom)
                 X         Y         Z
 ----------------------------------------
     1 H    -0.004620  0.005213  0.001283
     2 C     0.023760  0.016267 -0.011229
     3 C     0.030221  0.020068 -0.011880
     4 C     0.058635  0.028043 -0.017580
     5 O    -0.006103  0.048296  0.029706
     6 H    -0.002723  0.000958  0.003304
     7 H    -0.000602 -0.000386  0.000294
     8 H    -0.000026  0.000771  0.000004
     9 C     0.001651 -0.002342  0.000252
    10 H     0.000359  0.000139 -0.000019
    11 C     0.000234  0.000325 -0.000100
    12 C    -0.000383 -0.000065  0.000703
    13 C     0.000522 -0.000907 -0.001462
    14 C     0.000098 -0.001488 -0.001624
    15 C    -0.000364  0.000862 -0.000085
    16 C     0.000514  0.000296  0.000387
    17 H    -0.000092  0.000450 -0.000042
    18 H    -0.000029  0.000735  0.000223
    19 H    -0.000141 -0.000757 -0.000454
    20 H    -0.000033 -0.000447  0.000176
    21 H    -0.000137 -0.000048 -0.000284
    22 H    -0.070475 -0.059412  0.005494
    23 Sn   -0.033505 -0.059684 -0.008566
    24 Cl   -0.000565  0.004528  0.001842
    25 Cl    0.003803 -0.001414  0.009658
 ----------------------------------------
 Mulliken charges used for AMS results%charges...

 dE(predicted):    -0.29489E-01, dE(actual):    -0.41076E-01, Trust radius:    1.000000, all in a.u.
 
----------------------------------------------------------------------
Geometry Convergence after Step  10       (Hartree/Angstrom,Angstrom)
----------------------------------------------------------------------
current energy                               -5.02919119 Hartree
energy change                      -0.04107632     0.00025000    F
constrained gradient max            0.07047630     0.00100000    F
constrained gradient rms            0.01777946     0.00066667    F
gradient max                        0.07047630
gradient rms                        0.01777946
cart. step max                      0.08204850     0.01000000    F
cart. step rms                      0.02453728     0.00666667    F
 
 
--------
Geometry
--------
Formula: C10H11Cl2OSn
Atoms
  Index Symbol   x (angstrom)   y (angstrom)   z (angstrom)
      1      H    -0.01134741    -2.19516978     0.56894061
      2      C    -0.99813419    -0.23361502     0.94145394
      3      C     0.15874420    -1.12382425     0.47941556
      4      C     1.22803357    -0.56117337     0.01580195
      5      O     3.34367673     0.40527448    -0.85962708
      6      H    -0.69186855     0.81615116     0.89100224
      7      H    -2.15056278     0.07601536     2.76445794
      8      H    -0.43420964    -0.27736148     3.05096303
      9      C    -1.30010810    -0.52666829     2.43079053
     10      H    -1.54682505    -1.57910059     2.59469208
     11      C    -4.48357065    -0.63828501    -1.61587204
     12      C    -3.85365167     0.59591070    -1.46249731
     13      C    -2.73147728     0.71302981    -0.64182791
     14      C    -2.21578021    -0.39712306     0.04064348
     15      C    -2.85858815    -1.63339845    -0.12425222
     16      C    -3.98051699    -1.75271592    -0.94221026
     17      H    -4.23218929     1.47318524    -1.98205246
     18      H    -2.25111049     1.68345584    -0.53918116
     19      H    -2.49360368    -2.51922792     0.38973223
     20      H    -4.46227194    -2.72152476    -1.05374685
     21      H    -5.35752803    -0.73320176    -2.25576560
     22      H     2.72787891    -0.43241177    -0.86168636
     23     Sn     1.76899947     1.43012524    -0.20785448
     24     Cl     2.23692189     2.76087619     1.66953530
     25     Cl     0.90503376     3.02553625    -1.65538957
 
Total System Charge             0.00000
 
 *** GOStep11 ***

 Energy gradients wrt nuclear displacements
 ==========================================

     Atom      Cartesian (a.u./angstrom)
                 X         Y         Z
 ----------------------------------------
     1 H    -0.004947  0.004253  0.001196
     2 C     0.022967  0.014540 -0.015302
     3 C     0.036406  0.011809 -0.010772
     4 C     0.030775  0.002315 -0.008588
     5 O     0.008521  0.029982  0.021600
     6 H    -0.000669  0.001350  0.002737
     7 H    -0.000443 -0.000272 -0.000171
     8 H    -0.000042  0.000611 -0.000265
     9 C     0.001174 -0.002149  0.000238
    10 H     0.000302 -0.000139  0.000148
    11 C    -0.000002  0.000235  0.000130
    12 C     0.000421 -0.000150 -0.000478
    13 C    -0.000958  0.000142  0.001023
    14 C     0.000825 -0.000527 -0.000438
    15 C     0.000353  0.000478 -0.000297
    16 C     0.000222  0.000015  0.000212
    17 H     0.000155  0.000200 -0.000093
    18 H     0.000290  0.000466 -0.000303
    19 H    -0.000363 -0.000442  0.000120
    20 H     0.000085 -0.000235  0.000070
    21 H    -0.000137 -0.000004  0.000021
    22 H    -0.065817 -0.043430  0.005803
    23 Sn   -0.034726 -0.019757 -0.005587
    24 Cl   -0.000033  0.003776 -0.001253
    25 Cl    0.005640 -0.003070  0.010246
 ----------------------------------------
 Mulliken charges used for AMS results%charges...

 dE(predicted):    -0.75906E-02, dE(actual):    -0.13025E-01, Trust radius:    1.000000, all in a.u.
 
----------------------------------------------------------------------
Geometry Convergence after Step  11       (Hartree/Angstrom,Angstrom)
----------------------------------------------------------------------
current energy                               -5.04221641 Hartree
energy change                      -0.01302521     0.00025000    F
constrained gradient max            0.06581778     0.00100000    F
constrained gradient rms            0.01322883     0.00066667    F
gradient max                        0.06581778
gradient rms                        0.01322883
cart. step max                      0.21166881     0.01000000    F
cart. step rms                      0.06388638     0.00666667    F
 
 
--------
Geometry
--------
Formula: C10H11Cl2OSn
Atoms
  Index Symbol   x (angstrom)   y (angstrom)   z (angstrom)
      1      H    -0.01606676    -2.26788883     0.54938576
      2      C    -1.02613080    -0.28178045     0.92945235
      3      C     0.12730065    -1.19060746     0.48541082
      4      C     1.18294825    -0.58846474     0.00769888
      5      O     3.50832978     0.52289801    -0.86998672
      6      H    -0.67625185     0.75163982     0.85082950
      7      H    -2.17450202     0.13998592     2.73174262
      8      H    -0.48763609    -0.31499802     3.04944904
      9      C    -1.35973966    -0.52141318     2.42207238
     10      H    -1.67303726    -1.55300693     2.60530922
     11      C    -4.53260725    -0.65206237    -1.59650855
     12      C    -3.88340047     0.57386104    -1.45872173
     13      C    -2.73613984     0.67565284    -0.67088340
     14      C    -2.24313151    -0.43078028     0.03305146
     15      C    -2.91090828    -1.65685858    -0.10900096
     16      C    -4.04006027    -1.76828155    -0.91853317
     17      H    -4.25938988     1.45331020    -1.97594170
     18      H    -2.24439504     1.64059224    -0.57471676
     19      H    -2.54865795    -2.54228509     0.40738860
     20      H    -4.53938278    -2.72938831    -1.01614515
     21      H    -5.41469530    -0.73850165    -2.22610815
     22      H     2.93249796    -0.22296366    -0.93583462
     23     Sn     1.91019918     1.50714035    -0.14642762
     24     Cl     2.44859070     2.82239727     1.69648722
     25     Cl     0.97221088     3.02656222    -1.63400377
 
Total System Charge             0.00000
 
 *** GOStep12 ***

 Energy gradients wrt nuclear displacements
 ==========================================

     Atom      Cartesian (a.u./angstrom)
                 X         Y         Z
 ----------------------------------------
     1 H    -0.004302  0.001660  0.001676
     2 C     0.018755  0.012390 -0.018738
     3 C     0.015990 -0.019499  0.001094
     4 C    -0.000508 -0.022366 -0.005807
     5 O    -0.023115 -0.074396 -0.003189
     6 H     0.003315  0.000253  0.001725
     7 H    -0.000088 -0.000162 -0.000155
     8 H    -0.000227  0.000006 -0.000153
     9 C    -0.001548  0.000258  0.000924
    10 H     0.000289 -0.000251  0.000112
    11 C     0.000678 -0.000222 -0.000752
    12 C    -0.002374  0.000874  0.002904
    13 C     0.004420 -0.001645 -0.005444
    14 C     0.001516  0.001886  0.004779
    15 C    -0.000665  0.000382  0.001440
    16 C    -0.000179 -0.000230 -0.000439
    17 H    -0.000145 -0.000073  0.000450
    18 H    -0.000962  0.000241  0.001038
    19 H     0.000715 -0.000121 -0.000668
    20 H    -0.000154  0.000280  0.000204
    21 H     0.000405 -0.000104 -0.000319
    22 H     0.002931  0.067050  0.015094
    23 Sn   -0.020236  0.039279  0.003541
    24 Cl   -0.000457 -0.000373 -0.007684
    25 Cl    0.005945 -0.005116  0.008367
 ----------------------------------------
 Mulliken charges used for AMS results%charges...
 Rebuilding optimization coordinates

 dE(predicted):    -0.15550E-01, dE(actual):    -0.14228E-01, Trust radius:    1.000000, all in a.u.
 
----------------------------------------------------------------------
Geometry Convergence after Step  12       (Hartree/Angstrom,Angstrom)
----------------------------------------------------------------------
current energy                               -5.05644423 Hartree
energy change                      -0.01422782     0.00025000    F
constrained gradient max            0.07439072     0.00100000    F
constrained gradient rms            0.01420780     0.00066667    F
gradient max                        0.07439072
gradient rms                        0.01420780
cart. step max                      0.04738633     0.01000000    F
cart. step rms                      0.01746550     0.00666667    F
 
 
--------
Geometry
--------
Formula: C10H11Cl2OSn
Atoms
  Index Symbol   x (angstrom)   y (angstrom)   z (angstrom)
      1      H    -0.03126432    -2.25858429     0.50916173
      2      C    -1.03241862    -0.27906516     0.92636936
      3      C     0.11624741    -1.18063348     0.45802813
      4      C     1.19916840    -0.60301419    -0.01883952
      5      O     3.54475350     0.57028434    -0.85157870
      6      H    -0.68735507     0.75495379     0.84328771
      7      H    -2.16165393     0.14506945     2.73912103
      8      H    -0.47589816    -0.32423196     3.04149588
      9      C    -1.35474103    -0.52163557     2.42043373
     10      H    -1.67488385    -1.55128191     2.60240150
     11      C    -4.54518401    -0.66090352    -1.59310833
     12      C    -3.88545261     0.56156844    -1.47583100
     13      C    -2.76262285     0.67701043    -0.65534358
     14      C    -2.25835786    -0.43029304     0.03943919
     15      C    -2.92532088    -1.65742020    -0.09782203
     16      C    -4.05924086    -1.77091246    -0.90018645
     17      H    -4.24813635     1.43304914    -2.01570419
     18      H    -2.25594134     1.63636992    -0.58379759
     19      H    -2.57084994    -2.53737634     0.43308956
     20      H    -4.56105155    -2.73160813    -0.98935313
     21      H    -5.42668044    -0.75089565    -2.22311941
     22      H     2.97614703    -0.21390535    -0.92985195
     23     Sn     1.93394152     1.51412422    -0.14052202
     24     Cl     2.45929931     2.79385409     1.73269517
     25     Cl     1.00344091     3.04023628    -1.63499949
 
Total System Charge             0.00000
 
 *** GOStep13 ***

 Energy gradients wrt nuclear displacements
 ==========================================

     Atom      Cartesian (a.u./angstrom)
                 X         Y         Z
 ----------------------------------------
     1 H    -0.003415  0.001906  0.001602
     2 C     0.016594  0.011192 -0.014157
     3 C    -0.003375 -0.022451  0.006094
     4 C     0.020942 -0.021768 -0.014568
     5 O     0.002759 -0.027441  0.002722
     6 H     0.002600 -0.001023  0.001386
     7 H    -0.000110 -0.000154  0.000187
     8 H    -0.000072  0.000049 -0.000160
     9 C    -0.003221  0.001006  0.000983
    10 H     0.000129 -0.000179  0.000001
    11 C    -0.000658  0.000300  0.000930
    12 C     0.002145 -0.000868 -0.003099
    13 C    -0.003582  0.001579  0.004961
    14 C     0.003322  0.000493  0.001865
    15 C     0.000719 -0.000454 -0.001113
    16 C    -0.000405 -0.000050  0.000335
    17 H     0.000187 -0.000158 -0.000125
    18 H     0.000581 -0.000370 -0.000994
    19 H    -0.000357  0.000280  0.000684
    20 H     0.000232  0.000066 -0.000323
    21 H    -0.000168  0.000114  0.000351
    22 H    -0.027135  0.024030  0.010676
    23 Sn   -0.013313  0.038334  0.002833
    24 Cl    0.000639 -0.000693 -0.006816
    25 Cl    0.004961 -0.003740  0.005745
 ----------------------------------------
 Mulliken charges used for AMS results%charges...

 dE(predicted):    -0.21408E-02, dE(actual):    -0.28137E-02, Trust radius:    1.000000, all in a.u.
 
----------------------------------------------------------------------
Geometry Convergence after Step  13       (Hartree/Angstrom,Angstrom)
----------------------------------------------------------------------
current energy                               -5.05925792 Hartree
energy change                      -0.00281368     0.00025000    F
constrained gradient max            0.03834142     0.00100000    F
constrained gradient rms            0.00921137     0.00066667    F
gradient max                        0.03834142
gradient rms                        0.00921137
cart. step max                      0.05374491     0.01000000    F
cart. step rms                      0.01617758     0.00666667    F
 
 
--------
Geometry
--------
Formula: C10H11Cl2OSn
Atoms
  Index Symbol   x (angstrom)   y (angstrom)   z (angstrom)
      1      H    -0.03224885    -2.24497509     0.49899679
      2      C    -1.03846436    -0.27003097     0.91916731
      3      C     0.11158288    -1.16561092     0.45219418
      4      C     1.19966694    -0.60053551    -0.01627023
      5      O     3.58335145     0.56288449    -0.83060782
      6      H    -0.69885614     0.76538956     0.82988264
      7      H    -2.16268047     0.15726668     2.73204001
      8      H    -0.47882460    -0.31962679     3.03331123
      9      C    -1.35897683    -0.51289196     2.41265775
     10      H    -1.68355442    -1.54116733     2.59428548
     11      C    -4.56127505    -0.66998433    -1.58624294
     12      C    -3.91949528     0.56061042    -1.45472009
     13      C    -2.76961358     0.67194421    -0.67202133
     14      C    -2.26360166    -0.43009310     0.02968435
     15      C    -2.92532862    -1.66036360    -0.10433211
     16      C    -4.05807782    -1.78099137    -0.90731275
     17      H    -4.30188127     1.43547619    -1.97526023
     18      H    -2.28015314     1.63894376    -0.58472502
     19      H    -2.55706200    -2.54144884     0.41517356
     20      H    -4.55334683    -2.74505497    -0.99725090
     21      H    -5.44715066    -0.76348002    -2.20960193
     22      H     3.01896405    -0.22036994    -0.91375733
     23     Sn     1.97306707     1.51544225    -0.13355046
     24     Cl     2.47856212     2.78622637     1.75327387
     25     Cl     1.04134146     3.02719967    -1.64954843
 
Total System Charge             0.00000
 
 *** GOStep14 ***

 Energy gradients wrt nuclear displacements
 ==========================================

     Atom      Cartesian (a.u./angstrom)
                 X         Y         Z
 ----------------------------------------
     1 H    -0.002443  0.001548  0.001406
     2 C     0.017042  0.010020 -0.011418
     3 C     0.000580 -0.015568  0.003533
     4 C     0.010815 -0.029260 -0.010778
     5 O     0.000371 -0.030252  0.001817
     6 H     0.002455 -0.000857  0.000743
     7 H     0.000041 -0.000076 -0.000121
     8 H    -0.000007 -0.000063  0.000068
     9 C    -0.002578  0.000481  0.000929
    10 H     0.000074 -0.000134  0.000059
    11 C     0.000743 -0.000274 -0.001097
    12 C    -0.002342  0.000954  0.003143
    13 C     0.003179 -0.001270 -0.004461
    14 C     0.001148  0.000994  0.002962
    15 C    -0.000922  0.000097  0.001019
    16 C     0.000348 -0.000254 -0.000526
    17 H    -0.000024 -0.000052  0.000109
    18 H    -0.000653  0.000140  0.000722
    19 H     0.000476 -0.000041 -0.000445
    20 H    -0.000259  0.000203  0.000328
    21 H     0.000200 -0.000044 -0.000186
    22 H    -0.023763  0.027087  0.010557
    23 Sn   -0.008403  0.040194  0.003221
    24 Cl    0.000618 -0.000700 -0.005516
    25 Cl    0.003306 -0.002873  0.003932
 ----------------------------------------
 Mulliken charges used for AMS results%charges...

 dE(predicted):    -0.91033E-03, dE(actual):    -0.14751E-02, Trust radius:    1.000000, all in a.u.
 
----------------------------------------------------------------------
Geometry Convergence after Step  14       (Hartree/Angstrom,Angstrom)
----------------------------------------------------------------------
current energy                               -5.06073305 Hartree
energy change                      -0.00147513     0.00025000    F
constrained gradient max            0.04020112     0.00100000    F
constrained gradient rms            0.00897919     0.00066667    F
gradient max                        0.04020112
gradient rms                        0.00897919
cart. step max                      0.17682088     0.01000000    F
cart. step rms                      0.05510361     0.00666667    F
 
 
--------
Geometry
--------
Formula: C10H11Cl2OSn
Atoms
  Index Symbol   x (angstrom)   y (angstrom)   z (angstrom)
      1      H    -0.04188461    -2.17038764     0.40980574
      2      C    -1.07229513    -0.23027905     0.90009573
      3      C     0.08271998    -1.08385492     0.40287122
      4      C     1.19394093    -0.56901935    -0.03556355
      5      O     3.73536336     0.55728282    -0.76902020
      6      H    -0.76824847     0.81527957     0.79717692
      7      H    -2.14566346     0.17254608     2.74131841
      8      H    -0.46157261    -0.32958648     2.99594297
      9      C    -1.35754529    -0.50079616     2.39132830
     10      H    -1.69068367    -1.52831247     2.55986945
     11      C    -4.62247771    -0.71040533    -1.56553381
     12      C    -4.00066793     0.53199874    -1.44848404
     13      C    -2.84446807     0.66799872    -0.67907668
     14      C    -2.31033122    -0.42125609     0.02110369
     15      C    -2.94705814    -1.66521525    -0.10425162
     16      C    -4.08851190    -1.80957708    -0.89079447
     17      H    -4.41041680     1.39919171    -1.96136081
     18      H    -2.37653719     1.64583637    -0.59267928
     19      H    -2.55232328    -2.53897925     0.40804708
     20      H    -4.56262302    -2.78482627    -0.97635138
     21      H    -5.51267238    -0.82354048    -2.17957763
     22      H     3.19578493    -0.23154397    -0.87910588
     23     Sn     2.13287951     1.53125318    -0.10068178
     24     Cl     2.56357064     2.72517419     1.86483170
     25     Cl     1.17766594     3.00577724    -1.67444447
 
Total System Charge             0.00000
 
 *** GOStep15 ***

 Energy gradients wrt nuclear displacements
 ==========================================

     Atom      Cartesian (a.u./angstrom)
                 X         Y         Z
 ----------------------------------------
     1 H     0.002020 -0.000017  0.000561
     2 C     0.020570  0.004739 -0.001562
     3 C     0.011031  0.008869 -0.003137
     4 C    -0.021762 -0.053574 -0.001636
     5 O    -0.006867 -0.035613 -0.001545
     6 H     0.001153 -0.000380 -0.001980
     7 H     0.000445  0.000299 -0.000835
     8 H     0.000294 -0.000324  0.000293
     9 C    -0.001265 -0.001388 -0.000763
    10 H    -0.000284  0.000107 -0.000004
    11 C    -0.000053 -0.000155 -0.000268
    12 C    -0.001101  0.000569  0.002181
    13 C     0.003626 -0.001439 -0.005706
    14 C    -0.002439  0.000273 -0.000181
    15 C    -0.001034 -0.000258  0.000588
    16 C     0.000053  0.000178  0.000477
    17 H    -0.000504  0.000219  0.000580
    18 H    -0.001147  0.000049  0.001364
    19 H     0.000551 -0.000089 -0.000804
    20 H    -0.000058 -0.000084  0.000016
    21 H     0.000349 -0.000154 -0.000557
    22 H    -0.013314  0.032393  0.010331
    23 Sn    0.012970  0.045705  0.006175
    24 Cl    0.000185 -0.000500  0.000480
    25 Cl   -0.003416  0.000575 -0.004068
 ----------------------------------------
 Mulliken charges used for AMS results%charges...

 dE(predicted):    -0.34422E-02, dE(actual):    -0.44745E-02, Trust radius:    1.000000, all in a.u.
 
----------------------------------------------------------------------
Geometry Convergence after Step  15       (Hartree/Angstrom,Angstrom)
----------------------------------------------------------------------
current energy                               -5.06520752 Hartree
energy change                      -0.00447447     0.00025000    F
constrained gradient max            0.05357109     0.00100000    F
constrained gradient rms            0.01099251     0.00066667    F
gradient max                        0.05357109
gradient rms                        0.01099251
cart. step max                      0.11817683     0.01000000    F
cart. step rms                      0.03902372     0.00666667    F
 
 
--------
Geometry
--------
Formula: C10H11Cl2OSn
Atoms
  Index Symbol   x (angstrom)   y (angstrom)   z (angstrom)
      1      H    -0.04696830    -2.10621878     0.33554062
      2      C    -1.09967959    -0.20025627     0.88655188
      3      C     0.06825827    -1.01573673     0.36219503
      4      C     1.20698992    -0.53513501    -0.05728771
      5      O     3.82973302     0.54879299    -0.72251371
      6      H    -0.83199644     0.85565598     0.78510348
      7      H    -2.13704716     0.16471018     2.75552238
      8      H    -0.44211161    -0.31906260     2.96458751
      9      C    -1.34879980    -0.49348124     2.37734530
     10      H    -1.66545316    -1.52710265     2.53891685
     11      C    -4.65865493    -0.74030378    -1.55959647
     12      C    -4.06196254     0.51381486    -1.43705999
     13      C    -2.89965819     0.66565703    -0.67986286
     14      C    -2.34698351    -0.41475390     0.01908005
     15      C    -2.96863983    -1.66660523    -0.09619908
     16      C    -4.10642815    -1.83031977    -0.88458678
     17      H    -4.48080292     1.37205759    -1.95773908
     18      H    -2.43696317     1.64746216    -0.60679779
     19      H    -2.56298018    -2.53279650     0.42049803
     20      H    -4.57178472    -2.81074224    -0.95937993
     21      H    -5.55140322    -0.86691246    -2.16735314
     22      H     3.31396177    -0.26599371    -0.84856648
     23     Sn     2.22716781     1.53357001    -0.08340535
     24     Cl     2.59971152     2.66962460     1.93856879
     25     Cl     1.28843951     3.00883428    -1.68809597
 
Total System Charge             0.00000
 
 *** GOStep16 ***

 Energy gradients wrt nuclear displacements
 ==========================================

     Atom      Cartesian (a.u./angstrom)
                 X         Y         Z
 ----------------------------------------
     1 H     0.004232 -0.001327 -0.000046
     2 C     0.018357  0.000997  0.004457
     3 C     0.000663  0.015277  0.000429
     4 C    -0.013390 -0.056451 -0.006669
     5 O    -0.000772 -0.017098  0.000950
     6 H    -0.000704 -0.000033 -0.002578
     7 H     0.000469  0.000460 -0.000401
     8 H     0.000320 -0.000318  0.000305
     9 C    -0.000213 -0.001067 -0.002055
    10 H    -0.000424  0.000423 -0.000325
    11 C     0.001545 -0.000512 -0.002452
    12 C    -0.003760  0.001334  0.006003
    13 C     0.003670 -0.001664 -0.005529
    14 C    -0.004955 -0.000468 -0.002746
    15 C    -0.001452  0.000297  0.001530
    16 C     0.001351 -0.000164 -0.001233
    17 H     0.000173  0.000028 -0.000427
    18 H    -0.000386  0.000152  0.000721
    19 H     0.000382 -0.000200 -0.000791
    20 H    -0.000620  0.000044  0.000842
    21 H     0.000004 -0.000026 -0.000149
    22 H    -0.019637  0.011337  0.005983
    23 Sn    0.022124  0.045999  0.007958
    24 Cl   -0.000020  0.000115  0.004988
    25 Cl   -0.006960  0.002865 -0.008765
 ----------------------------------------
 Mulliken charges used for AMS results%charges...

 dE(predicted):    -0.17922E-02, dE(actual):    -0.25977E-02, Trust radius:    1.000000, all in a.u.
 
----------------------------------------------------------------------
Geometry Convergence after Step  16       (Hartree/Angstrom,Angstrom)
----------------------------------------------------------------------
current energy                               -5.06780524 Hartree
energy change                      -0.00259772     0.00025000    F
constrained gradient max            0.05644406     0.00100000    F
constrained gradient rms            0.01023544     0.00066667    F
gradient max                        0.05644406
gradient rms                        0.01023544
cart. step max                      0.17074069     0.01000000    F
cart. step rms                      0.05234280     0.00666667    F
 
 
--------
Geometry
--------
Formula: C10H11Cl2OSn
Atoms
  Index Symbol   x (angstrom)   y (angstrom)   z (angstrom)
      1      H    -0.05097837    -2.00914546     0.23110854
      2      C    -1.13821008    -0.15816586     0.86748534
      3      C     0.05493619    -0.91664036     0.30964062
      4      C     1.22010237    -0.46234097    -0.07911536
      5      O     3.93117472     0.51245950    -0.67043974
      6      H    -0.92068814     0.91131780     0.78531089
      7      H    -2.14412099     0.12745503     2.76938937
      8      H    -0.42812152    -0.29502866     2.92419797
      9      C    -1.34158122    -0.49129029     2.35532946
     10      H    -1.61470370    -1.53933497     2.50290987
     11      C    -4.71255287    -0.77996176    -1.53772474
     12      C    -4.11884563     0.47887949    -1.45556227
     13      C    -2.96654670     0.66116118    -0.68955009
     14      C    -2.39130769    -0.40425166     0.01397727
     15      C    -2.98999473    -1.66754353    -0.08777367
     16      C    -4.14040476    -1.85353636    -0.85314792
     17      H    -4.55822654     1.32621083    -1.97723218
     18      H    -2.52149637     1.65197597    -0.62393749
     19      H    -2.56809543    -2.52187557     0.43578103
     20      H    -4.58736466    -2.84310761    -0.91952542
     21      H    -5.60732109    -0.92711252    -2.13790271
     22      H     3.44846779    -0.32313053    -0.81506623
     23     Sn     2.33790237     1.53266781    -0.05701738
     24     Cl     2.66474125     2.59871890     2.02290807
     25     Cl     1.45918020     3.04637842    -1.67857763
 
Total System Charge             0.00000
 
 *** GOStep17 ***

 Energy gradients wrt nuclear displacements
 ==========================================

     Atom      Cartesian (a.u./angstrom)
                 X         Y         Z
 ----------------------------------------
     1 H     0.005780 -0.002634 -0.000656
     2 C     0.013699 -0.002635  0.007186
     3 C    -0.006418  0.020776  0.003954
     4 C    -0.003045 -0.055897 -0.011971
     5 O    -0.001011 -0.011337  0.001058
     6 H    -0.002580  0.000456 -0.002045
     7 H     0.000385  0.000465  0.000395
     8 H     0.000131 -0.000339  0.000110
     9 C     0.000749 -0.000012 -0.003365
    10 H    -0.000590  0.000522 -0.000414
    11 C    -0.001008  0.000453  0.001328
    12 C     0.001046 -0.000579 -0.001518
    13 C     0.001780 -0.000798 -0.001844
    14 C    -0.007366 -0.001218 -0.003686
    15 C     0.000892  0.000299 -0.000611
    16 C    -0.000560  0.000504  0.000989
    17 H    -0.000698  0.000372  0.000769
    18 H    -0.000469  0.000535  0.001115
    19 H    -0.000149 -0.000198 -0.000143
    20 H     0.000281 -0.000314 -0.000396
    21 H     0.000206 -0.000129 -0.000469
    22 H    -0.016929 -0.000599  0.002451
    23 Sn    0.026064  0.045923  0.010765
    24 Cl   -0.000498  0.000993  0.009677
    25 Cl   -0.009688  0.005392 -0.012679
 ----------------------------------------
 Mulliken charges used for AMS results%charges...

 dE(predicted):    -0.20463E-02, dE(actual):    -0.29600E-02, Trust radius:    1.000000, all in a.u.
 
----------------------------------------------------------------------
Geometry Convergence after Step  17       (Hartree/Angstrom,Angstrom)
----------------------------------------------------------------------
current energy                               -5.07076523 Hartree
energy change                      -0.00295999     0.00025000    F
constrained gradient max            0.05588332     0.00100000    F
constrained gradient rms            0.01024554     0.00066667    F
gradient max                        0.05588332
gradient rms                        0.01024554
cart. step max                      0.21252280     0.01000000    F
cart. step rms                      0.05929355     0.00666667    F
 
 
--------
Geometry
--------
Formula: C10H11Cl2OSn
Atoms
  Index Symbol   x (angstrom)   y (angstrom)   z (angstrom)
      1      H    -0.07253550    -1.88545132     0.11219083
      2      C    -1.18932691    -0.10828149     0.86009534
      3      C     0.03261516    -0.79699485     0.25724195
      4      C     1.21722672    -0.35475623    -0.09943114
      5      O     3.99610785     0.44753688    -0.64818314
      6      H    -1.02556059     0.97334792     0.81571730
      7      H    -2.16279718     0.05604237     2.79669041
      8      H    -0.41954072    -0.25524549     2.89278613
      9      C    -1.33322323    -0.49582643     2.34247771
     10      H    -1.53210886    -1.56342153     2.46872135
     11      C    -4.74076167    -0.83318213    -1.54391769
     12      C    -4.18463338     0.44256192    -1.46046278
     13      C    -3.04714727     0.66058309    -0.68181036
     14      C    -2.44573421    -0.38693892     0.02685158
     15      C    -3.02232940    -1.66136070    -0.05438179
     16      C    -4.15744671    -1.88345955    -0.83345165
     17      H    -4.61871290     1.26659285    -2.02222987
     18      H    -2.60110469     1.65293217    -0.65585365
     19      H    -2.58926839    -2.49869414     0.48731730
     20      H    -4.59084213    -2.88010899    -0.87985763
     21      H    -5.62761926    -1.00703266    -2.14870181
     22      H     3.55064715    -0.40388473    -0.80785715
     23     Sn     2.43081276     1.52390542    -0.03728212
     24     Cl     2.77752475     2.51596728     2.08556076
     25     Cl     1.67170301     3.12992810    -1.63676431
 
Total System Charge             0.00000
 
 *** GOStep18 ***

 Energy gradients wrt nuclear displacements
 ==========================================

     Atom      Cartesian (a.u./angstrom)
                 X         Y         Z
 ----------------------------------------
     1 H     0.005629 -0.003308 -0.001025
     2 C     0.005257 -0.005508  0.005054
     3 C    -0.008999  0.023578  0.006757
     4 C     0.011096 -0.048883 -0.016511
     5 O    -0.004817 -0.014225 -0.000328
     6 H    -0.003611  0.000599 -0.000412
     7 H     0.000206  0.000249  0.001159
     8 H    -0.000144 -0.000320 -0.000104
     9 C     0.001267  0.001221 -0.003476
    10 H    -0.000737  0.000293 -0.000260
    11 C     0.001845 -0.000390 -0.002030
    12 C    -0.001813  0.000279  0.001987
    13 C    -0.002462  0.000910  0.004576
    14 C    -0.005920 -0.002203 -0.005060
    15 C     0.000309  0.001424  0.001132
    16 C     0.000581 -0.000134 -0.001296
    17 H     0.000932 -0.000270 -0.001377
    18 H     0.001384 -0.000114 -0.001563
    19 H    -0.000216 -0.000312  0.000111
    20 H    -0.000410 -0.000005  0.000544
    21 H    -0.000541  0.000135  0.000573
    22 H    -0.009324 -0.005481  0.000063
    23 Sn    0.020885  0.042529  0.012766
    24 Cl   -0.000364  0.001882  0.012954
    25 Cl   -0.010033  0.008053 -0.014235
 ----------------------------------------
 Mulliken charges used for AMS results%charges...

 dE(predicted):    -0.25398E-02, dE(actual):    -0.32842E-02, Trust radius:    1.000000, all in a.u.
 
----------------------------------------------------------------------
Geometry Convergence after Step  18       (Hartree/Angstrom,Angstrom)
----------------------------------------------------------------------
current energy                               -5.07404943 Hartree
energy change                      -0.00328420     0.00025000    F
constrained gradient max            0.04887414     0.00100000    F
constrained gradient rms            0.00968742     0.00066667    F
gradient max                        0.04887414
gradient rms                        0.00968742
cart. step max                      0.21373566     0.01000000    F
cart. step rms                      0.05003570     0.00666667    F
 
 
--------
Geometry
--------
Formula: C10H11Cl2OSn
Atoms
  Index Symbol   x (angstrom)   y (angstrom)   z (angstrom)
      1      H    -0.08952182    -1.78614470     0.02345782
      2      C    -1.23023112    -0.07291466     0.84820938
      3      C     0.01927756    -0.70575513     0.22100420
      4      C     1.21407261    -0.25792440    -0.10193596
      5      O     4.03106314     0.39499559    -0.62279165
      6      H    -1.10428809     1.01478965     0.83665578
      7      H    -2.19942746    -0.01478312     2.79519808
      8      H    -0.43759643    -0.20475832     2.87325513
      9      C    -1.33673795    -0.49894081     2.32555349
     10      H    -1.45821746    -1.58006241     2.43542877
     11      C    -4.78003256    -0.87203217    -1.52468712
     12      C    -4.22452909     0.40592273    -1.48075771
     13      C    -3.08875009     0.64859794    -0.70724824
     14      C    -2.47611400    -0.38000596     0.01978707
     15      C    -3.03266413    -1.66414449    -0.04908100
     16      C    -4.17615285    -1.90741428    -0.80969830
     17      H    -4.68281334     1.22152052    -2.03540809
     18      H    -2.66687933     1.65139257    -0.67945151
     19      H    -2.58958431    -2.48761933     0.50548017
     20      H    -4.59663504    -2.91000719    -0.84258254
     21      H    -5.67118721    -1.06313716    -2.11781671
     22      H     3.62156636    -0.46898995    -0.79068593
     23     Sn     2.48996071     1.51622949    -0.01819952
     24     Cl     2.89592763     2.46605085     2.11493679
     25     Cl     1.88543866     3.20989358    -1.58315683
 
Total System Charge             0.00000
 
 *** GOStep19 ***

 Energy gradients wrt nuclear displacements
 ==========================================

     Atom      Cartesian (a.u./angstrom)
                 X         Y         Z
 ----------------------------------------
     1 H     0.003912 -0.002963 -0.000862
     2 C    -0.004799 -0.006899  0.001218
     3 C    -0.007773  0.022884  0.007249
     4 C     0.023681 -0.038103 -0.017793
     5 O    -0.009097 -0.018885 -0.001458
     6 H    -0.003358  0.000369  0.001212
     7 H     0.000083  0.000073  0.001228
     8 H    -0.000259 -0.000313 -0.000067
     9 C     0.001618  0.001924 -0.001982
    10 H    -0.000556  0.000067 -0.000017
    11 C    -0.000931  0.000799  0.001965
    12 C     0.001870 -0.001147 -0.003295
    13 C    -0.001094  0.000368  0.002917
    14 C    -0.004710 -0.001503 -0.001274
    15 C     0.002136  0.000915 -0.001083
    16 C    -0.000351  0.000002 -0.000390
    17 H    -0.000193  0.000147  0.000240
    18 H     0.000247  0.000314 -0.000163
    19 H    -0.000555 -0.000102  0.000778
    20 H     0.000086 -0.000071 -0.000156
    21 H    -0.000151  0.000032  0.000061
    22 H    -0.002357 -0.005171 -0.000876
    23 Sn    0.009769  0.035679  0.012436
    24 Cl    0.000623  0.002394  0.013037
    25 Cl   -0.007841  0.009191 -0.012925
 ----------------------------------------
 Mulliken charges used for AMS results%charges...

 dE(predicted):    -0.25969E-02, dE(actual):    -0.27228E-02, Trust radius:    1.000000, all in a.u.
 
----------------------------------------------------------------------
Geometry Convergence after Step  19       (Hartree/Angstrom,Angstrom)
----------------------------------------------------------------------
current energy                               -5.07677226 Hartree
energy change                      -0.00272283     0.00025000    F
constrained gradient max            0.03808636     0.00100000    F
constrained gradient rms            0.00867162     0.00066667    F
gradient max                        0.03808636
gradient rms                        0.00867162
cart. step max                      0.21255717     0.01000000    F
cart. step rms                      0.04842567     0.00666667    F
 
 
--------
Geometry
--------
Formula: C10H11Cl2OSn
Atoms
  Index Symbol   x (angstrom)   y (angstrom)   z (angstrom)
      1      H    -0.12492258    -1.69926282    -0.05358535
      2      C    -1.27541631    -0.04681357     0.85265692
      3      C    -0.00775733    -0.63194002     0.19562437
      4      C     1.18450251    -0.16069364    -0.09851408
      5      O     4.03986418     0.36319393    -0.62769828
      6      H    -1.17278804     1.04327148     0.87049436
      7      H    -2.23774310    -0.09785762     2.80357917
      8      H    -0.46511495    -0.16064185     2.87254440
      9      C    -1.34377262    -0.51007176     2.32426292
     10      H    -1.38410643    -1.59906053     2.41623750
     11      C    -4.79313371    -0.91098425    -1.53332622
     12      C    -4.25767215     0.37571642    -1.49223673
     13      C    -3.13326012     0.64077283    -0.70993200
     14      C    -2.51273449    -0.37245593     0.03293899
     15      C    -3.06116624    -1.66170859    -0.01869557
     16      C    -4.19300440    -1.92752855    -0.78893620
     17      H    -4.71195765     1.17645898    -2.07112277
     18      H    -2.71544828     1.64543253    -0.70069683
     19      H    -2.60925945    -2.47476703     0.54370123
     20      H    -4.59889647    -2.93612700    -0.81789240
     21      H    -5.67131486    -1.12100710    -2.13920245
     22      H     3.67235344    -0.50861034    -0.80010437
[...]
    12     C      -0.000025   0.000068  -0.000024
    13     C      -0.000163  -0.000092  -0.000113
    14     C       0.000417   0.000223   0.000318
    15     C       0.000418  -0.001174   0.000837
    16     C      -0.000042   0.000008  -0.000032
    17     H       0.000112  -0.000604   0.000312
    18     H       0.000541   0.000603   0.000143
    19     H      -0.005342   0.013226  -0.007904
    20     H      -0.000514  -0.000847  -0.000051
    21     H      -0.000049  -0.000101  -0.000014
    22     H      -0.000088  -0.000132   0.000013
    23    Sn      -0.000008  -0.000010  -0.000001
    24    Cl       0.000000   0.000006   0.000012
    25    Cl       0.000002   0.000006  -0.000004
 
 Mode:    66      Frequency (cm-1):     3014.3105     Intensity (km/mol):        3.7320
 Index  Atom      ---- Displacements (x/y/z) ----
     1     H       0.123702   0.952315   0.097694
     2     C       0.003339   0.016631   0.000401
     3     C      -0.011889  -0.078585  -0.007226
     4     C       0.002423  -0.000296  -0.001078
     5     O      -0.000013  -0.000004   0.000006
     6     H      -0.046931  -0.214552  -0.000316
     7     H       0.046806  -0.028302  -0.023570
     8     H      -0.047347  -0.014732  -0.030407
     9     C      -0.000994  -0.002545   0.005022
    10     H       0.012843   0.076312  -0.005585
    11     C      -0.000021   0.000009  -0.000029
    12     C      -0.000039  -0.000072  -0.000008
    13     C      -0.000083  -0.000422   0.000104
    14     C      -0.000525   0.000288  -0.000426
    15     C      -0.000547   0.001378  -0.000751
    16     C      -0.000018  -0.000025   0.000014
    17     H       0.000136   0.000005   0.000008
    18     H       0.001800   0.003023   0.000435
    19     H       0.005886  -0.014852   0.009619
    20     H       0.000757   0.001417   0.000233
    21     H       0.000455   0.000081   0.000311
    22     H       0.000051   0.000108   0.000025
    23    Sn       0.000017  -0.000013  -0.000008
    24    Cl      -0.000010  -0.000025  -0.000027
    25    Cl      -0.000004  -0.000016   0.000022
 
 Mode:    67      Frequency (cm-1):     3038.7647     Intensity (km/mol):        3.0790
 Index  Atom      ---- Displacements (x/y/z) ----
     1     H      -0.024745  -0.214160  -0.023210
     2     C       0.017273   0.077908   0.000726
     3     C       0.002520   0.017916   0.001743
     4     C      -0.000451  -0.000235   0.000173
     5     O      -0.000006  -0.000025  -0.000001
     6     H      -0.198961  -0.928182  -0.004081
     7     H      -0.076988   0.040648   0.033785
     8     H       0.079629   0.017069   0.047351
     9     C      -0.002321  -0.018131  -0.006066
    10     H       0.025218   0.158050  -0.008602
    11     C      -0.000038  -0.000126   0.000007
    12     C       0.000144   0.000184  -0.000007
    13     C      -0.001944  -0.003067  -0.000530
    14     C      -0.000124   0.001119  -0.000290
    15     C      -0.000438   0.000220  -0.000473
    16     C      -0.000083   0.000096  -0.000104
    17     H       0.001794  -0.003747   0.002626
    18     H       0.018430   0.032170   0.004091
    19     H       0.002711  -0.006972   0.004197
    20     H       0.000284   0.000194   0.000248
    21     H      -0.000105  -0.000246   0.000179
    22     H       0.000152  -0.000010  -0.000035
    23    Sn      -0.000020   0.000020   0.000011
    24    Cl       0.000040   0.000001  -0.000014
    25    Cl       0.000015  -0.000010   0.000002
 
 Mode:    68      Frequency (cm-1):     3082.4042     Intensity (km/mol):       13.7892
 Index  Atom      ---- Displacements (x/y/z) ----
     1     H      -0.000515  -0.009989  -0.002015
     2     C       0.000534   0.008544   0.000219
     3     C       0.000203   0.000489  -0.000037
     4     C       0.000155  -0.000017   0.000032
     5     O      -0.000008  -0.000012   0.000006
     6     H      -0.018848  -0.093441   0.000739
     7     H       0.613818  -0.369101  -0.308540
     8     H       0.374352   0.125596   0.252255
     9     C      -0.075782   0.052312   0.002323
    10     H      -0.081126  -0.381896   0.025730
    11     C      -0.000027   0.000023  -0.000034
    12     C      -0.000025   0.000022  -0.000010
    13     C      -0.000214  -0.000608  -0.000069
    14     C       0.000290   0.000035   0.000043
    15     C       0.001139  -0.002424   0.001642
    16     C       0.000135   0.000417  -0.000016
    17     H       0.000248  -0.000616   0.000469
    18     H       0.003269   0.006109   0.000655
    19     H      -0.012476   0.028689  -0.018202
    20     H      -0.002900  -0.005709  -0.000269
    21     H       0.000529  -0.000053   0.000388
    22     H       0.000077   0.000016  -0.000057
    23    Sn      -0.000002   0.000009  -0.000001
    24    Cl       0.000002  -0.000009  -0.000001
    25    Cl       0.000003  -0.000007   0.000005
 
 Mode:    69      Frequency (cm-1):     3086.2135     Intensity (km/mol):       19.1862
 Index  Atom      ---- Displacements (x/y/z) ----
     1     H       0.001496   0.026794   0.003596
     2     C      -0.003936  -0.015793  -0.000317
     3     C      -0.000208  -0.002087  -0.000161
     4     C       0.000139   0.000110   0.000027
     5     O      -0.000006   0.000003   0.000008
     6     H       0.039620   0.180289  -0.001260
     7     H      -0.035727  -0.003042   0.005668
     8     H       0.554976   0.145693   0.358732
     9     C      -0.051670  -0.069938  -0.026172
    10     H       0.100546   0.692866  -0.050855
    11     C      -0.000038   0.000030  -0.000023
    12     C      -0.000017  -0.000249   0.000072
    13     C       0.001106   0.001707   0.000239
    14     C      -0.000103  -0.000263   0.000214
    15     C      -0.001774   0.004418  -0.002856
    16     C      -0.000292  -0.000957   0.000035
    17     H      -0.001447   0.003168  -0.002017
    18     H      -0.010770  -0.019981  -0.001821
    19     H       0.021221  -0.049412   0.032148
    20     H       0.006104   0.012301   0.000693
    21     H       0.000148   0.000268   0.000049
    22     H      -0.000037   0.000100  -0.000017
    23    Sn       0.000006  -0.000005  -0.000011
    24    Cl      -0.000015   0.000001   0.000019
    25    Cl      -0.000001   0.000000   0.000006
 
 Mode:    70      Frequency (cm-1):     3121.2854     Intensity (km/mol):        4.6096
 Index  Atom      ---- Displacements (x/y/z) ----
     1     H       0.000386   0.002430   0.000132
     2     C       0.000436   0.001588   0.000096
     3     C      -0.000063  -0.000178  -0.000019
     4     C       0.000008  -0.000014   0.000005
     5     O       0.000009   0.000004  -0.000002
     6     H      -0.006212  -0.021096  -0.001386
     7     H      -0.005777   0.003169   0.002707
     8     H       0.002113   0.000318   0.000827
     9     C       0.000044  -0.001868  -0.000244
    10     H       0.003181   0.019183  -0.000867
    11     C      -0.028457  -0.003902  -0.020229
    12     C       0.013686  -0.032106   0.020427
    13     C       0.018861   0.039159   0.001607
    14     C       0.001551  -0.000088   0.001255
    15     C       0.007620  -0.020691   0.012327
    16     C       0.017814   0.035289   0.002322
    17     H      -0.168394   0.382264  -0.247268
    18     H      -0.230795  -0.456306  -0.026991
    19     H      -0.101326   0.239898  -0.153307
    20     H      -0.212256  -0.420369  -0.027718
    21     H       0.343985   0.045823   0.244917
    22     H      -0.000018  -0.000068   0.000014
    23    Sn      -0.000003  -0.000001   0.000000
    24    Cl       0.000003   0.000003   0.000002
    25    Cl       0.000005   0.000003  -0.000002
 
 Mode:    71      Frequency (cm-1):     3127.2049     Intensity (km/mol):        0.0420
 Index  Atom      ---- Displacements (x/y/z) ----
     1     H       0.000773   0.011953   0.001413
     2     C      -0.000583  -0.002507  -0.000038
     3     C      -0.000053  -0.000910  -0.000093
     4     C       0.000020   0.000034  -0.000018
     5     O       0.000001   0.000006  -0.000002
     6     H       0.007533   0.028922   0.000950
     7     H      -0.010521   0.005056   0.004838
     8     H       0.013027   0.003039   0.008250
     9     C      -0.000723  -0.004431  -0.000718
    10     H       0.007354   0.047046  -0.003514
    11     C      -0.010449  -0.002549  -0.007067
    12     C      -0.007783   0.020717  -0.012392
    13     C      -0.023349  -0.046901  -0.002507
    14     C      -0.000429   0.001097  -0.000674
    15     C       0.012328  -0.030426   0.018967
    16     C       0.020647   0.041462   0.002522
    17     H       0.103705  -0.237025   0.152771
    18     H       0.276157   0.544163   0.032872
    19     H      -0.152609   0.357176  -0.229573
    20     H      -0.245810  -0.486718  -0.032177
    21     H       0.124048   0.017304   0.088073
    22     H      -0.000045   0.000018   0.000005
    23    Sn       0.000002  -0.000006   0.000002
    24    Cl      -0.000002   0.000004   0.000003
    25    Cl      -0.000008   0.000005  -0.000006
 
 Mode:    72      Frequency (cm-1):     3136.4696     Intensity (km/mol):        9.4034
 Index  Atom      ---- Displacements (x/y/z) ----
     1     H      -0.000815  -0.007066  -0.000688
     2     C      -0.000415  -0.001110  -0.000132
     3     C       0.000125   0.000580   0.000095
     4     C       0.000017   0.000002  -0.000020
     5     O      -0.000003  -0.000001  -0.000000
     6     H       0.005469   0.015636   0.001683
     7     H       0.007384  -0.003836  -0.003479
     8     H      -0.004865  -0.001139  -0.002155
     9     C       0.000253   0.003082   0.000342
    10     H      -0.005295  -0.032750   0.001760
    11     C      -0.041087  -0.004486  -0.029570
    12     C       0.013017  -0.023504   0.017212
    13     C      -0.018807  -0.037161  -0.002221
    14     C      -0.001946  -0.000110  -0.001501
    15     C      -0.014818   0.036870  -0.022896
    16     C      -0.000444  -0.005028   0.001249
    17     H      -0.130218   0.287214  -0.188506
    18     H       0.213242   0.420497   0.025240
    19     H       0.178747  -0.420846   0.269568
    20     H       0.021818   0.047566   0.001574
    21     H       0.478105   0.062394   0.340751
    22     H      -0.000013   0.000042  -0.000001
    23    Sn      -0.000000  -0.000002   0.000002
    24    Cl      -0.000001   0.000000  -0.000001
    25    Cl      -0.000005   0.000002  -0.000003
 
 Mode:    73      Frequency (cm-1):     3143.6383     Intensity (km/mol):       25.0017
 Index  Atom      ---- Displacements (x/y/z) ----
     1     H       0.000800   0.009967   0.001061
     2     C      -0.000167  -0.001174   0.000096
     3     C      -0.000060  -0.000764  -0.000085
     4     C      -0.000001   0.000017  -0.000004
     5     O      -0.000000   0.000004  -0.000003
     6     H       0.001817   0.010129  -0.000285
     7     H      -0.007954   0.003898   0.003682
     8     H       0.006963   0.001552   0.004089
     9     C      -0.000325  -0.003398  -0.000382
    10     H       0.005900   0.037124  -0.002400
    11     C       0.007431   0.004206   0.004290
    12     C       0.017306  -0.037176   0.024738
    13     C      -0.013793  -0.023868  -0.002704
    14     C       0.000530   0.002418  -0.000344
    15     C       0.018501  -0.039812   0.026607
    16     C      -0.021560  -0.039255  -0.003899
    17     H      -0.189004   0.424128  -0.275966
    18     H       0.140606   0.272523   0.018173
    19     H      -0.198856   0.460230  -0.297337
    20     H       0.228650   0.448222   0.031163
    21     H      -0.082495  -0.014918  -0.057497
    22     H      -0.000035   0.000039   0.000007
    23    Sn       0.000002  -0.000005   0.000002
    24    Cl      -0.000001   0.000004   0.000002
    25    Cl      -0.000005   0.000005  -0.000007
 
 Mode:    74      Frequency (cm-1):     3152.2326     Intensity (km/mol):       13.3553
 Index  Atom      ---- Displacements (x/y/z) ----
     1     H       0.000373   0.002780   0.000286
     2     C       0.000207   0.000318   0.000072
     3     C      -0.000044  -0.000232  -0.000053
     4     C      -0.000041  -0.000001   0.000021
     5     O      -0.000013  -0.000009   0.000004
     6     H      -0.002317  -0.005405  -0.000803
     7     H      -0.002328   0.001192   0.001191
     8     H       0.000587   0.000100  -0.000147
     9     C      -0.000049  -0.001053  -0.000053
    10     H       0.001989   0.011868  -0.000551
    11     C      -0.048057  -0.006414  -0.034205
    12     C      -0.014323   0.035950  -0.022113
    13     C       0.008900   0.014980   0.001895
    14     C       0.001006   0.000293   0.000711
    15     C       0.009303  -0.018255   0.012827
    16     C      -0.018048  -0.038243  -0.001573
    17     H       0.169266  -0.386440   0.249183
    18     H      -0.086535  -0.167002  -0.011409
    19     H      -0.091913   0.210207  -0.136589
    20     H       0.207034   0.412842   0.026072
    21     H       0.531504   0.070397   0.378547
    22     H       0.000049   0.000111  -0.000024
    23    Sn       0.000005   0.000005  -0.000002
    24    Cl      -0.000003  -0.000005  -0.000003
    25    Cl       0.000000  -0.000005   0.000007
 
 Mode:    75      Frequency (cm-1):     3771.7160     Intensity (km/mol):       72.2712
 Index  Atom      ---- Displacements (x/y/z) ----
     1     H      -0.000420  -0.000148   0.000229
     2     C       0.000020  -0.000012  -0.000010
     3     C       0.000010  -0.000099  -0.000022
     4     C      -0.000245   0.000082   0.000060
     5     O       0.009618  -0.061835   0.002485
     6     H       0.000049  -0.000024  -0.000016
     7     H      -0.000074   0.000004   0.000121
     8     H       0.000011   0.000034  -0.000042
     9     C      -0.000008   0.000015  -0.000007
    10     H      -0.000026  -0.000130   0.000000
    11     C       0.000000  -0.000001  -0.000000
    12     C       0.000003  -0.000005   0.000001
    13     C      -0.000005   0.000002  -0.000000
    14     C       0.000006   0.000004   0.000017
    15     C      -0.000006   0.000004  -0.000004
    16     C       0.000003   0.000005  -0.000001
    17     H      -0.000022   0.000034  -0.000031
    18     H       0.000004  -0.000065   0.000009
    19     H       0.000020   0.000017   0.000015
    20     H      -0.000051  -0.000075  -0.000017
    21     H      -0.000060  -0.000008  -0.000033
    22     H      -0.135784   0.987818  -0.043076
    23    Sn      -0.000096  -0.000077   0.000023
    24    Cl      -0.000026   0.000043   0.000050
    25    Cl      -0.000038   0.000047  -0.000041

PES point character: Geometry corresponds to a local minimum on the PES.




 ============================
 Statistical Thermal Analysis  ***  ideal gas assumed  ***
 ============================
  
 Pressure:                  1.000000 atm.
 Temperature:             298.150000 K



 Moments of Inertia [amu*bohr^2] and principal axis
 ==================================================

        2519.6500      10020.6881      10860.7001
 ------------------------------------------------
           0.9227         -0.1277         -0.3637
           0.3835          0.3987          0.8331
           0.0386         -0.9082          0.4168


 The rotational contribution to the molecular entropy includes
 a term, dependent on the symmetry number sigma. The results 
 reported below were computed using sigma = 1, determined from
 the point group symmetry of the input geometry (NOSYM). 
 If this is not the correct symmetry, try symmetrizing the molecule before
 running the calculation (note: linear molecules should be aligned along one
 of the Cartesian axes).
 Contributions from frequencies below 20 1/cm are not included in vibrational sums.
 Their contributions, if any, are reported separately.


     Temp                                                        Transl      Rotat     Vibrat     Total
     ----                                                        ------      -----     ------     -----

     298.15   Entropy (cal/mol-K):                               43.339     33.972     53.524    130.835
              Nuclear Internal Energy (kcal/mol):                 0.889      0.889    119.871    121.649
              Constant Volume Heat Capacity (cal/mol-K):          2.981      2.981     49.310     55.272
          (c) Constant Volume Heat Capacity (cal/mol-K):          2.981      2.981     46.329     52.290

 Contributions from frequencies below 20 1/cm
 Frequency (1/cm):                                    8.329    19.537
 Entropy (cal/mol-K):                                 8.374     6.681
 Nuclear Internal Energy (kcal/mol):                  0.593     0.593
 Constant Volume Heat Capacity (cal/mol-K):           1.987     1.986

       Summary of energy terms
                                                   hartree              eV         kcal/mol           kJ/mol
                                      --------------------     -----------       ----------      -----------
      Energy from Engine:               -5.088367390161299       -138.4615         -3193.00        -13359.51
      Nuclear Internal Energy:           0.193859500353782          5.2752           121.65           508.98
  (c) Nuclear Internal Energy:           0.192279232056173          5.2322           120.66           504.83
      Internal Energy U:                -4.894507889807516       -133.1863         -3071.35        -12850.53
      pV/n = RT:                         0.000944186013486          0.0257             0.59             2.48
      Enthalpy H:                       -4.893563703794031       -133.1606         -3070.76        -12848.05
      -T*S:                             -0.062163730210002         -1.6916           -39.01          -163.21
  (c) -T*S:                             -0.064234034726251         -1.7479           -40.31          -168.65
      Gibbs free energy:                -4.955727434004033       -134.8522         -3109.77        -13011.26
 
 
 
  (c) The properties marked with this symbol have been corrected using 'low vibrational frequency free rotor
      interpolation corrections'. For those terms all positive frequencies are used (also ones below 20 1/cm),
      but the contribution to the partition function of small vibrational frequencies is modified as described
      in the following paper:
      S. Grimme, 'Supramolecular Binding Thermodynamics by Dispersion-Corrected Density Functional Theory'
      (Chem. Eur. J. 2012, 18, 9955-9964)
      Configuration: Dampener Frequency          :   100.000 1/cm
                     Dampener Alpha              :     4.000
                     Averaging Moment of Inertia : 1.000E-44 kg m2

--------------
Atomic charges
--------------
  Index   Atom    Charge
      1      H   -0.1966
      2      C    0.1231
      3      C    0.2752
      4      C   -0.3310
      5      O   -0.6141
      6      H   -0.1850
      7      H   -0.2367
      8      H   -0.2194
      9      C    0.6786
     10      H   -0.2258
     11      C    0.2392
     12      C    0.2435
     13      C    0.2855
     14      C    0.0203
     15      C    0.2943
     16      C    0.2462
     17      H   -0.2475
     18      H   -0.2613
     19      H   -0.2691
     20      H   -0.2504
     21      H   -0.2453
     22      H    0.1503
     23     Sn    1.3520
     24     Cl   -0.3167
     25     Cl   -0.3095


Dipole moment vector    (Debye):    -3.04345547   -3.72232787    0.86537494
              magnitude (Debye):     4.88540886


Final PES point is a local minimum. Geometry optimization successful!


AMS application finished. Exiting.
NORMAL TERMINATION
     Total cpu time:  131037.65
  Total system time:     594.13
 Total elapsed time:  264013.71
 WARNING: total elapsed time is much higher than the (CPU+system) time. 
 Make sure the machine is not oversubscribed and has enough memory, SCM_TMPDIR p
 oints to a fast file system, and the network is fast enough.
