

 Parallel Execution: Process Information
 ==============================================================================
 Rank   Node Name                              NodeID   MyNodeRank  NodeMaster
    0   node115                                   0          0          0
    1   node115                                   0          1         -1
    2   node115                                   0          2         -1
    3   node115                                   0          3         -1
 ==============================================================================


May use up to 122928MB of RAM as shared memory on node 0

 *******************************************************************************
 *                                                                             *
 *  --------------------------------                                           *
 *   Amsterdam Modeling Suite (AMS)              2021.102                      *
 *  --------------------------------                                           *
 *                                               r95042 2021-06-07             *
 *                                                                             *
 *                                                                             *
 *                              =================                              *
 *                              |               |                              *
 *                              |     A M S     |                              *
 *                              |               |                              *
 *                              =================                              *
 *                                                                             *
 *                                                                             *
 *   Online information and documentation:  https://www.scm.com/support/       *
 *   E-mail:  support@scm.com   info@scm.com                                   *
 *                                                                             *
 *   Scientific publications using AMS results must be properly referenced     *
 *   See the User Manuals (or the web site) for recommended citations          *
 *   The terms and conditions of the End User License Agreement apply to       *
 *   the use of AMS, https://www.scm.com/license-terms/                        *
 *                                                                             *
 **********************  x86_64_linux_intel / intelmpi  ************************
 
 Licensed to: VU/FEW (+ SARA) / ALGEMEEN / Amsterdam / THE NETHERLANDS
 SCM User ID: u7668
  
 AMS 2021.102  RunTime: Jan22-2022 23:50:52  ShM Nodes: 1  Procs: 4

 AMS jobname: 32.achiral_catalyst.H_H_SnCl4.TS
 AMS jobid  : 1666324376

 Start   directory: /scistor/tc/yhk800/MasterProject/calculations/achiral_catalyst_H_H_SnCl4/32.achiral_catalyst.H_H_SnCl4.TS/
 Results directory: /scistor/tc/yhk800/MasterProject/calculations/achiral_catalyst_H_H_SnCl4/32.achiral_catalyst.H_H_SnCl4.TS/
 Scratch directory: /scratch/3980/amstmp_32.achiral_catalyst.H_H_SnCl4.TS_kid0.1666324376/


 Communication costs MPI_COMM_WORLD:     -4.489 usec per message,   0.0127 usec per 8-byte item
 Communication costs for intra-node:      0.924 usec per message,   0.0067 usec per 8-byte item

 RNG seed: -902739168 -943576428 -573131827 -2043800174 -38353248 1414894042 -1357297109 -30832031



                      ************************************************************************
                      *  ADF 2021.102  RunTime: Jan22-2022 23:50:53  ShM Nodes: 1  Procs: 4  *
                      ************************************************************************
  
       *****************************
       *  TRANSITION STATE SEARCH  *
       *****************************

Optimization Method                    Quasi Newton
Optimization Coordinates               Delocalized Coordinates
Optimize lattice                       F
 
 ------------------------------------------------------
 Convergence criteria (Hartree,Angstrom)
 ------------------------------------------------------
 Maximum gradient               0.001000000000
 Maximum rms gradient           0.000666666667
 Maximum step allowed           0.010000000000
 Maximum rms step allowed       0.006666666667
 Maximum energy change allowe   0.000170000000
 Maximum stress energy allowe   0.000500000000
 
Initial model Hessian                  Automatic Hessian
 
------------------------------------
Quasi-Newton Optimizer Parameters
------------------------------------
Hessian Update Method                  Bofill
Maximum number of steps                  250
First GDIIS cycle                          0
Maximum GDIIS vectors                      0
Trust radius (bohr)                        0.200000
Trust radius varies                        F
Constraints converged at all steps         T
Use projector                              T
 
 Rigid motions settings for: old optimizer
 Atomic rotations (x,y,z):     T T T
 Atomic translations (x,y,z):  T T T
 Tolerance:                   1.000000000000000E-006
 
           1  TSRC entries:
    i   type      a1    a2    a3    a4    coef
    1 Distance     2    10               -1.000
 
--------
Geometry
--------
Formula: C4H7Cl4OSn
Atoms
  Index Symbol   x (angstrom)   y (angstrom)   z (angstrom)
      1      H     0.19369716    -1.85361092    -0.24516176
      2      C    -0.92057816    -0.12292898     0.28183759
      3      C     0.21368396    -0.77846351    -0.06958517
      4      C     1.52168394    -0.13059856    -0.22805405
      5      O     1.77804810     1.04912696    -0.01680607
      6      H    -0.93117356     0.95749943     0.37346659
      7      H    -1.16677948    -1.14795174     3.01281369
      8      H    -2.10496465     0.45730942     2.86041604
      9      H    -0.24714630     0.47546451     3.02589233
     10      C    -1.16197426    -0.07675120     2.85297480
     11      H    -1.86354143    -0.62823164     0.30157320
     12      H     2.30109647    -0.78460704    -0.55924738
     13     Sn     2.49853305     4.24557076     0.37517415
     14     Cl     2.52934991     3.95050335     2.72468887
     15     Cl     0.18769901     4.75487694     0.46944566
     16     Cl     2.46771619     4.54063816    -1.97434057
     17     Cl     4.80936709     3.73626457     0.28090264
 
Total System Charge             0.00000
 
 
----------------
ADF Engine Input
----------------
 
 NumericalQuality VeryGood
 SCF
 Converge 1.0e-6
 Iterations 99
 End
 SYMMETRY NOSYM
 SpinPolarization 1.0
 Unrestricted Yes
 XC
 GGA OLYP
 End
 basis
 core None
 type TZ2P
 End
 

 Title: *** (NO TITLE) ***

Bad geometry: added dihedral    12    4   13   15
 Using automatic Hessian for delocalized coordinates.
 *** GOStep1 ***

 Energy gradients wrt nuclear displacements
 ==========================================

     Atom      Cartesian (a.u./angstrom)
                 X         Y         Z
 ----------------------------------------
     1 H    -0.000190  0.000016  0.000031
     2 C    -0.015307 -0.008785  0.000487
     3 C    -0.001197 -0.003174 -0.001137
     4 C     0.035172 -0.019653 -0.012793
     5 O     0.002136 -0.014415 -0.003498
     6 H    -0.001046 -0.001287  0.000449
     7 H    -0.000010  0.000079  0.000100
     8 H     0.000043  0.000027  0.000018
     9 H    -0.000229 -0.000129  0.000023
    10 C    -0.000155  0.000072 -0.000818
    11 H     0.017285  0.009266 -0.000051
    12 H    -0.037683  0.031159  0.016192
    13 Sn    0.000687  0.018534  0.003988
    14 Cl   -0.000191 -0.002568 -0.000911
    15 Cl    0.000833 -0.003015 -0.000560
    16 Cl   -0.000172 -0.002836 -0.000872
    17 Cl    0.000024 -0.003289 -0.000648
 ----------------------------------------
 Mulliken charges used for AMS results%charges...
           Primitive Internal Coordinates (atoms in internal order)
-------------------------------------------------------------------------------
    index    type      i       j       k       l   value(A,deg)     TSRC Vect
-------------------------------------------------------------------------------
       1     bnd       1       3       0       0     1.08957265     0.00000000
       2     bnd       2       6       0       0     1.08435865    -0.00000000
       3     bnd       2       3       0       0     1.35638270     0.08993793
       4     bnd       3       4       0       0     1.46823204     0.00201214
       5     bnd       4      12       0       0     1.07000000    -0.00000000
       6     bnd       4       5       0       0     1.22560214     0.00543103
       7     bnd       8      10       0       0     1.08374674     0.00000000
       8     bnd       7      10       0       0     1.08307071     0.00000000
       9     bnd       9      10       0       0     1.08247534    -0.00000000
      10     bnd       2      11       0       0     1.07000000     0.00000000
      11     bnd      13      15       0       0     2.36817100     0.00194570
      12     bnd      13      17       0       0     2.36817100     0.00000000
      13     bnd      13      14       0       0     2.36817100    -0.00085460
      14     bnd      13      16       0       0     2.36817100    -0.00000000
      15     bnd       2      10       0       0     2.58285714    -0.49198287
      16     bnd       5      13       0       0     3.30000000     0.00575209
      17     bnd       3      10       0       0     3.30547916    -0.20004970
      18     bnd      10      13       0       0     6.18233588    -0.00307860
      19     bnd      10      14       0       0     5.46453206     0.00033177
      20     bnd      10      15       0       0     5.55404894    -0.00545924
      21     ang       6       2       3       0   120.77103538    -0.00116577
      22     ang       6       2      11       0   117.41061259    -0.00691254
      23     ang       6       2      10       0    84.09702452    -0.03649671
      24     ang       3       2      11       0   120.89733866     0.00378740
      25     ang       3       2      10       0   110.16403203     0.10256929
      26     ang      11       2      10       0    84.70507552    -0.04802172
      27     ang       1       3       2       0   120.21909900     0.00971266
      28     ang       1       3       4       0   115.74474309    -0.03257770
      29     ang       1       3      10       0   110.14017713     0.02727049
      30     ang       2       3       4       0   124.03410402     0.02251167
      31     ang       2       3      10       0    47.18020735    -0.11486150
      32     ang       4       3      10       0   111.87064539     0.05773918
      33     ang       3       4      12       0   114.37019830     0.00630770
      34     ang       3       4       5       0   126.33327012    -0.01029783
      35     ang      12       4       5       0   119.29637410     0.00396412
      36     lai       4       5      13      15   179.43970916     0.01217277
      37     ang       8      10       7       0   118.84988012    -0.00035943
      38     ang       8      10       9       0   118.87311123     0.00042475
      39     ang       8      10       2       0    95.56458342    -0.00570682
      40     ang       8      10       3       0   118.21664669     0.00658546
      41     ang       8      10      13       0    99.98629260     0.00128506
      42     ang       8      10      14       0   102.98849866     0.00123953
      43     ang       8      10      15       0    77.62547657     0.00093084
      44     ang       7      10       9       0   118.99448321     0.00019580
      45     ang       7      10       2       0    97.44889075     0.00199423
      46     ang       7      10       3       0    85.54757082    -0.00407688
      47     ang       7      10      13       0   138.87295541    -0.00093785
      48     ang       7      10      14       0   137.33807966    -0.00086438
      49     ang       7      10      15       0   157.63924884    -0.00011344
      50     ang       9      10       2       0    95.11483796     0.00298174
      51     ang       9      10       3       0    84.13492797    -0.00318554
      52     ang       9      10      13       0    37.53046017    -0.00109877
      53     ang       9      10      14       0    19.42080294    -0.00114210
      54     ang       9      10      15       0    54.50691327    -0.00128956
      55     ang       2      10      13       0    63.78081501     0.00169893
      56     ang       2      10      14       0    85.79490930     0.00219952
      57     ang       2      10      15       0    64.25523949    -0.00026934
      58     ang       3      10      13       0    63.10523560     0.00066531
      59     ang       3      10      14       0    81.63761904    -0.00070340
      60     ang       3      10      15       0    72.78876069     0.00364182
      61     ang      14      10      15       0    35.37817375    -0.00016968
      62     ang      15      13      14       0    90.00000004    -0.00131205
      63     ang      15      13      16       0    90.00000001     0.00086647
      64     ang      15      13       5       0    90.00000001    -0.00261363
      65     ang      15      13      10       0    63.68211711    -0.00055626
      66     ang      17      13      14       0    89.99999993    -0.00041959
      67     ang      17      13      16       0    90.00000002     0.00086517
      68     ang      17      13       5       0    89.99999976     0.00228471
      69     ang      17      13      10       0   116.31788267    -0.00064378
      70     ang      14      13       5       0    89.99999991    -0.00475911
      71     ang      14      13      10       0    61.50801292     0.00069384
      72     ang      16      13       5       0    89.99999986     0.00399283
      73     ang      16      13      10       0   118.49198690    -0.00158024
      74     ang       5      13      10       0    40.63572331    -0.00596812
      75     ang      13      14      10       0    96.10360039    -0.00075707
      76     ang      13      15      10       0    93.84844023     0.00027511
      77     lao       4       5      13      15    93.08362632     0.00321527
      78     dih       6       2       3       1   185.43025046    -0.01603067
      79     dih       6       2       3       4     5.97435318     0.03094942
      80     dih       6       2       3      10    95.22935729     0.01908421
      81     dih      11       2       3       1    -5.83693566    -0.04276512
      82     dih      11       2       3       4   174.70716706     0.00421497
      83     dih      11       2       3      10   263.96217117    -0.00765025
      84     dih      10       2       3       1    90.20089317    -0.03511488
      85     dih      10       2       3       4   -89.25500411     0.01186521
      86     dih       1       3       4      12     3.58206089    -0.02405208
      87     dih       1       3       4       5   183.72850675    -0.01197127
      88     dih       2       3       4      12   183.06008625    -0.06892676
      89     dih       2       3       4       5     3.20653211    -0.05684596
      90     dih      10       3       4      12   130.84520156     0.03866799
      91     dih      10       3       4       5   -49.00835258     0.05074879
      92     dih      14      13      15      10   -57.84582490    -0.00139715
      93     dih      16      13      15      10   122.15417486    -0.00216343
      94     dih       5      13      15      10    32.15417500    -0.00615626
      95     dih      15      13      14      10    59.70530011     0.00038775
      96     dih      17      13      14      10   239.70530034     0.00071667
      97     dih       5      13      14      10   -30.29469990     0.00300139
      98     dih       6       2      10       8    60.32627910     0.00429257
      99     dih       6       2      10       7   180.43650753     0.00311465
     100     dih       6       2      10       9   -59.39742086     0.00427927
     101     dih       6       2      10       3   239.33945908     0.00458982
     102     dih       6       2      10      13   -38.08258143     0.00005728
     103     dih       6       2      10      14   -42.33964037     0.00255701
     104     dih       6       2      10      15   -13.05354594     0.00026237
     105     dih       3       2      10       8   180.98682002    -0.00029725
     106     dih       3       2      10       7   -58.90295155    -0.00147517
     107     dih       3       2      10       9    61.26312006    -0.00031056
     108     dih       3       2      10      13    82.57795949    -0.00453254
     109     dih       3       2      10      14    78.32090054    -0.00203281
     110     dih       3       2      10      15   107.60699498    -0.00432745
     111     dih      11       2      10       8   -57.99296306    -0.00258364
     112     dih      11       2      10       7    62.11726537    -0.00376156
     113     dih      11       2      10       9   182.28333697    -0.00259694
     114     dih      11       2      10       3   121.02021691    -0.00228639
     115     dih      11       2      10      13   203.59817640    -0.00681893
     116     dih      11       2      10      14   199.34111746    -0.00431920
     117     dih      11       2      10      15   228.62721190    -0.00661383
     118     dih       1       3      10       8   248.09637082     0.01025844
     119     dih       1       3      10       7     8.59151161     0.00897672
     120     dih       1       3      10       9   128.37671670     0.01031302
     121     dih       1       3      10       2   246.98173076     0.01051463
     122     dih       1       3      10      13   161.04778232     0.01179784
     123     dih       1       3      10      14   147.78874327     0.00955636
     124     dih       1       3      10      15   182.98235843     0.01027818
     125     dih       2       3      10       8     1.11464006    -0.00025619
     126     dih       2       3      10       7   121.60978085    -0.00153791
     127     dih       2       3      10       9   241.39498594    -0.00020161
     128     dih       2       3      10      13   -85.93394844     0.00128321
     129     dih       2       3      10      14   260.80701251    -0.00095827
     130     dih       2       3      10      15   -63.99937233    -0.00023645
     131     dih       4       3      10       8   117.87482254    -0.01576104
     132     dih       4       3      10       7   238.36996333    -0.01704276
     133     dih       4       3      10       9    -1.84483158    -0.01570646
     134     dih       4       3      10       2   116.76018248    -0.01550485
     135     dih       4       3      10      13    30.82623404    -0.01422164
     136     dih       4       3      10      14    17.56719499    -0.01646312
     137     dih       4       3      10      15    52.76081015    -0.01574130
     138     dih       8      10      13      15    -5.68523039     0.00192586
     139     dih       8      10      13      17   174.31476972     0.00048559
     140     dih       8      10      13      14    99.88781976     0.00012579
     141     dih       8      10      13      16   -80.11218042     0.00012372
     142     dih       8      10      13       5   229.12022793    -0.00209949
     143     dih       7      10      13      15   155.49637223     0.00198194
     144     dih       7      10      13      17   -24.50362766     0.00054167
     145     dih       7      10      13      14   261.06942237     0.00018187
     146     dih       7      10      13      16    81.06942219     0.00017980
     147     dih       7      10      13       5    30.30183054    -0.00204341
     148     dih       9      10      13      15   229.17113230     0.00228391
     149     dih       9      10      13      17    49.17113241     0.00084363
     150     dih       9      10      13      14   -25.25581756     0.00048384
     151     dih       9      10      13      16   154.74418226     0.00048177
     152     dih       9      10      13       5   103.97659061    -0.00174144
     153     dih       2      10      13      15    85.63476502    -0.00485247
     154     dih       2      10      13      17   265.63476513    -0.00629274
     155     dih       2      10      13      14   191.20781516    -0.00665254
     156     dih       2      10      13      16    11.20781498    -0.00665461
     157     dih       2      10      13       5   -39.55977667    -0.00887782
     158     dih       3      10      13      15   110.99389704     0.00866558
     159     dih       3      10      13      17   -69.00610284     0.00722531
     160     dih       3      10      13      14   216.56694719     0.00686551
     161     dih       3      10      13      16    36.56694701     0.00686344
     162     dih       3      10      13       5   -14.20064464     0.00464023
     163     dih      14      10      13      15   254.42694985     0.00180007
     164     dih      14      10      13      17    74.42694996     0.00035979
     165     dih      14      10      13      16   179.99999852    -0.00000207
     166     dih      14      10      13       5   129.23240817    -0.00222528
     167     dih      15      10      13      17   180.00000000    -0.00144027
     168     dih      15      10      13      14   105.57305015    -0.00180007
     169     dih      15      10      13      16   -74.42695004    -0.00180214
     170     dih      15      10      13       5   234.80545831    -0.00402535
     171     dih       8      10      14      13   -84.68150238    -0.00040503
     172     dih       7      10      14      13   106.50211608    -0.00055580
     173     dih       9      10      14      13   128.58451227    -0.00098190
     174     dih       2      10      14      13    10.06936954    -0.00584202
     175     dih       3      10      14      13    32.48189727     0.00617300
     176     dih      15      10      14      13   -39.48582078    -0.00117031
     177     dih       8      10      15      13   174.26757408     0.00198517
     178     dih       7      10      15      13   -45.81191594     0.00365201
     179     dih       9      10      15      13    34.48191664     0.00100457
     180     dih       2      10      15      13   -83.25737190    -0.00504243
     181     dih       3      10      15      13   -60.65334176     0.00732067
     182     dih      14      10      15      13    39.32448688     0.00073248
     183     dih      12       4      13      15   165.88435910    -0.05249330
Hessian eigenvector     1(     0.003) has overlap with TSRC:    0.42632E-01
Hessian eigenvector     2(     0.005) has overlap with TSRC:    0.62781E-01
Hessian eigenvector     3(     0.005) has overlap with TSRC:    0.40582E+00
Hessian eigenvector     4(     0.006) has overlap with TSRC:    0.11153E+00
Hessian eigenvector     5(     0.007) has overlap with TSRC:    0.29750E+00
Hessian eigenvector     6(     0.010) has overlap with TSRC:    0.48579E-01
Hessian eigenvector     7(     0.010) has overlap with TSRC:    0.17853E-01
Hessian eigenvector     8(     0.012) has overlap with TSRC:    0.38618E-01
Hessian eigenvector     9(     0.015) has overlap with TSRC:    0.82022E-02
Hessian eigenvector    10(     0.017) has overlap with TSRC:    0.33342E-01
Hessian eigenvector    11(     0.021) has overlap with TSRC:    0.18995E-02
Hessian eigenvector    12(     0.022) has overlap with TSRC:    0.48500E-02
Hessian eigenvector    13(     0.023) has overlap with TSRC:    0.85085E-02
Hessian eigenvector    14(     0.026) has overlap with TSRC:    0.15045E+00
Hessian eigenvector    15(     0.027) has overlap with TSRC:    0.73872E-01
Hessian eigenvector    16(     0.032) has overlap with TSRC:    0.10714E-01
Hessian eigenvector    17(     0.045) has overlap with TSRC:    0.37654E-01
Hessian eigenvector    18(     0.046) has overlap with TSRC:    0.53445E-02
Hessian eigenvector    19(     0.056) has overlap with TSRC:    0.79120E-02
Hessian eigenvector    20(     0.056) has overlap with TSRC:    0.65153E-02
Hessian eigenvector    21(     0.061) has overlap with TSRC:    0.21386E-02
Hessian eigenvector    22(     0.071) has overlap with TSRC:    0.16643E-01
Hessian eigenvector    23(     0.072) has overlap with TSRC:    0.15606E-01
Hessian eigenvector    24(     0.075) has overlap with TSRC:    0.81868E-01
Hessian eigenvector    25(     0.078) has overlap with TSRC:    0.79542E-01
Hessian eigenvector    26(     0.088) has overlap with TSRC:    0.10244E+00
Hessian eigenvector    27(     0.103) has overlap with TSRC:    0.25066E-02
Hessian eigenvector    28(     0.115) has overlap with TSRC:    0.10793E+00
Hessian eigenvector    29(     0.149) has overlap with TSRC:    0.93506E-02
Hessian eigenvector    30(     0.229) has overlap with TSRC:    0.13678E-02
Hessian eigenvector    31(     0.250) has overlap with TSRC:    0.59664E-02
Hessian eigenvector    32(     0.438) has overlap with TSRC:    0.68810E-01
Hessian eigenvector    33(     0.460) has overlap with TSRC:    0.21896E-01
Hessian eigenvector    34(     0.466) has overlap with TSRC:    0.76927E-02
Hessian eigenvector    35(     0.474) has overlap with TSRC:    0.47796E-02
Hessian eigenvector    36(     0.500) has overlap with TSRC:    0.18332E-14
Hessian eigenvector    37(     0.503) has overlap with TSRC:    0.13266E-14
Hessian eigenvector    38(     0.503) has overlap with TSRC:    0.20684E-14
Hessian eigenvector    39(     0.503) has overlap with TSRC:    0.55419E-15
Hessian eigenvector    40(     0.503) has overlap with TSRC:    0.14546E-14
Hessian eigenvector    41(     0.507) has overlap with TSRC:    0.86682E-15
Hessian eigenvector    42(     0.507) has overlap with TSRC:    0.44383E-15
Hessian eigenvector    43(     0.509) has overlap with TSRC:    0.45428E-15
Hessian eigenvector    44(     0.509) has overlap with TSRC:    0.29534E-15
Hessian eigenvector    45(     0.558) has overlap with TSRC:    0.12880E-01
Hessian eigenvector     3 has the largest overlap with TSRC:  0.40582
           Primitive Internal Coordinates (atoms in internal order)
-------------------------------------------------------------------------------
    index    type      i       j       k       l   value(A,deg)     Max Ovl Vect
-------------------------------------------------------------------------------
       1     bnd       1       3       0       0     1.08957265    -0.00000000
       2     bnd       2       6       0       0     1.08435865    -0.00000000
       3     bnd       2       3       0       0     1.35638270     0.01982841
       4     bnd       3       4       0       0     1.46823204     0.00088582
       5     bnd       4      12       0       0     1.07000000     0.00000000
       6     bnd       4       5       0       0     1.22560214     0.00038284
       7     bnd       8      10       0       0     1.08374674    -0.00000000
       8     bnd       7      10       0       0     1.08307071    -0.00000000
       9     bnd       9      10       0       0     1.08247534     0.00000000
      10     bnd       2      11       0       0     1.07000000    -0.00000000
      11     bnd      13      15       0       0     2.36817100    -0.00003451
      12     bnd      13      17       0       0     2.36817100    -0.00000000
      13     bnd      13      14       0       0     2.36817100     0.00002255
      14     bnd      13      16       0       0     2.36817100    -0.00000000
      15     bnd       2      10       0       0     2.58285714    -0.57390974
      16     bnd       5      13       0       0     3.30000000     0.00081333
      17     bnd       3      10       0       0     3.30547916    -0.11828483
      18     bnd      10      13       0       0     6.18233588    -0.00672800
      19     bnd      10      14       0       0     5.46453206    -0.00962850
      20     bnd      10      15       0       0     5.55404894     0.01394243
      21     ang       6       2       3       0   120.77103538    -0.01156338
      22     ang       6       2      11       0   117.41061259    -0.01052945
      23     ang       6       2      10       0    84.09702452    -0.02004083
      24     ang       3       2      11       0   120.89733866    -0.01251024
      25     ang       3       2      10       0   110.16403203     0.21161893
      26     ang      11       2      10       0    84.70507552    -0.01891819
      27     ang       1       3       2       0   120.21909900    -0.00592827
      28     ang       1       3       4       0   115.74474309     0.00663170
      29     ang       1       3      10       0   110.14017713     0.05367106
      30     ang       2       3       4       0   124.03410402    -0.00119491
      31     ang       2       3      10       0    47.18020735    -0.19031570
      32     ang       4       3      10       0   111.87064539     0.05888377
      33     ang       3       4      12       0   114.37019830    -0.00299357
      34     ang       3       4       5       0   126.33327012     0.00575334
      35     ang      12       4       5       0   119.29637410    -0.00229210
      36     lai       4       5      13      15   179.43970916    -0.01488223
      37     ang       8      10       7       0   118.84988012     0.00159764
      38     ang       8      10       9       0   118.87311123     0.00191315
      39     ang       8      10       2       0    95.56458342     0.00910408
      40     ang       8      10       3       0   118.21664669    -0.01207775
      41     ang       8      10      13       0    99.98629260    -0.00026618
      42     ang       8      10      14       0   102.98849866    -0.00697079
      43     ang       8      10      15       0    77.62547657     0.00002921
      44     ang       7      10       9       0   118.99448321    -0.00420797
      45     ang       7      10       2       0    97.44889075    -0.00115321
      46     ang       7      10       3       0    85.54757082     0.01414009
      47     ang       7      10      13       0   138.87295541     0.00626583
      48     ang       7      10      14       0   137.33807966     0.00065613
      49     ang       7      10      15       0   157.63924884     0.00943259
      50     ang       9      10       2       0    95.11483796    -0.00596239
      51     ang       9      10       3       0    84.13492797    -0.00153457
      52     ang       9      10      13       0    37.53046017    -0.01571036
      53     ang       9      10      14       0    19.42080294    -0.00413268
      54     ang       9      10      15       0    54.50691327    -0.00740859
      55     ang       2      10      13       0    63.78081501     0.01768819
      56     ang       2      10      14       0    85.79490930     0.01814964
      57     ang       2      10      15       0    64.25523949     0.01451565
      58     ang       3      10      13       0    63.10523560     0.01007271
      59     ang       3      10      14       0    81.63761904     0.01649038
      60     ang       3      10      15       0    72.78876069    -0.00094059
      61     ang      14      10      15       0    35.37817375     0.00035959
      62     ang      15      13      14       0    90.00000004     0.00172416
      63     ang      15      13      16       0    90.00000001    -0.00314774
      64     ang      15      13       5       0    90.00000001    -0.03241791
      65     ang      15      13      10       0    63.68211711     0.00451442
      66     ang      17      13      14       0    89.99999993     0.00253194
      67     ang      17      13      16       0    90.00000002    -0.00110836
      68     ang      17      13       5       0    89.99999976     0.00258085
      69     ang      17      13      10       0   116.31788267    -0.02750994
      70     ang      14      13       5       0    89.99999991     0.02603258
      71     ang      14      13      10       0    61.50801292    -0.00076525
      72     ang      16      13       5       0    89.99999986    -0.00267715
      73     ang      16      13      10       0   118.49198690     0.02021320
      74     ang       5      13      10       0    40.63572331    -0.00524348
      75     ang      13      14      10       0    96.10360039     0.00055019
      76     ang      13      15      10       0    93.84844023    -0.00488533
      77     lao       4       5      13      15    93.08362632     0.02004215
      78     dih       6       2       3       1   185.43025046     0.07868036
      79     dih       6       2       3       4     5.97435318     0.14374425
      80     dih       6       2       3      10    95.22935729     0.10393109
      81     dih      11       2       3       1    -5.83693566    -0.13188657
      82     dih      11       2       3       4   174.70716706    -0.06682269
      83     dih      11       2       3      10   263.96217117    -0.10663584
      84     dih      10       2       3       1    90.20089317    -0.02525073
      85     dih      10       2       3       4   -89.25500411     0.03981316
      86     dih       1       3       4      12     3.58206089     0.22742442
      87     dih       1       3       4       5   183.72850675     0.00997305
      88     dih       2       3       4      12   183.06008625     0.16494616
      89     dih       2       3       4       5     3.20653211    -0.05250521
      90     dih      10       3       4      12   130.84520156     0.36260548
      91     dih      10       3       4       5   -49.00835258     0.14515410
      92     dih      14      13      15      10   -57.84582490     0.00048994
      93     dih      16      13      15      10   122.15417486     0.02384537
      94     dih       5      13      15      10    32.15417500     0.02652252
      95     dih      15      13      14      10    59.70530011     0.00400579
      96     dih      17      13      14      10   239.70530034     0.03384284
      97     dih       5      13      14      10   -30.29469990     0.03642369
      98     dih       6       2      10       8    60.32627910    -0.01663262
      99     dih       6       2      10       7   180.43650753    -0.01332044
     100     dih       6       2      10       9   -59.39742086    -0.01904982
     101     dih       6       2      10       3   239.33945908    -0.00093596
     102     dih       6       2      10      13   -38.08258143    -0.01238900
     103     dih       6       2      10      14   -42.33964037    -0.01064465
     104     dih       6       2      10      15   -13.05354594    -0.01538471
     105     dih       3       2      10       8   180.98682002    -0.01569666
     106     dih       3       2      10       7   -58.90295155    -0.01238449
     107     dih       3       2      10       9    61.26312006    -0.01811386
     108     dih       3       2      10      13    82.57795949    -0.01145304
     109     dih       3       2      10      14    78.32090054    -0.00970869
     110     dih       3       2      10      15   107.60699498    -0.01444875
     111     dih      11       2      10       8   -57.99296306    -0.01230535
     112     dih      11       2      10       7    62.11726537    -0.00899317
     113     dih      11       2      10       9   182.28333697    -0.01472255
     114     dih      11       2      10       3   121.02021691     0.00339131
     115     dih      11       2      10      13   203.59817640    -0.00806172
     116     dih      11       2      10      14   199.34111746    -0.00631738
     117     dih      11       2      10      15   228.62721190    -0.01105744
     118     dih       1       3      10       8   248.09637082     0.03679262
     119     dih       1       3      10       7     8.59151161     0.04407273
     120     dih       1       3      10       9   128.37671670     0.03772080
     121     dih       1       3      10       2   246.98173076     0.05466625
     122     dih       1       3      10      13   161.04778232     0.02498309
     123     dih       1       3      10      14   147.78874327     0.03553330
     124     dih       1       3      10      15   182.98235843     0.03031628
     125     dih       2       3      10       8     1.11464006    -0.01787364
     126     dih       2       3      10       7   121.60978085    -0.01059352
     127     dih       2       3      10       9   241.39498594    -0.01694545
     128     dih       2       3      10      13   -85.93394844    -0.02968317
     129     dih       2       3      10      14   260.80701251    -0.01913295
     130     dih       2       3      10      15   -63.99937233    -0.02434997
     131     dih       4       3      10       8   117.87482254    -0.06531977
     132     dih       4       3      10       7   238.36996333    -0.05803965
     133     dih       4       3      10       9    -1.84483158    -0.06439158
     134     dih       4       3      10       2   116.76018248    -0.04744613
     135     dih       4       3      10      13    30.82623404    -0.07712930
     136     dih       4       3      10      14    17.56719499    -0.06657908
     137     dih       4       3      10      15    52.76081015    -0.07179610
     138     dih       8      10      13      15    -5.68523039    -0.01740031
     139     dih       8      10      13      17   174.31476972     0.00433517
     140     dih       8      10      13      14    99.88781976    -0.01778560
     141     dih       8      10      13      16   -80.11218042    -0.00298185
     142     dih       8      10      13       5   229.12022793     0.05108570
     143     dih       7      10      13      15   155.49637223     0.01269117
     144     dih       7      10      13      17   -24.50362766     0.03442666
     145     dih       7      10      13      14   261.06942237     0.01230589
     146     dih       7      10      13      16    81.06942219     0.02710964
     147     dih       7      10      13       5    30.30183054     0.08117719
     148     dih       9      10      13      15   229.17113230    -0.03221998
     149     dih       9      10      13      17    49.17113241    -0.01048449
     150     dih       9      10      13      14   -25.25581756    -0.03260526
     151     dih       9      10      13      16   154.74418226    -0.01780151
     152     dih       9      10      13       5   103.97659061     0.03626604
     153     dih       2      10      13      15    85.63476502    -0.00409711
     154     dih       2      10      13      17   265.63476513     0.01763837
     155     dih       2      10      13      14   191.20781516    -0.00448240
     156     dih       2      10      13      16    11.20781498     0.01032135
     157     dih       2      10      13       5   -39.55977667     0.06438891
     158     dih       3      10      13      15   110.99389704    -0.03141559
     159     dih       3      10      13      17   -69.00610284    -0.00968010
     160     dih       3      10      13      14   216.56694719    -0.03180087
     161     dih       3      10      13      16    36.56694701    -0.01699712
     162     dih       3      10      13       5   -14.20064464     0.03707043
     163     dih      14      10      13      15   254.42694985     0.00038528
     164     dih      14      10      13      17    74.42694996     0.02212077
     165     dih      14      10      13      16   179.99999852     0.01480375
     166     dih      14      10      13       5   129.23240817     0.06887130
     167     dih      15      10      13      17   180.00000000     0.02173549
     168     dih      15      10      13      14   105.57305015    -0.00038528
     169     dih      15      10      13      16   -74.42695004     0.01441847
     170     dih      15      10      13       5   234.80545831     0.06848602
     171     dih       8      10      14      13   -84.68150238    -0.01653401
     172     dih       7      10      14      13   106.50211608     0.01529110
     173     dih       9      10      14      13   128.58451227    -0.07568497
     174     dih       2      10      14      13    10.06936954    -0.00270714
     175     dih       3      10      14      13    32.48189727    -0.02558382
     176     dih      15      10      14      13   -39.48582078    -0.00041013
     177     dih       8      10      15      13   174.26757408    -0.01754979
     178     dih       7      10      15      13   -45.81191594     0.01243721
     179     dih       9      10      15      13    34.48191664    -0.02953884
     180     dih       2      10      15      13   -83.25737190    -0.01182795
     181     dih       3      10      15      13   -60.65334176    -0.03104670
     182     dih      14      10      15      13    39.32448688     0.00010081
     183     dih      12       4      13      15   165.88435910    -0.39996932
 
----------------------------------------------------------------------
Geometry Convergence after Step   1       (Hartree/Angstrom,Angstrom)
----------------------------------------------------------------------
current energy                               -2.82215056 Hartree
energy change                      -2.82215056     0.00017000    F
constrained gradient max            0.03769052     0.00100000    F
constrained gradient rms            0.01064128     0.00066667    F
gradient max                        0.03769052
gradient rms                        0.01064128
cart. step max                      0.06316126     0.01000000    F
cart. step rms                      0.01873504     0.00666667    F
 
 
--------
Geometry
--------
Formula: C4H7Cl4OSn
Atoms
  Index Symbol   x (angstrom)   y (angstrom)   z (angstrom)
      1      H     0.18191093    -1.87098884    -0.23407370
      2      C    -0.91912862    -0.13270157     0.29928481
      3      C     0.20961540    -0.79585161    -0.05943116
      4      C     1.51831137    -0.15523966    -0.23529636
      5      O     1.77054825     1.02922477    -0.02807510
      6      H    -0.92153725     0.94917255     0.38105987
      7      H    -1.17872575    -1.14251765     3.01946699
      8      H    -2.11025826     0.46561313     2.85581004
      9      H    -0.25244009     0.47716039     3.02595363
     10      C    -1.16933541    -0.07216727     2.85404152
     11      H    -1.87446717    -0.63498145     0.31708016
     12      H     2.30544196    -0.81698587    -0.61122855
     13     Sn     2.50165501     4.21712803     0.36659695
     14     Cl     2.52175201     3.96335252     2.72143052
     15     Cl     0.19841652     4.76204177     0.46659697
     16     Cl     2.49168628     4.60242543    -1.96974177
     17     Cl     4.83127187     3.79942583     0.29651573
 
Total System Charge             0.00000
 
 *** GOStep2 ***

 Energy gradients wrt nuclear displacements
 ==========================================

     Atom      Cartesian (a.u./angstrom)
                 X         Y         Z
 ----------------------------------------
     1 H     0.000011  0.000055 -0.000060
     2 C    -0.004840 -0.004545  0.000325
     3 C    -0.003469  0.000279 -0.001972
     4 C     0.016812 -0.013330 -0.001286
     5 O     0.000160 -0.005469 -0.003170
     6 H    -0.000490 -0.000438  0.000176
     7 H     0.000015 -0.000010 -0.000086
     8 H    -0.000037  0.000015 -0.000076
     9 H    -0.000010 -0.000082 -0.000218
    10 C    -0.000752  0.000249  0.000564
    11 H     0.005923  0.003347  0.000092
    12 H    -0.014823  0.012232  0.004739
    13 Sn   -0.000018  0.010297  0.002159
    14 Cl   -0.000744 -0.000171 -0.000857
    15 Cl    0.001539 -0.001023  0.000563
    16 Cl   -0.000024 -0.000431 -0.000723
    17 Cl    0.000746 -0.000974 -0.000170
 ----------------------------------------
 Mulliken charges used for AMS results%charges...
Hessian eigenvector     1(     0.003) has overlap with TSRC:    0.73115E-01
Hessian eigenvector     2(     0.004) has overlap with TSRC:    0.33563E+00
Hessian eigenvector     3(     0.005) has overlap with TSRC:    0.31539E+00
Hessian eigenvector     4(     0.006) has overlap with TSRC:    0.14331E+00
Hessian eigenvector     5(     0.008) has overlap with TSRC:    0.25903E-01
Hessian eigenvector     6(     0.009) has overlap with TSRC:    0.18685E+00
Hessian eigenvector     7(     0.010) has overlap with TSRC:    0.38558E-02
Hessian eigenvector     8(     0.012) has overlap with TSRC:    0.29653E-01
Hessian eigenvector     9(     0.015) has overlap with TSRC:    0.89890E-02
Hessian eigenvector    10(     0.017) has overlap with TSRC:    0.74865E-02
Hessian eigenvector    11(     0.021) has overlap with TSRC:    0.10187E-01
Hessian eigenvector    12(     0.022) has overlap with TSRC:    0.60240E-02
Hessian eigenvector    13(     0.026) has overlap with TSRC:    0.13850E+00
Hessian eigenvector    14(     0.026) has overlap with TSRC:    0.94885E-01
Hessian eigenvector    15(     0.028) has overlap with TSRC:    0.92930E-02
Hessian eigenvector    16(     0.031) has overlap with TSRC:    0.15816E-01
Hessian eigenvector    17(     0.045) has overlap with TSRC:    0.44823E-01
Hessian eigenvector    18(     0.046) has overlap with TSRC:    0.46251E-02
Hessian eigenvector    19(     0.056) has overlap with TSRC:    0.92356E-02
Hessian eigenvector    20(     0.056) has overlap with TSRC:    0.76075E-02
Hessian eigenvector    21(     0.061) has overlap with TSRC:    0.80096E-02
Hessian eigenvector    22(     0.071) has overlap with TSRC:    0.25347E-01
Hessian eigenvector    23(     0.072) has overlap with TSRC:    0.16576E-01
Hessian eigenvector    24(     0.075) has overlap with TSRC:    0.83101E-01
Hessian eigenvector    25(     0.078) has overlap with TSRC:    0.79949E-01
Hessian eigenvector    26(     0.088) has overlap with TSRC:    0.10227E+00
Hessian eigenvector    27(     0.103) has overlap with TSRC:    0.73819E-02
Hessian eigenvector    28(     0.114) has overlap with TSRC:    0.10621E+00
Hessian eigenvector    29(     0.148) has overlap with TSRC:    0.46301E-02
Hessian eigenvector    30(     0.229) has overlap with TSRC:    0.29642E-02
Hessian eigenvector    31(     0.248) has overlap with TSRC:    0.13412E-01
Hessian eigenvector    32(     0.438) has overlap with TSRC:    0.70659E-01
Hessian eigenvector    33(     0.460) has overlap with TSRC:    0.21470E-01
Hessian eigenvector    34(     0.466) has overlap with TSRC:    0.65106E-02
Hessian eigenvector    35(     0.474) has overlap with TSRC:    0.70122E-02
Hessian eigenvector    36(     0.487) has overlap with TSRC:    0.78584E-02
Hessian eigenvector    37(     0.500) has overlap with TSRC:    0.32660E-05
Hessian eigenvector    38(     0.503) has overlap with TSRC:    0.75603E-04
Hessian eigenvector    39(     0.503) has overlap with TSRC:    0.43325E-05
Hessian eigenvector    40(     0.503) has overlap with TSRC:    0.46059E-05
Hessian eigenvector    41(     0.503) has overlap with TSRC:    0.13188E-04
Hessian eigenvector    42(     0.507) has overlap with TSRC:    0.55458E-06
Hessian eigenvector    43(     0.507) has overlap with TSRC:    0.94650E-04
Hessian eigenvector    44(     0.509) has overlap with TSRC:    0.12195E-03
Hessian eigenvector    45(     0.558) has overlap with TSRC:    0.13306E-01
Hessian eigenvector     2 has the largest overlap with TSRC:  0.33563
           Primitive Internal Coordinates (atoms in internal order)
-------------------------------------------------------------------------------
    index    type      i       j       k       l   value(A,deg)     Max Ovl Vect
-------------------------------------------------------------------------------
       1     bnd       1       3       0       0     1.08958140    -0.00006592
       2     bnd       2       6       0       0     1.08496294    -0.00042771
       3     bnd       2       3       0       0     1.35739021    -0.01835972
       4     bnd       3       4       0       0     1.46765029     0.00187397
       5     bnd       4      12       0       0     1.09490074    -0.02065691
       6     bnd       4       5       0       0     1.22862528     0.00239226
       7     bnd       8      10       0       0     1.08376506     0.00004615
       8     bnd       7      10       0       0     1.08309911     0.00001305
       9     bnd       9      10       0       0     1.08259488    -0.00007376
      10     bnd       2      11       0       0     1.07947834    -0.00683820
      11     bnd      13      15       0       0     2.36893194    -0.00209549
      12     bnd      13      17       0       0     2.36780514     0.00122165
      13     bnd      13      14       0       0     2.36855378    -0.00144463
      14     bnd      13      16       0       0     2.36791724     0.00087381
      15     bnd       2      10       0       0     2.56769345     0.47553953
      16     bnd       5      13       0       0     3.29439074     0.01598368
      17     bnd       3      10       0       0     3.30356586     0.10101196
      18     bnd      10      13       0       0     6.16940883     0.02899632
      19     bnd      10      14       0       0     5.47056962     0.01308982
      20     bnd      10      15       0       0     5.56239282    -0.03387705
      21     ang       6       2       3       0   120.59200534     0.00979519
      22     ang       6       2      11       0   117.43659948     0.00815582
      23     ang       6       2      10       0    84.33475600     0.00791328
      24     ang       3       2      11       0   120.86131563     0.01205380
      25     ang       3       2      10       0   110.82318721    -0.17305244
      26     ang      11       2      10       0    84.74027644     0.01489003
      27     ang       1       3       2       0   120.21762078     0.00162229
      28     ang       1       3       4       0   115.73237519    -0.00400663
      29     ang       1       3      10       0   110.29791098    -0.03165988
      30     ang       2       3       4       0   124.04986382     0.00270827
      31     ang       2       3      10       0    46.59215765     0.15626717
      32     ang       4       3      10       0   112.47406563    -0.06819786
      33     ang       3       4      12       0   114.73225523     0.00583852
      34     ang       3       4       5       0   125.70796082    -0.01166222
      35     ang      12       4       5       0   119.53686927     0.00609943
      36     lai       4       5      13      15   179.00120384     0.05486648
      37     ang       8      10       7       0   118.85520378    -0.00334999
      38     ang       8      10       9       0   118.89895414    -0.00661116
      39     ang       8      10       2       0    95.61957535    -0.01332190
      40     ang       8      10       3       0   118.19915926     0.00292661
      41     ang       8      10      13       0    99.91973260     0.00618113
      42     ang       8      10      14       0   102.69616361     0.03223926
      43     ang       8      10      15       0    77.46297624     0.00568163
      44     ang       7      10       9       0   118.98196719     0.00862794
      45     ang       7      10       2       0    97.44133037     0.00765856
      46     ang       7      10       3       0    85.51685345    -0.02338556
      47     ang       7      10      13       0   138.92133839    -0.01930436
      48     ang       7      10      14       0   137.60781856    -0.01785633
      49     ang       7      10      15       0   157.90252313    -0.02101911
      50     ang       9      10       2       0    95.01573085     0.00923714
      51     ang       9      10       3       0    84.12701139     0.02722983
      52     ang       9      10      13       0    37.56003053     0.03766439
      53     ang       9      10      14       0    19.62551132    -0.00130394
      54     ang       9      10      15       0    54.47274183     0.01154089
      55     ang       2      10      13       0    63.72051204    -0.04997827
      56     ang       2      10      14       0    85.84384987    -0.05410408
      57     ang       2      10      15       0    64.49936835    -0.03425522
      58     ang       3      10      13       0    63.15033926    -0.02122154
      59     ang       3      10      14       0    81.87014562    -0.03649308
      60     ang       3      10      15       0    73.09507792    -0.00137351
      61     ang      14      10      15       0    35.17267023     0.00118680
      62     ang      15      13      14       0    89.48013424     0.00215414
      63     ang      15      13      16       0    90.00735113     0.00484642
      64     ang      15      13       5       0    90.68048808     0.05863784
      65     ang      15      13      10       0    64.17495160    -0.01361955
      66     ang      17      13      14       0    90.12472795    -0.00128250
      67     ang      17      13      16       0    90.20876962    -0.00571806
      68     ang      17      13       5       0    92.52715466    -0.03296421
      69     ang      17      13      10       0   118.34106034     0.03581922
      70     ang      14      13       5       0    90.99183486    -0.05773858
      71     ang      14      13      10       0    61.94638190    -0.00311798
      72     ang      16      13       5       0    92.19601392    -0.00966565
      73     ang      16      13      10       0   120.55974917    -0.05155026
      74     ang       5      13      10       0    40.84089804     0.01214428
      75     ang      13      14      10       0    95.59021856     0.00447026
      76     ang      13      15      10       0    93.28370779     0.01526440
      77     lao       4       5      13      15    92.79149612    -0.04433280
      78     dih       6       2       3       1   185.95950269    -0.05322718
      79     dih       6       2       3       4     6.10168207    -0.09611077
      80     dih       6       2       3      10    95.86366327    -0.09534247
      81     dih      11       2       3       1    -6.39352990     0.12925001
      82     dih      11       2       3       4   173.74864948     0.08636642
      83     dih      11       2       3      10   263.51063068     0.08713472
      84     dih      10       2       3       1    90.09583942     0.04211529
      85     dih      10       2       3       4   -89.76198120    -0.00076830
      86     dih       1       3       4      12     5.24319576    -0.01273222
      87     dih       1       3       4       5   183.48321383    -0.14095098
      88     dih       2       3       4      12   185.10681066     0.02843345
      89     dih       2       3       4       5     3.34682873    -0.09978531
      90     dih      10       3       4      12   133.27660049    -0.12305118
      91     dih      10       3       4       5   -48.48338144    -0.25126993
      92     dih      14      13      15      10   -58.79453259     0.00910429
      93     dih      16      13      15      10   124.38749366    -0.05829994
      94     dih       5      13      15      10    32.19123738    -0.04863429
      95     dih      15      13      14      10    60.73785553    -0.01842984
      96     dih      17      13      14      10   237.53653746    -0.04410347
      97     dih       5      13      14      10   -29.93376148    -0.07706768
      98     dih       6       2      10       8    60.53172165     0.07476146
      99     dih       6       2      10       7   180.65741485     0.07000156
     100     dih       6       2      10       9   -59.21076023     0.08209204
     101     dih       6       2      10       3   239.37413724     0.00350108
     102     dih       6       2      10      13   -37.77468762     0.06271313
     103     dih       6       2      10      14   -41.84124660     0.04612016
     104     dih       6       2      10      15   -12.69442213     0.06962317
     105     dih       3       2      10       8   181.15758442     0.07126038
     106     dih       3       2      10       7   -58.71672239     0.06650048
     107     dih       3       2      10       9    61.41510254     0.07859095
     108     dih       3       2      10      13    82.85117515     0.05921204
     109     dih       3       2      10      14    78.78461616     0.04261908
     110     dih       3       2      10      15   107.93144063     0.06612209
     111     dih      11       2      10       8   -57.77025123     0.07022414
     112     dih      11       2      10       7    62.35544197     0.06546424
     113     dih      11       2      10       9   182.48726689     0.07755472
     114     dih      11       2      10       3   121.07216436    -0.00103623
     115     dih      11       2      10      13   203.92333950     0.05817581
     116     dih      11       2      10      14   199.85678052     0.04158284
     117     dih      11       2      10      15   229.00360499     0.06508585
     118     dih       1       3      10       8   248.42880501     0.05064715
     119     dih       1       3      10       7     8.90846161     0.03394138
     120     dih       1       3      10       9   128.68713756     0.04247501
     121     dih       1       3      10       2   247.12161216    -0.02990138
     122     dih       1       3      10      13   161.42895424     0.05641484
     123     dih       1       3      10      14   148.33169422     0.03310032
     124     dih       1       3      10      15   183.28745972     0.04611659
     125     dih       2       3      10       8     1.30719285     0.08054854
     126     dih       2       3      10       7   121.78684945     0.06384276
     127     dih       2       3      10       9   241.56552540     0.07237639
     128     dih       2       3      10      13   -85.69265792     0.08631622
     129     dih       2       3      10      14   261.21008206     0.06300170
     130     dih       2       3      10      15   -63.83415244     0.07601797
     131     dih       4       3      10       8   117.58720417     0.13844256
     132     dih       4       3      10       7   238.06686076     0.12173678
     133     dih       4       3      10       9    -2.15446328     0.13027041
     134     dih       4       3      10       2   116.28001132     0.05789402
     135     dih       4       3      10      13    30.58735340     0.14421024
     136     dih       4       3      10      14    17.49009337     0.12089572
     137     dih       4       3      10      15    52.44585888     0.13391199
     138     dih       8      10      13      15    -5.00675437     0.05583547
     139     dih       8      10      13      17   172.72592324     0.04141525
     140     dih       8      10      13      14    99.26282616     0.07029827
     141     dih       8      10      13      16   -78.41275900     0.02473310
     142     dih       8      10      13       5   229.53999216    -0.07392611
     143     dih       7      10      13      15   156.11550722    -0.00847935
     144     dih       7      10      13      17   -26.15181517    -0.02289958
     145     dih       7      10      13      14   260.38508775     0.00598344
     146     dih       7      10      13      16    82.70950259    -0.03958172
     147     dih       7      10      13       5    30.66225375    -0.13824093
     148     dih       9      10      13      15   229.72651935     0.10311555
     149     dih       9      10      13      17    47.45919695     0.08869533
     150     dih       9      10      13      14   -26.00390013     0.11757835
     151     dih       9      10      13      16   156.32051471     0.07201318
     152     dih       9      10      13       5   104.27326587    -0.02664603
     153     dih       2      10      13      15    86.39789053     0.02956914
     154     dih       2      10      13      17   264.13056813     0.01514892
     155     dih       2      10      13      14   190.66747105     0.04403194
     156     dih       2      10      13      16    12.99188589    -0.00153323
     157     dih       2      10      13       5   -39.05536295    -0.10019244
     158     dih       3      10      13      15   111.68199081     0.05738638
     159     dih       3      10      13      17   -70.58533158     0.04296616
     160     dih       3      10      13      14   215.95157134     0.07184918
     161     dih       3      10      13      16    38.27598618     0.02628401
     162     dih       3      10      13       5   -13.77126266    -0.07237520
     163     dih      14      10      13      15   255.73041947    -0.01446279
     164     dih      14      10      13      17    73.46309708    -0.02888302
     165     dih      14      10      13      16   182.32441484    -0.04556517
     166     dih      14      10      13       5   130.27716600    -0.14422437
     167     dih      15      10      13      17   177.73267761    -0.01442023
     168     dih      15      10      13      14   104.26958053     0.01446279
     169     dih      15      10      13      16   -73.40600463    -0.03110237
     170     dih      15      10      13       5   234.54674653    -0.12976158
     171     dih       8      10      14      13   -85.25469404     0.06343973
     172     dih       7      10      14      13   106.06772099    -0.01239355
     173     dih       9      10      14      13   127.27507728     0.24629598
     174     dih       2      10      14      13     9.57941187     0.03579628
     175     dih       3      10      14      13    31.94643879     0.05822721
     176     dih      15      10      14      13   -40.16241419     0.00797481
     177     dih       8      10      15      13   174.94750919     0.05653647
     178     dih       7      10      15      13   -45.01116928     0.01068301
     179     dih       9      10      15      13    34.85404360     0.08921670
     180     dih       2      10      15      13   -82.50718152     0.04937164
     181     dih       3      10      15      13   -60.05604490     0.05755488
     182     dih      14      10      15      13    40.00407600    -0.00736043
     183     dih      12       4      13      15   163.58227729     0.15878963
 
----------------------------------------------------------------------
Geometry Convergence after Step   2       (Hartree/Angstrom,Angstrom)
----------------------------------------------------------------------
current energy                               -2.82368843 Hartree
energy change                      -0.00153787     0.00017000    F
constrained gradient max            0.01680765     0.00100000    F
constrained gradient rms            0.00468567     0.00066667    F
gradient max                        0.01680765
gradient rms                        0.00468567
cart. step max                      0.04577189     0.01000000    F
cart. step rms                      0.01489628     0.00666667    F
 
 
--------
Geometry
--------
Formula: C4H7Cl4OSn
Atoms
  Index Symbol   x (angstrom)   y (angstrom)   z (angstrom)
      1      H     0.17185591    -1.87599647    -0.22794323
      2      C    -0.91776192    -0.12004761     0.27437140
      3      C     0.20801101    -0.80039751    -0.05758092
      4      C     1.51685943    -0.16580311    -0.23983730
      5      O     1.77003949     1.01626257    -0.02496660
      6      H    -0.90432040     0.96192106     0.35689186
      7      H    -1.17764360    -1.14578355     3.02532994
      8      H    -2.11288727     0.46026999     2.86569350
      9      H    -0.25593350     0.47700901     3.03907966
     10      C    -1.17051826    -0.07493791     2.86303633
     11      H    -1.88303056    -0.61132647     0.28554836
     12      H     2.32397178    -0.84757863    -0.56545666
     13     Sn     2.49674103     4.19898577     0.35977728
     14     Cl     2.53685386     3.94982116     2.71532449
     15     Cl     0.19919250     4.76665380     0.48577274
     16     Cl     2.46903000     4.62194209    -1.96953197
     17     Cl     4.83425753     3.83311630     0.28048170
 
Total System Charge             0.00000
 
 *** GOStep3 ***

 Energy gradients wrt nuclear displacements
 ==========================================

     Atom      Cartesian (a.u./angstrom)
                 X         Y         Z
 ----------------------------------------
     1 H     0.000004 -0.000093 -0.000501
     2 C    -0.002361 -0.000842  0.000580
     3 C     0.000636 -0.000387  0.005025
     4 C     0.004445 -0.003783 -0.011587
     5 O    -0.000751 -0.007827  0.001715
     6 H    -0.000008 -0.000126  0.000456
     7 H    -0.000112  0.000101  0.000395
     8 H     0.000067 -0.000013  0.000160
     9 H    -0.000196  0.000016  0.000267
    10 C     0.000163 -0.000389 -0.001386
    11 H     0.001675  0.001239 -0.001111
    12 H    -0.005120  0.003965  0.005068
    13 Sn   -0.000115  0.006614  0.000939
    14 Cl   -0.000507  0.001041 -0.000737
    15 Cl    0.001623 -0.000261  0.000689
    16 Cl   -0.000139  0.000932 -0.000341
    17 Cl    0.000694 -0.000187  0.000369
 ----------------------------------------
 Mulliken charges used for AMS results%charges...
Hessian eigenvector     1(    -0.005) has overlap with TSRC:    0.32328E+00
Hessian eigenvector     1 has the largest overlap with TSRC:  0.32328
           Primitive Internal Coordinates (atoms in internal order)
-------------------------------------------------------------------------------
    index    type      i       j       k       l   value(A,deg)     Max Ovl Vect
-------------------------------------------------------------------------------
       1     bnd       1       3       0       0     1.08960710     0.00056602
       2     bnd       2       6       0       0     1.08519422     0.00012542
       3     bnd       2       3       0       0     1.35662560     0.01921960
       4     bnd       3       4       0       0     1.46595076     0.00090460
       5     bnd       4      12       0       0     1.10556599    -0.00436395
       6     bnd       4       5       0       0     1.22782281     0.00037979
       7     bnd       8      10       0       0     1.08374994    -0.00026447
       8     bnd       7      10       0       0     1.08309757    -0.00011663
       9     bnd       9      10       0       0     1.08263657    -0.00024945
      10     bnd       2      11       0       0     1.08315437     0.00007662
      11     bnd      13      15       0       0     2.36998968    -0.00314860
      12     bnd      13      17       0       0     2.36730473     0.00109441
      13     bnd      13      14       0       0     2.36902822    -0.00142238
      14     bnd      13      16       0       0     2.36756025     0.00079494
      15     bnd       2      10       0       0     2.60136632    -0.45713150
      16     bnd       5      13       0       0     3.28722526     0.03046758
      17     bnd       3      10       0       0     3.31008152    -0.09924877
      18     bnd      10      13       0       0     6.16291491    -0.01740634
      19     bnd      10      14       0       0     5.47403986    -0.01031186
      20     bnd      10      15       0       0     5.56493487     0.02189989
      21     ang       6       2       3       0   120.55326348    -0.00498703
      22     ang       6       2      11       0   117.54651148    -0.00889204
      23     ang       6       2      10       0    84.73533083    -0.01690920
      24     ang       3       2      11       0   120.96939309    -0.01487482
      25     ang       3       2      10       0   109.44005324     0.16464387
      26     ang      11       2      10       0    84.89440783    -0.00400283
      27     ang       1       3       2       0   120.38291917    -0.01017132
      28     ang       1       3       4       0   115.94518681    -0.00742798
      29     ang       1       3      10       0   109.90646865     0.03540984
      30     ang       2       3       4       0   123.65760711     0.01727409
      31     ang       2       3      10       0    47.82421328    -0.14916965
      32     ang       4       3      10       0   112.74656564     0.06558367
      33     ang       3       4      12       0   114.92759896    -0.00701611
      34     ang       3       4       5       0   125.38753365     0.00984379
      35     ang      12       4       5       0   119.64995086    -0.00313400
      36     lai       4       5      13      15   179.06856653    -0.02256319
      37     ang       8      10       7       0   118.82748172     0.00068591
      38     ang       8      10       9       0   118.84219785     0.00562830
      39     ang       8      10       2       0    95.47958425     0.01555032
      40     ang       8      10       3       0   118.19880217     0.00070138
      41     ang       8      10      13       0   100.13346760    -0.01476181
      42     ang       8      10      14       0   103.05454449    -0.04821864
      43     ang       8      10      15       0    77.60875322    -0.01205005
      44     ang       7      10       9       0   119.02836801    -0.00706604
      45     ang       7      10       2       0    97.62015536    -0.00881816
      46     ang       7      10       3       0    85.31163996     0.02630932
      47     ang       7      10      13       0   138.62708148     0.02979977
      48     ang       7      10      14       0   137.34327129     0.03635079
      49     ang       7      10      15       0   157.79017663     0.02022220
      50     ang       9      10       2       0    95.08145876    -0.00448077
      51     ang       9      10       3       0    84.45603353    -0.02743664
      52     ang       9      10      13       0    37.79654681    -0.02801671
      53     ang       9      10      14       0    19.50899885     0.01769783
      54     ang       9      10      15       0    54.40770490     0.00395792
      55     ang       2      10      13       0    63.25700896     0.05011862
      56     ang       2      10      14       0    85.41674647     0.05442190
      57     ang       2      10      15       0    64.28285952     0.02544638
      58     ang       3      10      13       0    62.98539212     0.02097522
      59     ang       3      10      14       0    81.67869827     0.03821870
      60     ang       3      10      15       0    73.21687395    -0.00662119
      61     ang      14      10      15       0    35.12488981    -0.00047164
      62     ang      15      13      14       0    89.35520119     0.00090293
      63     ang      15      13      16       0    89.89499016    -0.00099179
      64     ang      15      13       5       0    91.36491412    -0.06012477
      65     ang      15      13      10       0    64.38315749     0.00845971
      66     ang      17      13      14       0    90.01898567     0.00391404
      67     ang      17      13      16       0    90.35593630    -0.00382517
      68     ang      17      13       5       0    93.71125518    -0.00920919
      69     ang      17      13      10       0   119.60322785    -0.06459558
      70     ang      14      13       5       0    91.04782558     0.05200476
      71     ang      14      13      10       0    62.17759115     0.00126549
      72     ang      16      13       5       0    93.16597609     0.00784440
      73     ang      16      13      10       0   121.10068243     0.05036597
      74     ang       5      13      10       0    40.93517699    -0.01032768
      75     ang      13      14      10       0    95.31854957    -0.00182886
      76     ang      13      15      10       0    93.03408030    -0.00903633
      77     lao       4       5      13      15    93.31493011     0.06025441
      78     dih       6       2       3       1   185.55236135     0.05638150
      79     dih       6       2       3       4     4.12051283     0.09950065
      80     dih       6       2       3      10    95.47138738     0.08092651
      81     dih      11       2       3       1    -5.75900000    -0.11860645
      82     dih      11       2       3       4   172.80915148    -0.07548729
      83     dih      11       2       3      10   264.16002604    -0.09406144
      84     dih      10       2       3       1    90.08097396    -0.02454501
      85     dih      10       2       3       4   -91.35087455     0.01857415
      86     dih       1       3       4      12     1.94765514    -0.00737465
      87     dih       1       3       4       5   184.11632737     0.13506195
      88     dih       2       3       4      12   183.32129477    -0.04876144
      89     dih       2       3       4       5     5.48996700     0.09367517
      90     dih      10       3       4      12   129.86866455     0.09589189
      91     dih      10       3       4       5   -47.96266322     0.23832849
      92     dih      14      13      15      10   -59.18635410    -0.00356846
      93     dih      16      13      15      10   125.01084367     0.05628069
      94     dih       5      13      15      10    31.84646865     0.04843630
      95     dih      15      13      14      10    61.12136702     0.00982604
      96     dih      17      13      14      10   236.05571039     0.07916001
      97     dih       5      13      14      10   -30.23206468     0.06995081
      98     dih       6       2      10       8    61.49606761    -0.08765034
      99     dih       6       2      10       7   181.59782517    -0.08537951
     100     dih       6       2      10       9   -58.17736345    -0.09511147
     101     dih       6       2      10       3   239.41385220    -0.00453585
     102     dih       6       2      10      13   -37.10666439    -0.06496099
     103     dih       6       2      10      14   -41.21022444    -0.04283863
     104     dih       6       2      10      15   -11.91670017    -0.07192097
     105     dih       3       2      10       8   182.08221541    -0.08311449
     106     dih       3       2      10       7   -57.81602703    -0.08084366
     107     dih       3       2      10       9    62.40878434    -0.09057562
     108     dih       3       2      10      13    83.47948341    -0.06042514
     109     dih       3       2      10      14    79.37592335    -0.03830279
     110     dih       3       2      10      15   108.66944762    -0.06738512
     111     dih      11       2      10       8   -56.83141878    -0.08198932
     112     dih      11       2      10       7    63.27033878    -0.07971849
     113     dih      11       2      10       9   183.49515016    -0.08945045
     114     dih      11       2      10       3   121.08636581     0.00112518
     115     dih      11       2      10      13   204.56584922    -0.05929996
     116     dih      11       2      10      14   200.46228917    -0.03717761
     117     dih      11       2      10      15   229.75581344    -0.06625994
     118     dih       1       3      10       8   248.91289747    -0.04919085
     119     dih       1       3      10       7     9.24250863    -0.03306244
     120     dih       1       3      10       9   129.05215200    -0.04045455
     121     dih       1       3      10       2   246.56092333     0.04471395
     122     dih       1       3      10      13   161.73745939    -0.04210905
     123     dih       1       3      10      14   148.50803912    -0.01419771
     124     dih       1       3      10      15   183.49669914    -0.02849402
     125     dih       2       3      10       8     2.35197415    -0.09390480
     126     dih       2       3      10       7   122.68158530    -0.07777639
     127     dih       2       3      10       9   242.49122867    -0.08516850
     128     dih       2       3      10      13   -84.82346394    -0.08682300
     129     dih       2       3      10      14   261.94711579    -0.05891166
     130     dih       2       3      10      15   -63.06422419    -0.07320797
     131     dih       4       3      10       8   117.88844105    -0.12249581
     132     dih       4       3      10       7   238.21805221    -0.10636740
     133     dih       4       3      10       9    -1.97230442    -0.11375951
     134     dih       4       3      10       2   115.53646691    -0.02859101
     135     dih       4       3      10      13    30.71300296    -0.11541402
     136     dih       4       3      10      14    17.48358270    -0.08750267
     137     dih       4       3      10      15    52.47224272    -0.10179899
     138     dih       8      10      13      15    -4.14629447    -0.08577511
     139     dih       8      10      13      17   172.25512741    -0.04005891
     140     dih       8      10      13      14    99.67708801    -0.09135936
     141     dih       8      10      13      16   -77.19114058    -0.05692080
     142     dih       8      10      13       5   229.47212387     0.04053852
     143     dih       7      10      13      15   156.58672092    -0.02652608
     144     dih       7      10      13      17   -27.01185720     0.01919011
     145     dih       7      10      13      14   260.41010340    -0.03211034
     146     dih       7      10      13      16    83.54187481     0.00232823
     147     dih       7      10      13       5    30.20513927     0.09978755
     148     dih       9      10      13      15   231.16233384    -0.13713397
     149     dih       9      10      13      17    47.56375572    -0.09141777
     150     dih       9      10      13      14   -25.01428368    -0.14271822
     151     dih       9      10      13      16   158.11748773    -0.10827965
     152     dih       9      10      13       5   104.78075219    -0.01082033
     153     dih       2      10      13      15    86.91737288    -0.05278255
     154     dih       2      10      13      17   263.31879475    -0.00706636
     155     dih       2      10      13      14   190.74075536    -0.05836681
     156     dih       2      10      13      16    13.87252677    -0.02392824
     157     dih       2      10      13       5   -39.46420878     0.07353108
     158     dih       3      10      13      15   112.44893704    -0.07912679
     159     dih       3      10      13      17   -71.14964108    -0.03341060
     160     dih       3      10      13      14   216.27231952    -0.08471105
     161     dih       3      10      13      16    39.40409093    -0.05027248
     162     dih       3      10      13       5   -13.93264461     0.04718684
     163     dih      14      10      13      15   256.17661752     0.00558426
     164     dih      14      10      13      17    72.57803940     0.05130045
     165     dih      14      10      13      16   183.13177141     0.03443857
     166     dih      14      10      13       5   129.79503587     0.13189789
     167     dih      15      10      13      17   176.40142188     0.04571619
     168     dih      15      10      13      14   103.82338248    -0.00558426
     169     dih      15      10      13      16   -73.04484611     0.02885431
     170     dih      15      10      13       5   233.61841835     0.12631363
     171     dih       8      10      14      13   -84.96288215    -0.07951265
     172     dih       7      10      14      13   105.88750777    -0.00091831
     173     dih       9      10      14      13   129.10556456    -0.27054918
     174     dih       2      10      14      13     9.61138394    -0.04863479
     175     dih       3      10      14      13    32.18672177    -0.06950696
     176     dih      15      10      14      13   -40.39902368    -0.00297824
     177     dih       8      10      15      13   175.82097886    -0.08701824
     178     dih       7      10      15      13   -44.01218548    -0.07533244
     179     dih       9      10      15      13    35.94753742    -0.10836990
     180     dih       2      10      15      13   -81.80250822    -0.07089795
     181     dih       3      10      15      13   -59.31790880    -0.07657552
     182     dih      14      10      15      13    40.23771771     0.00293943
     183     dih      12       4      13      15   167.47050169    -0.15069476
 
----------------------------------------------------------------------
[...]
 
 Mode:    37      Frequency (cm-1):     1063.8413     Intensity (km/mol):        3.0241
 Index  Atom      ---- Displacements (x/y/z) ----
     1     H      -0.512394  -0.342381   0.128764
     2     C       0.040790   0.096087   0.005965
     3     C      -0.017078  -0.156348   0.001442
     4     C      -0.006702   0.018453  -0.039140
     5     O       0.017075   0.065344   0.011159
     6     H      -0.456412  -0.095731   0.098679
     7     H      -0.004335   0.000131  -0.000665
     8     H      -0.000973  -0.004792   0.001105
     9     H       0.003558  -0.001328  -0.000358
    10     C       0.000730   0.001057  -0.001378
    11     H       0.436534  -0.254550  -0.154325
    12     H       0.068428   0.170942   0.144981
    13    Sn      -0.000023  -0.000080  -0.000001
    14    Cl      -0.000217  -0.000026  -0.000080
    15    Cl      -0.000049  -0.000272  -0.000059
    16    Cl      -0.000096  -0.000090   0.000112
    17    Cl      -0.000039  -0.000033   0.000000
 
 Mode:    38      Frequency (cm-1):     1271.9831     Intensity (km/mol):       13.8960
 Index  Atom      ---- Displacements (x/y/z) ----
     1     H       0.793529   0.156084  -0.058816
     2     C      -0.092996   0.098719  -0.005404
     3     C       0.069904  -0.099339   0.002172
     4     C      -0.011548  -0.003753   0.000332
     5     O       0.010147  -0.015976  -0.002081
     6     H      -0.523681  -0.051799   0.061913
     7     H      -0.012923  -0.005194  -0.005248
     8     H      -0.000267  -0.013182  -0.011425
     9     H       0.002919   0.001682  -0.009458
    10     C      -0.000430   0.001640   0.006424
    11     H      -0.052514   0.042780   0.007603
    12     H       0.043254   0.144247   0.006648
    13    Sn       0.000096   0.000158   0.000008
    14    Cl      -0.000143  -0.000030  -0.000086
    15    Cl       0.000067  -0.000061  -0.000041
    16    Cl      -0.000039  -0.000060   0.000099
    17    Cl      -0.000036  -0.000060  -0.000004
 
 Mode:    39      Frequency (cm-1):     1377.8633     Intensity (km/mol):        7.1636
 Index  Atom      ---- Displacements (x/y/z) ----
     1     H       0.030452   0.012937  -0.000717
     2     C      -0.003043   0.003262   0.000273
     3     C      -0.009834  -0.001990   0.000512
     4     C      -0.003643   0.002626   0.000881
     5     O       0.004144  -0.007368  -0.000903
     6     H       0.033431   0.016449  -0.000249
     7     H       0.687632   0.198235   0.128928
     8     H       0.113671   0.640891  -0.106348
     9     H      -0.022764  -0.094121   0.080303
    10     C      -0.065057  -0.062547  -0.009013
    11     H       0.043142  -0.035546  -0.000965
    12     H       0.020117   0.077398   0.000745
    13    Sn       0.000009  -0.000029  -0.000010
    14    Cl      -0.000007   0.000017   0.000006
    15    Cl      -0.000029   0.000032   0.000033
    16    Cl       0.000005   0.000013  -0.000002
    17    Cl      -0.000002   0.000009   0.000001
 
 Mode:    40      Frequency (cm-1):     1382.3463     Intensity (km/mol):        3.4484
 Index  Atom      ---- Displacements (x/y/z) ----
     1     H       0.044830   0.023017  -0.004823
     2     C      -0.005114   0.002595   0.000316
     3     C      -0.019580  -0.001426   0.001183
     4     C      -0.002251   0.003027   0.001444
     5     O       0.005016  -0.009045  -0.001449
     6     H       0.084719   0.034846  -0.002908
     7     H       0.256950   0.177297   0.114256
     8     H      -0.144262  -0.449411  -0.038637
     9     H       0.564008  -0.507550   0.218540
    10     C      -0.056343   0.065472  -0.025170
    11     H       0.076700  -0.066380   0.000565
    12     H       0.029838   0.104688   0.000269
    13    Sn       0.000025  -0.000080   0.000005
    14    Cl      -0.000015   0.000058  -0.000027
    15    Cl      -0.000085   0.000083   0.000044
    16    Cl      -0.000001   0.000030  -0.000021
    17    Cl      -0.000006   0.000031  -0.000002
 
 Mode:    41      Frequency (cm-1):     1388.5732     Intensity (km/mol):       63.5615
 Index  Atom      ---- Displacements (x/y/z) ----
     1     H      -0.119716  -0.095226   0.015976
     2     C       0.004504  -0.001290  -0.000903
     3     C       0.081533  -0.013339  -0.006751
     4     C       0.047219  -0.013571  -0.010846
     5     O      -0.043345   0.070686   0.011158
     6     H      -0.310626  -0.113392   0.010753
     7     H       0.131651   0.057173   0.036159
     8     H      -0.014520  -0.008009  -0.021913
     9     H       0.104002  -0.107585   0.051335
    10     C      -0.019841   0.005276  -0.002881
    11     H      -0.258882   0.216286  -0.003314
    12     H      -0.197849  -0.805788  -0.009390
    13    Sn       0.000058   0.000273  -0.000012
    14    Cl      -0.000064  -0.000111  -0.000067
    15    Cl       0.000105  -0.000361  -0.000117
    16    Cl      -0.000066  -0.000107   0.000150
    17    Cl      -0.000076  -0.000137   0.000016
 
 Mode:    42      Frequency (cm-1):     1411.2175     Intensity (km/mol):       40.1294
 Index  Atom      ---- Displacements (x/y/z) ----
     1     H      -0.357033  -0.104920   0.030087
     2     C       0.032024  -0.037802   0.002429
     3     C       0.111540   0.060215  -0.006921
     4     C      -0.089549  -0.014194   0.010818
     5     O       0.034071  -0.044171  -0.007663
     6     H      -0.393457  -0.191043  -0.010101
     7     H       0.042149   0.020355   0.011902
     8     H      -0.009279  -0.018572  -0.009269
     9     H       0.046064  -0.045250   0.021513
    10     C      -0.007516   0.003962  -0.000540
    11     H      -0.479382   0.398534  -0.013175
    12     H       0.057142   0.488991   0.019520
    13    Sn       0.000018  -0.000005   0.000014
    14    Cl       0.000027   0.000014   0.000026
    15    Cl      -0.000119   0.000232   0.000088
    16    Cl       0.000026   0.000005  -0.000093
    17    Cl      -0.000013  -0.000007  -0.000004
 
 Mode:    43      Frequency (cm-1):     1542.4472     Intensity (km/mol):      353.9935
 Index  Atom      ---- Displacements (x/y/z) ----
     1     H       0.283699   0.196798  -0.043742
     2     C       0.281136  -0.023701   0.012828
     3     C      -0.314804  -0.041155   0.022857
     4     C       0.060514   0.201589   0.006028
     5     O       0.006601  -0.106917  -0.008131
     6     H      -0.502517  -0.349554  -0.072459
     7     H       0.004371   0.008151   0.011261
     8     H      -0.001383  -0.004902   0.005573
     9     H       0.007572  -0.010683   0.008794
    10     C       0.003665  -0.001062  -0.015683
    11     H      -0.211815   0.434307  -0.087845
    12     H      -0.023386  -0.139343  -0.001411
    13    Sn      -0.000454  -0.000838  -0.000005
    14    Cl       0.000555   0.000089   0.000247
    15    Cl      -0.000174   0.000597   0.000204
    16    Cl       0.000256   0.000322  -0.000460
    17    Cl       0.000211   0.000328  -0.000005
 
 Mode:    44      Frequency (cm-1):     1652.1841     Intensity (km/mol):      284.4165
 Index  Atom      ---- Displacements (x/y/z) ----
     1     H      -0.317453  -0.257611   0.021089
     2     C      -0.157962   0.031502   0.005543
     3     C       0.184738  -0.052396  -0.014388
     4     C      -0.069376   0.473341   0.034267
     5     O       0.054508  -0.287122  -0.025203
     6     H       0.193616   0.189567   0.001753
     7     H      -0.008320  -0.004429  -0.009036
     8     H       0.003122  -0.005589  -0.007936
     9     H      -0.000506   0.003474  -0.015490
    10     C       0.000910   0.000540   0.003332
    11     H       0.132648  -0.251161   0.025247
    12     H      -0.327436  -0.434811   0.041386
    13    Sn      -0.001005  -0.001124   0.000052
    14    Cl       0.001333  -0.000274   0.000557
    15    Cl      -0.000103   0.001163   0.000340
    16    Cl       0.000583   0.000396  -0.001045
    17    Cl       0.000356   0.000374  -0.000011
 
 Mode:    45      Frequency (cm-1):     2940.7998     Intensity (km/mol):       38.6427
 Index  Atom      ---- Displacements (x/y/z) ----
     1     H       0.024847  -0.047062  -0.001383
     2     C       0.000057  -0.000201  -0.000077
     3     C      -0.003340   0.002290   0.000217
     4     C       0.080210  -0.021404  -0.012261
     5     O      -0.000246  -0.001638   0.000031
     6     H      -0.003227   0.003475   0.000116
     7     H      -0.000009   0.000605  -0.000130
     8     H       0.000512  -0.000057   0.000263
     9     H      -0.000508  -0.000677   0.000096
    10     C      -0.000053   0.000019   0.000061
    11     H       0.003239   0.001536  -0.000231
    12     H      -0.941725   0.287262   0.143881
    13    Sn       0.000085   0.000056  -0.000009
    14    Cl      -0.000082   0.000134  -0.000032
    15    Cl      -0.000006  -0.000035  -0.000008
    16    Cl      -0.000034   0.000017   0.000084
    17    Cl      -0.000014   0.000001   0.000001
 
 Mode:    46      Frequency (cm-1):     3066.0944     Intensity (km/mol):        0.2126
 Index  Atom      ---- Displacements (x/y/z) ----
     1     H      -0.000819   0.002678   0.000068
     2     C       0.001844  -0.000398   0.000105
     3     C       0.000029  -0.000119  -0.000068
     4     C      -0.000149  -0.000289  -0.000012
     5     O      -0.000002   0.000169   0.000021
     6     H      -0.007104   0.019131  -0.001723
     7     H      -0.149466   0.531186  -0.164042
     8     H       0.570578  -0.119535   0.124224
     9     H      -0.356337  -0.422393  -0.083530
    10     C      -0.005509   0.000910   0.010510
    11     H      -0.012537  -0.014576  -0.000616
    12     H       0.000950  -0.000134  -0.000128
    13    Sn      -0.000001  -0.000005  -0.000003
    14    Cl       0.000002   0.000001   0.000004
    15    Cl      -0.000005   0.000004   0.000005
    16    Cl       0.000001   0.000003   0.000000
    17    Cl      -0.000001   0.000001   0.000001
 
 Mode:    47      Frequency (cm-1):     3118.6817     Intensity (km/mol):        3.7050
 Index  Atom      ---- Displacements (x/y/z) ----
     1     H      -0.141550   0.391153   0.008266
     2     C       0.058008  -0.006315   0.004933
     3     C       0.007551  -0.032466  -0.000415
     4     C       0.002492  -0.001133  -0.000419
     5     O      -0.000327   0.000523   0.000091
     6     H      -0.211923   0.575837  -0.041063
     7     H       0.004634  -0.016406   0.004758
     8     H      -0.013229   0.002930  -0.002847
     9     H       0.010664   0.012788   0.002102
    10     C      -0.000199   0.000029  -0.000765
    11     H      -0.432476  -0.505669  -0.015380
    12     H      -0.018986   0.005492   0.002954
    13    Sn       0.000003   0.000004   0.000001
    14    Cl      -0.000005   0.000004  -0.000002
    15    Cl       0.000002  -0.000003  -0.000001
    16    Cl      -0.000003  -0.000001   0.000003
    17    Cl      -0.000000   0.000001  -0.000000
 
 Mode:    48      Frequency (cm-1):     3128.6587     Intensity (km/mol):        8.0641
 Index  Atom      ---- Displacements (x/y/z) ----
     1     H       0.306115  -0.841453  -0.018291
     2     C       0.029934  -0.013699   0.002463
     3     C      -0.030241   0.072959   0.001872
     4     C      -0.005570  -0.000688   0.000716
     5     O       0.000050  -0.000008  -0.000070
     6     H      -0.124608   0.337263  -0.023795
     7     H       0.001536  -0.006407   0.002181
     8     H      -0.005003   0.000979  -0.000964
     9     H       0.003450   0.004148   0.000673
    10     C       0.000063   0.000103  -0.000536
    11     H      -0.157577  -0.183241  -0.006094
    12     H       0.045273  -0.008487  -0.006436
    13    Sn      -0.000015  -0.000014   0.000002
    14    Cl       0.000017  -0.000004   0.000010
    15    Cl      -0.000000   0.000009   0.000003
    16    Cl       0.000006   0.000003  -0.000016
    17    Cl       0.000005   0.000005  -0.000001
 
 Mode:    49      Frequency (cm-1):     3218.8272     Intensity (km/mol):        0.2267
 Index  Atom      ---- Displacements (x/y/z) ----
     1     H       0.033395  -0.086878  -0.002181
     2     C       0.018223   0.097927  -0.002600
     3     C      -0.003087   0.008365   0.000182
     4     C      -0.000408   0.000036   0.000037
     5     O       0.000112  -0.000266  -0.000024
     6     H       0.256438  -0.648284   0.046047
     7     H      -0.006877   0.024418  -0.007469
     8     H      -0.005826   0.000694  -0.000953
     9     H       0.012341   0.014031   0.002902
    10     C      -0.000010  -0.003549   0.000474
    11     H      -0.465973  -0.524109  -0.015590
    12     H      -0.000518   0.000699   0.000322
    13    Sn      -0.000001  -0.000003  -0.000000
    14    Cl       0.000002   0.000002   0.000001
    15    Cl      -0.000001   0.000002   0.000001
    16    Cl       0.000001   0.000001   0.000000
    17    Cl       0.000000   0.000001   0.000000
 
 Mode:    50      Frequency (cm-1):     3244.6942     Intensity (km/mol):        1.1555
 Index  Atom      ---- Displacements (x/y/z) ----
     1     H      -0.000761   0.001745   0.000075
     2     C      -0.000112  -0.001534  -0.000010
     3     C      -0.000034  -0.000100  -0.000034
     4     C      -0.000031  -0.000050   0.000009
     5     O       0.000001   0.000027  -0.000000
     6     H      -0.004493   0.013036  -0.001639
     7     H      -0.135229   0.537322  -0.169493
     8     H      -0.744289   0.150782  -0.150879
     9     H      -0.134809  -0.188042  -0.032655
    10     C       0.085317  -0.042075   0.029808
    11     H       0.005802   0.005834   0.000054
    12     H       0.000049   0.000005   0.000037
    13    Sn       0.000001  -0.000002  -0.000000
    14    Cl      -0.000001   0.000002  -0.000000
    15    Cl      -0.000003   0.000002   0.000002
    16    Cl      -0.000000   0.000001  -0.000000
    17    Cl      -0.000000   0.000000   0.000000
 
 Mode:    51      Frequency (cm-1):     3253.7023     Intensity (km/mol):        0.5586
 Index  Atom      ---- Displacements (x/y/z) ----
     1     H       0.000784  -0.001723   0.000047
     2     C       0.000490   0.002788  -0.000079
     3     C      -0.000056   0.000133  -0.000020
     4     C      -0.000047  -0.000039  -0.000019
     5     O       0.000011   0.000014  -0.000007
     6     H       0.007382  -0.019129   0.002178
     7     H       0.155188  -0.521277   0.171785
     8     H      -0.177696   0.053726  -0.038189
     9     H      -0.504822  -0.596772  -0.129990
    10     C       0.044341   0.089594  -0.000244
    11     H      -0.013688  -0.016021  -0.001498
    12     H       0.000106  -0.000065   0.000099
    13    Sn      -0.000000  -0.000001  -0.000001
    14    Cl       0.000001  -0.000000   0.000002
    15    Cl      -0.000000   0.000002   0.000001
    16    Cl       0.000000   0.000001  -0.000000
    17    Cl       0.000000   0.000001   0.000001

PES point character: Geometry corresponds to a transition state.
                     (Hint: Very small negative frequencies do not count towards being a
                     transition state, as they usually indicate noise on a very flat PES. See
                     the PESPointCharacter%NegativeFrequenciesTolerance keyword documentation.)




 ============================
 Statistical Thermal Analysis  ***  ideal gas assumed  ***
 ============================
  
 Pressure:                  1.000000 atm.
 Temperature:             298.150000 K



 Moments of Inertia [amu*bohr^2] and principal axis
 ==================================================

        2379.2218       6524.1021       6811.0529
 ------------------------------------------------
          -0.6384         -0.3897         -0.6637
          -0.7441          0.5330          0.4028
           0.1968          0.7511         -0.6302


 The rotational contribution to the molecular entropy includes
 a term, dependent on the symmetry number sigma. The results 
 reported below were computed using sigma = 1, determined from
 the point group symmetry of the input geometry (NOSYM). 
 If this is not the correct symmetry, try symmetrizing the molecule before
 running the calculation (note: linear molecules should be aligned along one
 of the Cartesian axes).
 Contributions from frequencies below 20 1/cm are not included in vibrational sums.
 Their contributions, if any, are reported separately.


     Temp                                                        Transl      Rotat     Vibrat     Total
     ----                                                        ------      -----     ------     -----

     298.15   Entropy (cal/mol-K):                               43.284     33.025     61.358    137.667
              Nuclear Internal Energy (kcal/mol):                 0.889      0.889     69.747     71.525
              Constant Volume Heat Capacity (cal/mol-K):          2.981      2.981     43.330     49.291
          (c) Constant Volume Heat Capacity (cal/mol-K):          2.981      2.981     36.121     42.082

       Summary of energy terms
                                                   hartree              eV         kcal/mol           kJ/mol
                                      --------------------     -----------       ----------      -----------
      Energy from Engine:               -2.870054910172990        -78.0982         -1800.99         -7535.33
      Nuclear Internal Energy:           0.113981545716540          3.1016            71.52           299.26
  (c) Nuclear Internal Energy:           0.110370275861847          3.0033            69.26           289.78
      Internal Energy U:                -2.756073364456451        -74.9966         -1729.46         -7236.07
      pV/n = RT:                         0.000944186013486          0.0257             0.59             2.48
      Enthalpy H:                       -2.755129178442965        -74.9709         -1728.87         -7233.59
      -T*S:                             -0.065409940161569         -1.7799           -41.05          -171.73
  (c) -T*S:                             -0.061532190517654         -1.6744           -38.61          -161.55
      Gibbs free energy:                -2.820539118604534        -76.7508         -1769.92         -7405.32
 
 
 
  (c) The properties marked with this symbol have been corrected using 'low vibrational frequency free rotor
      interpolation corrections'. For those terms all positive frequencies are used (also ones below 20 1/cm),
      but the contribution to the partition function of small vibrational frequencies is modified as described
      in the following paper:
      S. Grimme, 'Supramolecular Binding Thermodynamics by Dispersion-Corrected Density Functional Theory'
      (Chem. Eur. J. 2012, 18, 9955-9964)
      Configuration: Dampener Frequency          :   100.000 1/cm
                     Dampener Alpha              :     4.000
                     Averaging Moment of Inertia : 1.000E-44 kg m2

--------------
Atomic charges
--------------
  Index   Atom    Charge
      1      H   -0.2100
      2      C    0.4892
      3      C    0.1674
      4      C    0.7360
      5      O   -0.5451
      6      H   -0.1656
      7      H   -0.1565
      8      H   -0.1582
      9      H   -0.1293
     10      C    0.5326
     11      H   -0.2017
     12      H   -0.2454
     13     Sn    1.0465
     14     Cl   -0.2951
     15     Cl   -0.2786
     16     Cl   -0.2853
     17     Cl   -0.3008


Dipole moment vector    (Debye):    -4.31305695   -6.32185619    1.13582163
              magnitude (Debye):     7.73682214


Final PES point is a transition state. Transition state search successful!


AMS application finished. Exiting.
NORMAL TERMINATION
     Total cpu time:  100048.88
  Total system time:     536.20
 Total elapsed time:  202402.62
 WARNING: total elapsed time is much higher than the (CPU+system) time. 
 Make sure the machine is not oversubscribed and has enough memory, SCM_TMPDIR p
 oints to a fast file system, and the network is fast enough.
