

 Parallel Execution: Process Information
 ==============================================================================
 Rank   Node Name                              NodeID   MyNodeRank  NodeMaster
    0   node109                                   0          0          0
    1   node109                                   0          1         -1
    2   node109                                   0          2         -1
    3   node109                                   0          3         -1
 ==============================================================================


May use up to 122928MB of RAM as shared memory on node 0

 *******************************************************************************
 *                                                                             *
 *  --------------------------------                                           *
 *   Amsterdam Modeling Suite (AMS)              2021.102                      *
 *  --------------------------------                                           *
 *                                               r95042 2021-06-07             *
 *                                                                             *
 *                                                                             *
 *                              =================                              *
 *                              |               |                              *
 *                              |     A M S     |                              *
 *                              |               |                              *
 *                              =================                              *
 *                                                                             *
 *                                                                             *
 *   Online information and documentation:  https://www.scm.com/support/       *
 *   E-mail:  support@scm.com   info@scm.com                                   *
 *                                                                             *
 *   Scientific publications using AMS results must be properly referenced     *
 *   See the User Manuals (or the web site) for recommended citations          *
 *   The terms and conditions of the End User License Agreement apply to       *
 *   the use of AMS, https://www.scm.com/license-terms/                        *
 *                                                                             *
 **********************  x86_64_linux_intel / intelmpi  ************************
 
 Licensed to: VU/FEW (+ SARA) / ALGEMEEN / Amsterdam / THE NETHERLANDS
 SCM User ID: u7668
  
 AMS 2021.102  RunTime: Jan27-2022 21:29:47  ShM Nodes: 1  Procs: 4

 AMS jobname: 5.achiral_catalyst.H_Ph_ZnCl2.TS
 AMS jobid  : 1559110244

 Start   directory: /scistor/tc/yhk800/MasterProject/calculations/achiral_catalyst_H_Ph_ZnCl2/5.achiral_catalyst.H_Ph_ZnCl2.TS/
 Results directory: /scistor/tc/yhk800/MasterProject/calculations/achiral_catalyst_H_Ph_ZnCl2/5.achiral_catalyst.H_Ph_ZnCl2.TS/
 Scratch directory: /scratch/5292/amstmp_5.achiral_catalyst.H_Ph_ZnCl2.TS_kid0.1559110244/


 Communication costs MPI_COMM_WORLD:      1.811 usec per message,   0.0062 usec per 8-byte item
 Communication costs for intra-node:      0.891 usec per message,   0.0070 usec per 8-byte item

 RNG seed: -750475341 -357055630 734496255 -371807549 1074081983 -2022426550 -885486908 -522280740



                      ************************************************************************
                      *  ADF 2021.102  RunTime: Jan27-2022 21:29:48  ShM Nodes: 1  Procs: 4  *
                      ************************************************************************
  
       *****************************
       *  TRANSITION STATE SEARCH  *
       *****************************

Optimization Method                    Quasi Newton
Optimization Coordinates               Delocalized Coordinates
Optimize lattice                       F
 
 ------------------------------------------------------
 Convergence criteria (Hartree,Angstrom)
 ------------------------------------------------------
 Maximum gradient               0.001000000000
 Maximum rms gradient           0.000666666667
 Maximum step allowed           0.010000000000
 Maximum rms step allowed       0.006666666667
 Maximum energy change allowe   0.000250000000
 Maximum stress energy allowe   0.000500000000
 
Initial model Hessian                  Automatic Hessian
 
------------------------------------
Quasi-Newton Optimizer Parameters
------------------------------------
Hessian Update Method                  Bofill
Maximum number of steps                  250
First GDIIS cycle                          0
Maximum GDIIS vectors                      0
Trust radius (bohr)                        0.200000
Trust radius varies                        F
Constraints converged at all steps         T
Use projector                              T
 
 Rigid motions settings for: old optimizer
 Atomic rotations (x,y,z):     T T T
 Atomic translations (x,y,z):  T T T
 Tolerance:                   1.000000000000000E-006
 
           1  TSRC entries:
    i   type      a1    a2    a3    a4    coef
    1 Distance     2    10               -1.000
 
--------
Geometry
--------
Formula: C10H11Cl2OSn
Atoms
  Index Symbol   x (angstrom)   y (angstrom)   z (angstrom)
      1      H     0.19369716    -1.85361092    -0.24516176
      2      C    -0.92057816    -0.12292898     0.28183759
      3      C     0.21368396    -0.77846351    -0.06958517
      4      C     1.52168394    -0.13059856    -0.22805405
      5      O     2.57084417    -0.68022178    -0.54313771
      6      H    -0.93117356     0.95749943     0.37346659
      7      H    -1.16677948    -1.14795174     3.01281369
      8      H    -2.10496465     0.45730942     2.86041604
      9      H    -0.24714630     0.47546451     3.02589233
     10      C    -1.16197426    -0.07675120     2.85297480
     11      C    -4.74611209    -2.17290540     0.36190353
     12      C    -4.64303884    -0.90540134    -0.22468614
     13      C    -3.40885292    -0.24404214    -0.25051686
     14      C    -2.27774025    -0.85018701     0.31024211
     15      C    -2.38081349    -2.11769108     0.89683179
     16      C    -3.61499942    -2.77905027     0.92266250
     17      H    -5.50859650    -0.44156308    -0.65379390
     18      H    -3.32997851     0.72588585    -0.69939096
     19      H    -1.51525584    -2.58152934     1.32593954
     20      H    -3.69387383    -3.74897827     1.37153661
     21      H    -5.69054416    -2.67899514     0.38166988
     22      H     1.51741535     0.92352060    -0.04443873
     23     Sn     3.93691787     0.31396217    -0.73139533
     24     Cl     5.61246515     0.71374680     0.91317142
     25     Cl     4.90148469     1.41079126    -2.61246203
 
Total System Charge             0.00000
 
 
----------------
ADF Engine Input
----------------
 
 NumericalQuality VeryGood
 SCF
 Converge 1.0e-6
 Iterations 99
 End
 SYMMETRY NOSYM
 SpinPolarization 1.0
 Unrestricted Yes
 XC
 GGA OLYP
 End
 basis
 core None
 type TZ2P
 End
 

 Title: *** (NO TITLE) ***

 Using automatic Hessian for delocalized coordinates.
 *** GOStep1 ***

 Energy gradients wrt nuclear displacements
 ==========================================

     Atom      Cartesian (a.u./angstrom)
                 X         Y         Z
 ----------------------------------------
     1 H    -0.000864 -0.000935  0.001216
     2 C     0.116068 -0.001523 -0.086186
     3 C    -0.178744 -0.006327  0.038240
     4 C     0.372641 -0.024782 -0.079443
     5 O     0.153673  0.401820  0.007922
     6 H     0.004510 -0.003036  0.012221
     7 H    -0.001080 -0.006375 -0.003563
     8 H    -0.001411  0.001365 -0.004251
     9 H    -0.000159 -0.000920 -0.007450
    10 C    -0.013335 -0.006360  0.042026
    11 C    -0.017460 -0.014205  0.002507
    12 C    -0.022669  0.014448 -0.013452
    13 C     0.010284  0.024716 -0.011236
    14 C    -0.052346 -0.033111  0.009783
    15 C     0.037029  0.008459  0.021150
    16 C    -0.010488 -0.027333  0.014291
    17 H     0.016521 -0.009161  0.008618
    18 H    -0.001668 -0.018255  0.008786
    19 H    -0.012093  0.008475 -0.007310
    20 H     0.001224  0.018618 -0.009401
    21 H     0.018201  0.009418 -0.000659
    22 H     0.000732 -0.039808 -0.007595
    23 Sn   -0.393296 -0.302775  0.048172
    24 Cl   -0.014864  0.012366 -0.023889
    25 Cl   -0.010405 -0.004779  0.039504
 ----------------------------------------
 Mulliken charges used for AMS results%charges...
           Primitive Internal Coordinates (atoms in internal order)
-------------------------------------------------------------------------------
    index    type      i       j       k       l   value(A,deg)     TSRC Vect
-------------------------------------------------------------------------------
       1     bnd       1       3       0       0     1.08957265     0.00000000
       2     bnd       2       6       0       0     1.08435865    -0.00000000
       3     bnd       2      14       0       0     1.54000000     0.00370254
       4     bnd       2       3       0       0     1.35638270     0.00000000
       5     bnd       3       4       0       0     1.46823204     0.00000000
       6     bnd       4      22       0       0     1.07000000    -0.00000000
       7     bnd       4       5       0       0     1.22560213     0.00000000
       8     bnd       5      23       0       0     1.70000000     0.00000000
       9     bnd       8      10       0       0     1.08374674    -0.00000000
      10     bnd       7      10       0       0     1.08307071     0.00000000
      11     bnd       9      10       0       0     1.08247534     0.00000000
      12     bnd      11      21       0       0     1.07166668     0.00000000
      13     bnd      11      12       0       0     1.40045638    -0.00176246
      14     bnd      12      13       0       0     1.40045639     0.00308292
      15     bnd      13      14       0       0     1.40045639     0.00484538
      16     bnd      14      15       0       0     1.40045639    -0.00774887
      17     bnd      15      19       0       0     1.07166666    -0.00000000
      18     bnd      11      16       0       0     1.40045639    -0.00484538
      19     bnd      15      16       0       0     1.40045639    -0.00308292
      20     bnd      16      20       0       0     1.07166668    -0.00000000
      21     bnd      12      17       0       0     1.07166668     0.00000000
      22     bnd      13      18       0       0     1.07166666    -0.00000000
      23     bnd       4      23       0       0     2.50685892    -0.00000000
      24     bnd      23      25       0       0     2.38156149    -0.00000000
      25     bnd      23      24       0       0     2.38157222     0.00000000
      26     bnd       2      10       0       0     2.58285714    -0.46850046
      27     bnd      10      14       0       0     2.88246877    -0.17165346
      28     bnd      10      15       0       0     3.07855488    -0.03699203
      29     ang       6       2      14       0   117.41061246     0.00855328
      30     ang       6       2       3       0   120.77103538     0.01284013
      31     ang       6       2      10       0    84.09702452    -0.03102288
      32     ang      14       2       3       0   120.89733876    -0.02498808
      33     ang      14       2      10       0    84.70507562     0.08602895
      34     ang       3       2      10       0   110.16403203    -0.03328956
      35     ang       1       3       2       0   120.21909900     0.00000000
      36     ang       1       3       4       0   115.74474309     0.00000000
      37     ang       2       3       4       0   124.03410402    -0.00000000
      38     ang       3       4      22       0   114.37019779    -0.00000000
      39     ang       3       4       5       0   126.33327002     0.00000000
      40     ang       3       4      23       0   163.38119183     0.00000000
      41     ang      22       4       5       0   119.29637471    -0.00000000
      42     ang      22       4      23       0    82.16002634    -0.00000000
      43     ang       5       4      23       0    37.17058570     0.00000000
      44     ang       4       5      23       0   117.00680806    -0.00000000
      45     ang       8      10       7       0   118.84988012    -0.00146834
      46     ang       8      10       9       0   118.87311123    -0.00024377
      47     ang       8      10       2       0    95.56458342     0.00909663
      48     ang       8      10      14       0    78.54912471    -0.00567121
      49     ang       8      10      15       0    89.23041841     0.00006763
      50     ang       7      10       9       0   118.99448321     0.00257304
      51     ang       7      10       2       0    97.44889075     0.00885824
      52     ang       7      10      14       0    82.13060339    -0.00242205
      53     ang       7      10      15       0    55.68992698    -0.00719646
      54     ang       9      10       2       0    95.11483796    -0.02038856
      55     ang       9      10      14       0   127.22419637     0.00509499
      56     ang       9      10      15       0   140.74147852     0.00345464
      57     ang       2      10      15       0    52.59994653     0.02406216
      58     ang      21      11      12       0   120.00000003     0.00262141
      59     ang      21      11      16       0   119.99999998     0.00262141
      60     ang      12      11      16       0   119.99999999    -0.00524282
      61     ang      11      12      13       0   120.00000045     0.00283320
      62     ang      11      12      17       0   119.99999992    -0.00141660
      63     ang      13      12      17       0   119.99999963    -0.00141660
      64     ang      12      13      14       0   119.99999956     0.00956415
      65     ang      12      13      18       0   120.00000060    -0.00478207
      66     ang      14      13      18       0   119.99999984    -0.00478207
      67     ang       2      14      13       0   120.00000008     0.05233565
      68     ang       2      14      15       0   119.99999944    -0.02667342
      69     ang       2      14      10       0    63.15528843    -0.11163583
      70     ang      13      14      15       0   120.00000047    -0.02566222
      71     ang      13      14      10       0   123.34795653     0.02510012
      72     ang      15      14      10       0    84.36745140     0.04820738
      73     ang      14      15      19       0   120.00000056    -0.02292897
      74     ang      14      15      16       0   119.99999929     0.02509558
      75     ang      14      15      10       0    68.71481583    -0.05236308
      76     ang      19      15      16       0   120.00000015    -0.00216660
      77     ang      19      15      10       0    73.30633988    -0.00817627
      78     ang      16      15      10       0   130.56157217     0.05252240
      79     ang      11      16      15       0   120.00000024    -0.00658788
      80     ang      11      16      20       0   119.99999995     0.00329394
      81     ang      15      16      20       0   119.99999981     0.00329394
      82     ang       5      23      25       0   133.02068152    -0.00000000
      83     ang       5      23      24       0   125.94803217    -0.00000000
      84     ang       4      23      25       0   129.08510115    -0.00000000
      85     ang       4      23      24       0   124.67711166    -0.00000000
      86     ang      25      23      24       0   100.55396798     0.00000000
      87     dih       6       2      14      13    34.24865644    -0.03986035
      88     dih       6       2      14      15   214.24865620    -0.00290824
      89     dih       6       2      14      10   -80.53711813    -0.00962326
      90     dih       3       2      14      13   225.14946408    -0.02037423
      91     dih       3       2      14      15    45.14946384     0.01657788
      92     dih       3       2      14      10   110.36368951     0.00986287
      93     dih      10       2      14      13   114.78577457    -0.03023709
      94     dih      10       2      14      15   -65.21422568     0.00671501
      95     dih       6       2       3       1   185.43025046    -0.01107025
      96     dih       6       2       3       4     5.97435318    -0.01107025
      97     dih      14       2       3       1    -5.83693582    -0.03186770
      98     dih      14       2       3       4   174.70716690    -0.03186770
      99     dih      10       2       3       1    90.20089317     0.04293795
     100     dih      10       2       3       4   -89.25500411     0.04293795
     101     dih       1       3       4      22   180.37552847    -0.00000000
     102     dih       1       3       4       5     0.52197473    -0.00000000
     103     dih       1       3       4      23     6.59180955    -0.00000000
     104     dih       2       3       4      22    -0.14644617    -0.00000000
     105     dih       2       3       4       5   180.00000148    -0.00000000
     106     dih       2       3       4      23   186.06983491    -0.00000000
     107     dih       3       4       5      23   177.13092032     0.00000000
     108     dih      22       4       5      23    -2.71611828    -0.00000000
     109     dih       4       5      23      25   267.05932478    -0.00000000
     110     dih       4       5      23      24    96.59812160    -0.00000000
     111     dih      21      11      12      13   180.00000000    -0.00260094
     112     dih      21      11      12      17    -0.00000085    -0.00130719
     113     dih      16      11      12      13     0.00000085    -0.00341256
     114     dih      16      11      12      17   179.99999915    -0.00211880
     115     dih      11      12      13      14    -0.00000171    -0.00126139
     116     dih      11      12      13      18   179.99999915     0.00042291
     117     dih      17      12      13      14   180.00000148    -0.00255514
     118     dih      17      12      13      18     0.00000171    -0.00087085
     119     dih      12      13      14       2   180.00000171     0.04828459
     120     dih      12      13      14      15     0.00000171     0.01133248
     121     dih      12      13      14      10   255.86129775    -0.05501212
     122     dih      18      13      14       2     0.00000000     0.04660029
     123     dih      18      13      14      15   180.00000085     0.00964819
     124     dih      18      13      14      10    75.86129736    -0.05669642
     125     dih       2      14      15      19    -0.00000171    -0.04697536
     126     dih       2      14      15      16   179.99999852    -0.05368174
     127     dih       2      14      15      10    54.48589834    -0.09017666
     128     dih      13      14      15      19   179.99999852    -0.01002325
     129     dih      13      14      15      16    -0.00000148    -0.01672964
     130     dih      13      14      15      10   234.48589810    -0.05322455
     131     dih      10      14      15      19   -54.48589835     0.04320130
     132     dih      10      14      15      16   125.51410150     0.03649492
     133     dih      21      11      16      15   179.99999915    -0.00279621
     134     dih      21      11      16      20     0.00000000    -0.00111191
     135     dih      12      11      16      15    -0.00000085    -0.00198460
     136     dih      12      11      16      20   180.00000000    -0.00030030
     137     dih      14      15      16      11     0.00000191     0.01205569
     138     dih      14      15      16      20   180.00000171     0.01037139
     139     dih      19      15      16      11   180.00000226     0.00534931
     140     dih      19      15      16      20     0.00000191     0.00366501
     141     dih      10      15      16      11    86.69956322    -0.01376432
     142     dih      10      15      16      20   266.69956323    -0.01544862
     143     dih       3       4      23       5    -8.10496260    -0.00000000
     144     dih       3       4      23      25   101.73349954     0.00000000
     145     dih       3       4      23      24   249.82392237    -0.00000000
     146     dih      22       4      23       5   177.60912466    -0.00000000
     147     dih      22       4      23      25   -72.55241320     0.00000000
     148     dih      22       4      23      24    75.53800964    -0.00000000
     149     dih       5       4      23      25   109.83846214     0.00000000
     150     dih       5       4      23      24   257.92888497    -0.00000000
     151     dih       6       2      10       8    60.32627910     0.00089318
     152     dih       6       2      10       7   180.43650753     0.00294483
     153     dih       6       2      10       9   -59.39742086     0.00302683
     154     dih       6       2      10      14   118.31924202    -0.00069755
     155     dih       6       2      10      15   145.07776256    -0.00204241
     156     dih      14       2      10       8   -57.99296292     0.00159073
     157     dih      14       2      10       7    62.11726551     0.00364238
     158     dih      14       2      10       9   182.28333712     0.00372438
     159     dih      14       2      10      15    26.75852053    -0.00134486
     160     dih       3       2      10       8   180.98682002     0.00004114
     161     dih       3       2      10       7   -58.90295155     0.00209280
     162     dih       3       2      10       9    61.26312006     0.00217480
     163     dih       3       2      10      14   238.97978294    -0.00154958
     164     dih       3       2      10      15   265.73830347    -0.00289445
     165     dih       8      10      14       2   120.55659496     0.00123949
     166     dih       8      10      14      13    10.81460513     0.00197560
     167     dih       8      10      14      15   248.36518556    -0.00848411
     168     dih       7      10      14       2   242.22438904     0.00209558
     169     dih       7      10      14      13   132.48239922     0.00283169
     170     dih       7      10      14      15    10.03297964    -0.00762802
     171     dih       9      10      14       2     2.85653387     0.00494493
     172     dih       9      10      14      13   253.11454404     0.00568104
     173     dih       9      10      14      15   130.66512447    -0.00477867
     174     dih       2      10      14      13   250.25801017     0.00073611
     175     dih       2      10      14      15   127.80859060    -0.00972360
     176     dih      15      10      14       2   232.19140940     0.00972360
     177     dih      15      10      14      13   122.44941957     0.01045971
     178     dih       8      10      15      14    65.66230388    -0.00998150
     179     dih       8      10      15      19   198.27580797     0.00647661
     180     dih       8      10      15      16   -46.23027986     0.00102270
     181     dih       7      10      15      14   192.05953883    -0.00823366
     182     dih       7      10      15      19   -35.32695708     0.00822445
     183     dih       7      10      15      16    80.16695508     0.00277054
     184     dih       9      10      15      14   -72.64127535    -0.01427282
     185     dih       9      10      15      19    59.97222874     0.00218529
     186     dih       9      10      15      16   175.46614091    -0.00326862
     187     dih       2      10      15      14   -31.94269627    -0.01864577
     188     dih       2      10      15      19   100.67080782    -0.00218766
     189     dih       2      10      15      16   216.16471998    -0.00764157
     190     dih      14      10      15      19   132.61350409     0.01645811
     191     dih      14      10      15      16   248.10741625     0.01100420
Hessian eigenvector     1(     0.001) has overlap with TSRC:    0.48781E+00
Hessian eigenvector     2(     0.006) has overlap with TSRC:    0.26266E-01
Hessian eigenvector     3(     0.010) has overlap with TSRC:    0.19135E-01
Hessian eigenvector     4(     0.010) has overlap with TSRC:    0.25723E-02
Hessian eigenvector     5(     0.010) has overlap with TSRC:    0.37435E-02
Hessian eigenvector     6(     0.010) has overlap with TSRC:    0.87529E-02
Hessian eigenvector     7(     0.010) has overlap with TSRC:    0.34747E-02
Hessian eigenvector     8(     0.011) has overlap with TSRC:    0.70068E-02
Hessian eigenvector     9(     0.011) has overlap with TSRC:    0.88009E-04
Hessian eigenvector    10(     0.012) has overlap with TSRC:    0.31346E-04
Hessian eigenvector    11(     0.012) has overlap with TSRC:    0.40213E-03
Hessian eigenvector    12(     0.012) has overlap with TSRC:    0.78501E-03
Hessian eigenvector    13(     0.012) has overlap with TSRC:    0.22917E-01
Hessian eigenvector    14(     0.012) has overlap with TSRC:    0.98976E-02
Hessian eigenvector    15(     0.016) has overlap with TSRC:    0.19029E-02
Hessian eigenvector    16(     0.017) has overlap with TSRC:    0.31514E-07
Hessian eigenvector    17(     0.019) has overlap with TSRC:    0.12823E-07
Hessian eigenvector    18(     0.020) has overlap with TSRC:    0.47236E-01
Hessian eigenvector    19(     0.021) has overlap with TSRC:    0.18743E+00
Hessian eigenvector    20(     0.022) has overlap with TSRC:    0.14055E+00
Hessian eigenvector    21(     0.029) has overlap with TSRC:    0.81207E-02
Hessian eigenvector    22(     0.031) has overlap with TSRC:    0.17463E-01
Hessian eigenvector    23(     0.040) has overlap with TSRC:    0.11416E-01
Hessian eigenvector    24(     0.044) has overlap with TSRC:    0.60891E-01
Hessian eigenvector    25(     0.051) has overlap with TSRC:    0.43258E-01
Hessian eigenvector    26(     0.067) has overlap with TSRC:    0.44498E-01
Hessian eigenvector    27(     0.085) has overlap with TSRC:    0.51898E-01
Hessian eigenvector    28(     0.087) has overlap with TSRC:    0.11876E-01
Hessian eigenvector    29(     0.090) has overlap with TSRC:    0.25171E-01
Hessian eigenvector    30(     0.100) has overlap with TSRC:    0.14398E-02
Hessian eigenvector    31(     0.121) has overlap with TSRC:    0.11800E+00
Hessian eigenvector    32(     0.123) has overlap with TSRC:    0.11570E-01
Hessian eigenvector    33(     0.170) has overlap with TSRC:    0.93153E-01
Hessian eigenvector    34(     0.176) has overlap with TSRC:    0.22159E-08
Hessian eigenvector    35(     0.187) has overlap with TSRC:    0.91445E-10
Hessian eigenvector    36(     0.210) has overlap with TSRC:    0.23664E-10
Hessian eigenvector    37(     0.213) has overlap with TSRC:    0.44448E-10
Hessian eigenvector    38(     0.216) has overlap with TSRC:    0.20109E-07
Hessian eigenvector    39(     0.223) has overlap with TSRC:    0.27720E-10
Hessian eigenvector    40(     0.223) has overlap with TSRC:    0.21762E-10
Hessian eigenvector    41(     0.223) has overlap with TSRC:    0.67254E-10
Hessian eigenvector    42(     0.223) has overlap with TSRC:    0.21571E-10
Hessian eigenvector    43(     0.231) has overlap with TSRC:    0.13528E-07
Hessian eigenvector    44(     0.234) has overlap with TSRC:    0.70942E-10
Hessian eigenvector    45(     0.319) has overlap with TSRC:    0.51983E-10
Hessian eigenvector    46(     0.383) has overlap with TSRC:    0.41860E-02
Hessian eigenvector    47(     0.429) has overlap with TSRC:    0.44727E-02
Hessian eigenvector    48(     0.485) has overlap with TSRC:    0.61093E-02
Hessian eigenvector    49(     0.500) has overlap with TSRC:    0.84237E-15
Hessian eigenvector    50(     0.503) has overlap with TSRC:    0.24067E-15
Hessian eigenvector    51(     0.503) has overlap with TSRC:    0.55450E-14
Hessian eigenvector    52(     0.503) has overlap with TSRC:    0.12350E-14
Hessian eigenvector    53(     0.503) has overlap with TSRC:    0.43197E-14
Hessian eigenvector    54(     0.504) has overlap with TSRC:    0.51687E-15
Hessian eigenvector    55(     0.504) has overlap with TSRC:    0.86294E-16
Hessian eigenvector    56(     0.508) has overlap with TSRC:    0.48218E-02
Hessian eigenvector    57(     0.508) has overlap with TSRC:    0.73129E-14
Hessian eigenvector    58(     0.508) has overlap with TSRC:    0.88485E-14
Hessian eigenvector    59(     0.508) has overlap with TSRC:    0.92319E-14
Hessian eigenvector    60(     0.508) has overlap with TSRC:    0.50054E-14
Hessian eigenvector    61(     0.508) has overlap with TSRC:    0.16265E-13
Hessian eigenvector    62(     0.509) has overlap with TSRC:    0.64136E-14
Hessian eigenvector    63(     0.516) has overlap with TSRC:    0.65455E-11
Hessian eigenvector    64(     0.524) has overlap with TSRC:    0.76930E-14
Hessian eigenvector    65(     0.547) has overlap with TSRC:    0.35823E-11
Hessian eigenvector    66(     0.547) has overlap with TSRC:    0.50820E-14
Hessian eigenvector    67(     0.547) has overlap with TSRC:    0.97124E-10
Hessian eigenvector    68(     0.563) has overlap with TSRC:    0.23573E-14
Hessian eigenvector    69(     0.578) has overlap with TSRC:    0.67556E-11
Hessian eigenvector     1 has the largest overlap with TSRC:  0.48781
           Primitive Internal Coordinates (atoms in internal order)
-------------------------------------------------------------------------------
    index    type      i       j       k       l   value(A,deg)     Max Ovl Vect
-------------------------------------------------------------------------------
       1     bnd       1       3       0       0     1.08957265    -0.00000000
       2     bnd       2       6       0       0     1.08435865    -0.00000000
       3     bnd       2      14       0       0     1.54000000    -0.00504006
       4     bnd       2       3       0       0     1.35638270     0.00000000
       5     bnd       3       4       0       0     1.46823204     0.00000000
       6     bnd       4      22       0       0     1.07000000    -0.00000000
       7     bnd       4       5       0       0     1.22560213     0.00000000
       8     bnd       5      23       0       0     1.70000000     0.00000000
       9     bnd       8      10       0       0     1.08374674    -0.00000000
      10     bnd       7      10       0       0     1.08307071     0.00000000
      11     bnd       9      10       0       0     1.08247534     0.00000000
      12     bnd      11      21       0       0     1.07166668    -0.00000000
      13     bnd      11      12       0       0     1.40045638    -0.00071411
      14     bnd      12      13       0       0     1.40045639    -0.00000697
      15     bnd      13      14       0       0     1.40045639     0.00070715
      16     bnd      14      15       0       0     1.40045639     0.00346221
      17     bnd      15      19       0       0     1.07166666    -0.00000000
      18     bnd      11      16       0       0     1.40045639    -0.00070715
      19     bnd      15      16       0       0     1.40045639     0.00000697
      20     bnd      16      20       0       0     1.07166668    -0.00000000
      21     bnd      12      17       0       0     1.07166668    -0.00000000
      22     bnd      13      18       0       0     1.07166666    -0.00000000
      23     bnd       4      23       0       0     2.50685892    -0.00000000
      24     bnd      23      25       0       0     2.38156149    -0.00000000
      25     bnd      23      24       0       0     2.38157222     0.00000000
      26     bnd       2      10       0       0     2.58285714     0.68987270
      27     bnd      10      14       0       0     2.88246877     0.09175027
      28     bnd      10      15       0       0     3.07855488    -0.00948378
      29     ang       6       2      14       0   117.41061246     0.00105755
      30     ang       6       2       3       0   120.77103538     0.00679440
      31     ang       6       2      10       0    84.09702452     0.02688514
      32     ang      14       2       3       0   120.89733876     0.01515325
      33     ang      14       2      10       0    84.70507562    -0.18875993
      34     ang       3       2      10       0   110.16403203     0.04133659
      35     ang       1       3       2       0   120.21909900    -0.00000017
      36     ang       1       3       4       0   115.74474309    -0.00000023
      37     ang       2       3       4       0   124.03410402    -0.00000018
      38     ang       3       4      22       0   114.37019779    -0.00000000
      39     ang       3       4       5       0   126.33327002     0.00000000
      40     ang       3       4      23       0   163.38119183    -0.00000000
      41     ang      22       4       5       0   119.29637471    -0.00000000
      42     ang      22       4      23       0    82.16002634    -0.00000000
      43     ang       5       4      23       0    37.17058570     0.00000000
      44     ang       4       5      23       0   117.00680806    -0.00000000
      45     ang       8      10       7       0   118.84988012    -0.00127906
      46     ang       8      10       9       0   118.87311123    -0.00070838
      47     ang       8      10       2       0    95.56458342     0.00053574
      48     ang       8      10      14       0    78.54912471    -0.00128165
      49     ang       8      10      15       0    89.23041841     0.00754319
      50     ang       7      10       9       0   118.99448321     0.00187079
      51     ang       7      10       2       0    97.44889075    -0.01484469
      52     ang       7      10      14       0    82.13060339     0.00925549
      53     ang       7      10      15       0    55.68992698     0.00718280
      54     ang       9      10       2       0    95.11483796     0.01468474
      55     ang       9      10      14       0   127.22419637    -0.00867527
      56     ang       9      10      15       0   140.74147852    -0.01524780
      57     ang       2      10      15       0    52.59994653    -0.03297696
      58     ang      21      11      12       0   120.00000003     0.00066754
      59     ang      21      11      16       0   119.99999998     0.00066754
      60     ang      12      11      16       0   119.99999999    -0.00133507
      61     ang      11      12      13       0   120.00000045     0.00033897
      62     ang      11      12      17       0   119.99999992    -0.00016948
      63     ang      13      12      17       0   119.99999963    -0.00016948
      64     ang      12      13      14       0   119.99999956     0.00373703
      65     ang      12      13      18       0   120.00000060    -0.00186852
      66     ang      14      13      18       0   119.99999984    -0.00186852
      67     ang       2      14      13       0   120.00000008    -0.01864000
      68     ang       2      14      15       0   119.99999944     0.02484829
      69     ang       2      14      10       0    63.15528843     0.21142119
      70     ang      13      14      15       0   120.00000047    -0.00620829
      71     ang      13      14      10       0   123.34795653    -0.02665727
      72     ang      15      14      10       0    84.36745140    -0.03753134
      73     ang      14      15      19       0   120.00000056    -0.00246217
      74     ang      14      15      16       0   119.99999929     0.00307841
      75     ang      14      15      10       0    68.71481583     0.03791878
      76     ang      19      15      16       0   120.00000015    -0.00061624
      77     ang      19      15      10       0    73.30633988     0.01855344
      78     ang      16      15      10       0   130.56157217    -0.05093854
      79     ang      11      16      15       0   120.00000024     0.00038895
      80     ang      11      16      20       0   119.99999995    -0.00019448
      81     ang      15      16      20       0   119.99999981    -0.00019448
      82     ang       5      23      25       0   133.02068152     0.00000000
      83     ang       5      23      24       0   125.94803217    -0.00000000
      84     ang       4      23      25       0   129.08510115    -0.00000000
      85     ang       4      23      24       0   124.67711166     0.00000000
      86     ang      25      23      24       0   100.55396798    -0.00000000
      87     dih       6       2      14      13    34.24865644     0.13039208
      88     dih       6       2      14      15   214.24865620    -0.03846705
      89     dih       6       2      14      10   -80.53711813     0.07167408
      90     dih       3       2      14      13   225.14946408    -0.00496807
      91     dih       3       2      14      15    45.14946384    -0.17382720
      92     dih       3       2      14      10   110.36368951    -0.06368608
      93     dih      10       2      14      13   114.78577457     0.05871800
      94     dih      10       2      14      15   -65.21422568    -0.11014113
      95     dih       6       2       3       1   185.43025046    -0.04588446
      96     dih       6       2       3       4     5.97435318    -0.04580754
      97     dih      14       2       3       1    -5.83693582     0.09344594
      98     dih      14       2       3       4   174.70716690     0.09352286
      99     dih      10       2       3       1    90.20089317    -0.10816061
     100     dih      10       2       3       4   -89.25500411    -0.10808369
     101     dih       1       3       4      22   180.37552847     0.00003939
     102     dih       1       3       4       5     0.52197473     0.00003939
     103     dih       1       3       4      23     6.59180955     0.00003941
     104     dih       2       3       4      22    -0.14644617    -0.00003440
     105     dih       2       3       4       5   180.00000148    -0.00003440
     106     dih       2       3       4      23   186.06983491    -0.00003438
     107     dih       3       4       5      23   177.13092032    -0.00000001
     108     dih      22       4       5      23    -2.71611828    -0.00000001
     109     dih       4       5      23      25   267.05932478     0.00000000
     110     dih       4       5      23      24    96.59812160     0.00000000
     111     dih      21      11      12      13   180.00000000     0.01606104
     112     dih      21      11      12      17    -0.00000085    -0.00766696
     113     dih      16      11      12      13     0.00000085     0.01014813
     114     dih      16      11      12      17   179.99999915    -0.01357987
     115     dih      11      12      13      14    -0.00000171    -0.02646762
     116     dih      11      12      13      18   179.99999915    -0.04318598
     117     dih      17      12      13      14   180.00000148    -0.00273962
     118     dih      17      12      13      18     0.00000171    -0.01945798
     119     dih      12      13      14       2   180.00000171    -0.15484532
     120     dih      12      13      14      15     0.00000171     0.01401381
     121     dih      12      13      14      10   255.86129775     0.09266214
     122     dih      18      13      14       2     0.00000000    -0.13812696
     123     dih      18      13      14      15   180.00000085     0.03073217
     124     dih      18      13      14      10    75.86129736     0.10938050
     125     dih       2      14      15      19    -0.00000171     0.15969933
     126     dih       2      14      15      16   179.99999852     0.18361861
     127     dih       2      14      15      10    54.48589834     0.22638700
     128     dih      13      14      15      19   179.99999852    -0.00915981
     129     dih      13      14      15      16    -0.00000148     0.01475948
     130     dih      13      14      15      10   234.48589810     0.05752787
     131     dih      10      14      15      19   -54.48589835    -0.06668768
     132     dih      10      14      15      16   125.51410150    -0.04276839
     133     dih      21      11      16      15   179.99999915     0.01271225
     134     dih      21      11      16      20     0.00000000    -0.00402446
     135     dih      12      11      16      15    -0.00000085     0.01862517
     136     dih      12      11      16      20   180.00000000     0.00188845
     137     dih      14      15      16      11     0.00000191    -0.03107897
     138     dih      14      15      16      20   180.00000171    -0.01434226
     139     dih      19      15      16      11   180.00000226    -0.00715968
     140     dih      19      15      16      20     0.00000191     0.00957703
     141     dih      10      15      16      11    86.69956322    -0.00169453
     142     dih      10      15      16      20   266.69956323     0.01504218
     143     dih       3       4      23       5    -8.10496260    -0.00000003
     144     dih       3       4      23      25   101.73349954    -0.00000002
     145     dih       3       4      23      24   249.82392237    -0.00000002
     146     dih      22       4      23       5   177.60912466    -0.00000001
     147     dih      22       4      23      25   -72.55241320    -0.00000000
     148     dih      22       4      23      24    75.53800964    -0.00000000
     149     dih       5       4      23      25   109.83846214     0.00000000
     150     dih       5       4      23      24   257.92888497     0.00000000
     151     dih       6       2      10       8    60.32627910     0.05732965
     152     dih       6       2      10       7   180.43650753     0.05333120
     153     dih       6       2      10       9   -59.39742086     0.05556730
     154     dih       6       2      10      14   118.31924202     0.02834511
     155     dih       6       2      10      15   145.07776256     0.06095064
     156     dih      14       2      10       8   -57.99296292     0.02898454
     157     dih      14       2      10       7    62.11726551     0.02498609
     158     dih      14       2      10       9   182.28333712     0.02722219
     159     dih      14       2      10      15    26.75852053     0.03260552
     160     dih       3       2      10       8   180.98682002     0.07845744
     161     dih       3       2      10       7   -58.90295155     0.07445899
     162     dih       3       2      10       9    61.26312006     0.07669508
     163     dih       3       2      10      14   238.97978294     0.04947290
     164     dih       3       2      10      15   265.73830347     0.08207842
     165     dih       8      10      14       2   120.55659496     0.03033504
     166     dih       8      10      14      13    10.81460513    -0.06411059
     167     dih       8      10      14      15   248.36518556    -0.02149315
     168     dih       7      10      14       2   242.22438904     0.02635564
     169     dih       7      10      14      13   132.48239922    -0.06808999
     170     dih       7      10      14      15    10.03297964    -0.02547254
     171     dih       9      10      14       2     2.85653387     0.03367166
     172     dih       9      10      14      13   253.11454404    -0.06077397
     173     dih       9      10      14      15   130.66512447    -0.01815653
     174     dih       2      10      14      13   250.25801017    -0.09444563
     175     dih       2      10      14      15   127.80859060    -0.05182818
     176     dih      15      10      14       2   232.19140940     0.05182818
     177     dih      15      10      14      13   122.44941957    -0.04261745
     178     dih       8      10      15      14    65.66230388    -0.01964536
     179     dih       8      10      15      19   198.27580797    -0.06687464
     180     dih       8      10      15      16   -46.23027986    -0.05661321
     181     dih       7      10      15      14   192.05953883    -0.03153362
     182     dih       7      10      15      19   -35.32695708    -0.07876290
     183     dih       7      10      15      16    80.16695508    -0.06850146
     184     dih       9      10      15      14   -72.64127535    -0.01129854
     185     dih       9      10      15      19    59.97222874    -0.05852782
     186     dih       9      10      15      16   175.46614091    -0.04826639
     187     dih       2      10      15      14   -31.94269627    -0.01830390
     188     dih       2      10      15      19   100.67080782    -0.06553318
     189     dih       2      10      15      16   216.16471998    -0.05527175
     190     dih      14      10      15      19   132.61350409    -0.04722928
     191     dih      14      10      15      16   248.10741625    -0.03696785
 
----------------------------------------------------------------------
Geometry Convergence after Step   1       (Hartree/Angstrom,Angstrom)
----------------------------------------------------------------------
current energy                               -4.90867028 Hartree
energy change                      -4.90867028     0.00025000    F
constrained gradient max            0.40184809     0.00100000    F
constrained gradient rms            0.09321285     0.00066667    F
gradient max                        0.40184809
gradient rms                        0.09321285
cart. step max                      0.07658720     0.01000000    F
cart. step rms                      0.02478263     0.00666667    F
 
 
--------
Geometry
--------
Formula: C10H11Cl2OSn
Atoms
  Index Symbol   x (angstrom)   y (angstrom)   z (angstrom)
      1      H     0.20000116    -1.84613706    -0.22096667
      2      C    -0.91738009    -0.10788467     0.28461319
      3      C     0.21924200    -0.76882651    -0.05928019
      4      C     1.52162131    -0.12273844    -0.23301160
      5      O     2.57416388    -0.68364680    -0.53898869
      6      H    -0.92601680     0.97286004     0.37354913
      7      H    -1.21793169    -1.15112643     3.05552112
      8      H    -2.15313978     0.45380240     2.89513373
      9      H    -0.29959103     0.47199638     3.10186806
     10      C    -1.20963371    -0.07921343     2.90215357
     11      C    -4.72889114    -2.18164939     0.34184244
     12      C    -4.63528648    -0.90493222    -0.22535900
     13      C    -3.40713741    -0.23230557    -0.23840871
     14      C    -2.27364437    -0.83153325     0.32511817
     15      C    -2.36882257    -2.10744473     0.89442443
     16      C    -3.59403131    -2.78486290     0.89780743
     17      H    -5.50309605    -0.44450768    -0.65544875
     18      H    -3.33382819     0.74092963    -0.68278136
     19      H    -1.50020858    -2.56804953     1.32229986
     20      H    -3.66510480    -3.76231339     1.33324980
     21      H    -5.66888029    -2.69779585     0.34925477
     22      H     1.51631108     0.93613010    -0.06940661
     23     Sn     3.93933505     0.32519532    -0.75304495
     24     Cl     5.64333617     0.70716020     0.86764579
     25     Cl     4.91438367     1.33420406    -2.67904917
 
Total System Charge             0.00000
 
 *** GOStep2 ***

 Energy gradients wrt nuclear displacements
 ==========================================

     Atom      Cartesian (a.u./angstrom)
                 X         Y         Z
 ----------------------------------------
     1 H    -0.000423 -0.001085  0.001178
     2 C     0.110283  0.001473 -0.080397
     3 C    -0.166243 -0.006958  0.036464
     4 C     0.348647 -0.021064 -0.075208
     5 O     0.147420  0.383055 -0.001918
     6 H     0.003835 -0.003145  0.011113
     7 H    -0.001138 -0.005711 -0.002596
     8 H    -0.001306  0.001154 -0.003211
     9 H    -0.000183 -0.000976 -0.006627
    10 C    -0.013864 -0.007625  0.036371
    11 C    -0.016197 -0.013718  0.002395
    12 C    -0.021950  0.013820 -0.012404
    13 C     0.010092  0.022685 -0.010944
    14 C    -0.053076 -0.030243  0.012850
    15 C     0.035649  0.010045  0.021370
    16 C    -0.009863 -0.027385  0.011329
    17 H     0.015724 -0.008775  0.008129
    18 H    -0.001341 -0.017614  0.008052
    19 H    -0.011351  0.008213 -0.007108
    20 H     0.000962  0.017916 -0.008495
    21 H     0.017198  0.009149 -0.000281
    22 H    -0.000835 -0.037373 -0.006116
    23 Sn   -0.366548 -0.300428  0.049274
    24 Cl   -0.014596  0.014533 -0.021423
    25 Cl   -0.010899  0.000056  0.038203
 ----------------------------------------
 Mulliken charges used for AMS results%charges...
Hessian eigenvector     1(    -0.017) has overlap with TSRC:    0.24393E+00
Hessian eigenvector     1 has the largest overlap with TSRC:  0.24393
           Primitive Internal Coordinates (atoms in internal order)
-------------------------------------------------------------------------------
    index    type      i       j       k       l   value(A,deg)     Max Ovl Vect
-------------------------------------------------------------------------------
       1     bnd       1       3       0       0     1.08954613     0.00108972
       2     bnd       2       6       0       0     1.08443226    -0.00175928
       3     bnd       2      14       0       0     1.53777785     0.01999520
       4     bnd       2       3       0       0     1.35904987     0.01776012
       5     bnd       3       4       0       0     1.46417357     0.00860849
       6     bnd       4      22       0       0     1.07144639    -0.00014909
       7     bnd       4       5       0       0     1.23129445     0.00492787
       8     bnd       5      23       0       0     1.71092807    -0.02678140
       9     bnd       8      10       0       0     1.08367838    -0.00000693
      10     bnd       7      10       0       0     1.08286100    -0.00057903
      11     bnd       9      10       0       0     1.08254137    -0.00104401
      12     bnd      11      21       0       0     1.07239998    -0.00166515
      13     bnd      11      12       0       0     1.40017357     0.00057023
      14     bnd      12      13       0       0     1.40033819     0.00123503
      15     bnd      13      14       0       0     1.40051520    -0.00271640
      16     bnd      14      15       0       0     1.40039944    -0.00555767
      17     bnd      15      19       0       0     1.07225204    -0.00143632
      18     bnd      11      16       0       0     1.40031084    -0.00094457
      19     bnd      15      16       0       0     1.40001546     0.00320543
      20     bnd      16      20       0       0     1.07241361    -0.00177102
      21     bnd      12      17       0       0     1.07240916    -0.00172974
      22     bnd      13      18       0       0     1.07239360    -0.00204847
      23     bnd       4      23       0       0     2.51324871     0.00083479
      24     bnd      23      25       0       0     2.38292063    -0.00111103
      25     bnd      23      24       0       0     2.38246835     0.00290824
      26     bnd       2      10       0       0     2.63396125    -0.34545538
      27     bnd      10      14       0       0     2.88776994    -0.05504993
      28     bnd      10      15       0       0     3.08032747    -0.01252227
      29     ang       6       2      14       0   117.37395420    -0.00658685
      30     ang       6       2       3       0   120.80285384     0.00322001
      31     ang       6       2      10       0    84.65042328    -0.00461360
      32     ang      14       2       3       0   121.02600560    -0.01234297
      33     ang      14       2      10       0    83.17065795     0.08797663
      34     ang       3       2      10       0   110.45992971    -0.00304631
      35     ang       1       3       2       0   120.24153022    -0.00230415
      36     ang       1       3       4       0   115.74770686    -0.01070952
      37     ang       2       3       4       0   124.01049016     0.01308235
      38     ang       3       4      22       0   114.42854397    -0.01686460
      39     ang       3       4       5       0   126.07448219     0.01213668
      40     ang       3       4      23       0   163.51290248     0.00055441
      41     ang      22       4       5       0   119.49696471     0.00471057
      42     ang      22       4      23       0    81.96524593     0.01655943
      43     ang       5       4      23       0    37.57462835    -0.01225840
      44     ang       4       5      23       0   116.39500930     0.01501803
      45     ang       8      10       7       0   118.75928155    -0.00240621
      46     ang       8      10       9       0   118.85971453    -0.00275633
      47     ang       8      10       2       0    95.48127906     0.02394565
      48     ang       8      10      14       0    78.55440733     0.01123871
      49     ang       8      10      15       0    89.54142991    -0.00716822
      50     ang       7      10       9       0   118.96963927    -0.00300595
      51     ang       7      10       2       0    97.51720605     0.01079020
      52     ang       7      10      14       0    82.28086373     0.00632237
      53     ang       7      10      15       0    55.78090227     0.00881935
      54     ang       9      10       2       0    95.48606016    -0.01197943
      55     ang       9      10      14       0   127.37500456     0.00365304
      56     ang       9      10      15       0   140.52214378     0.01943910
      57     ang       2      10      15       0    52.18312423     0.02208822
      58     ang      21      11      12       0   120.01725784    -0.00051089
      59     ang      21      11      16       0   120.01946408    -0.00072368
      60     ang      12      11      16       0   119.96322343     0.00123457
      61     ang      11      12      13       0   120.02558112    -0.00207341
      62     ang      11      12      17       0   119.98981928     0.00026257
      63     ang      13      12      17       0   119.98349878     0.00181083
      64     ang      12      13      14       0   120.03679689    -0.00096585
      65     ang      12      13      18       0   119.98240795     0.00153800
      66     ang      14      13      18       0   119.98053817    -0.00057215
      67     ang       2      14      13       0   120.12355522     0.00496066
      68     ang       2      14      15       0   119.96026768    -0.00971402
      69     ang       2      14      10       0    64.90927443    -0.10376526
      70     ang      13      14      15       0   119.89402356     0.00475337
      71     ang      13      14      10       0   123.08022406     0.03768657
      72     ang      15      14      10       0    84.23868511     0.01564545
      73     ang      14      15      19       0   119.90397048     0.00289825
      74     ang      14      15      16       0   120.08690771    -0.00296183
      75     ang      14      15      10       0    68.86801903    -0.01645550
      76     ang      19      15      16       0   120.00789677     0.00006357
      77     ang      19      15      10       0    73.61463775    -0.01997714
      78     ang      16      15      10       0   130.26746787     0.05028346
      79     ang      11      16      15       0   119.98998265     0.00001316
      80     ang      11      16      20       0   120.00825697    -0.00051829
      81     ang      15      16      20       0   119.99990573     0.00050513
      82     ang       5      23      25       0   132.63217424     0.04642875
      83     ang       5      23      24       0   125.45851368     0.04655257
      84     ang       4      23      25       0   129.51925503    -0.09129516
      85     ang       4      23      24       0   125.15954484    -0.09109887
      86     ang      25      23      24       0   100.91057037    -0.02962567
      87     dih       6       2      14      13    34.81413805    -0.04184053
      88     dih       6       2      14      15   213.10041666     0.01650175
      89     dih       6       2      14      10   -80.34307595    -0.04353675
      90     dih       3       2      14      13   224.96045265     0.04973553
      91     dih       3       2      14      15    43.24673126     0.10807780
      92     dih       3       2      14      10   109.80323865     0.04803931
      93     dih      10       2      14      13   115.15721400     0.00169622
      94     dih      10       2      14      15   -66.55650739     0.06003850
      95     dih       6       2       3       1   184.71818243     0.04621965
      96     dih       6       2       3       4     4.91645573     0.03718173
      97     dih      14       2       3       1    -5.77559251    -0.04957627
      98     dih      14       2       3       4   174.42268079    -0.05861419
      99     dih      10       2       3       1    88.60010092     0.05249420
     100     dih      10       2       3       4   -91.20162578     0.04345627
     101     dih       1       3       4      22   179.97765467     0.00384076
     102     dih       1       3       4       5    -0.05753466     0.01190307
     103     dih       1       3       4      23     6.38242120    -0.00510464
     104     dih       2       3       4      22    -0.21251662     0.01254592
     105     dih       2       3       4       5   179.75229405     0.02060823
     106     dih       2       3       4      23   186.19224991     0.00360053
     107     dih       3       4       5      23   177.00777898     0.00729863
     108     dih      22       4       5      23    -3.02903142     0.01574707
     109     dih       4       5      23      25   265.06917469     0.31894720
     110     dih       4       5      23      24    98.78407235    -0.30816297
     111     dih      21      11      12      13   180.17470824    -0.00361093
     112     dih      21      11      12      17    -0.20700621    -0.00220262
     113     dih      16      11      12      13     0.08968975    -0.00618000
     114     dih      16      11      12      17   179.70797530    -0.00477169
     115     dih      11      12      13      14    -0.49760631     0.00574309
     116     dih      11      12      13      18   179.31795842     0.00991392
     117     dih      17      12      13      14   179.88408385     0.00433477
     118     dih      17      12      13      18    -0.30035143     0.00850561
     119     dih      12      13      14       2   178.66455226     0.05818695
     120     dih      12      13      14      15     0.37713311    -0.00015532
     121     dih      12      13      14      10   256.70940090    -0.05495241
     122     dih      18      13      14       2    -1.15101593     0.05401612
     123     dih      18      13      14      15   180.56156491    -0.00432616
     124     dih      18      13      14      10    76.89383270    -0.05912324
     125     dih       2      14      15      19     1.45806210    -0.06663629
     126     dih       2      14      15      16   181.86064018    -0.06333780
     127     dih       2      14      15      10    56.62604583    -0.11459712
     128     dih      13      14      15      19   179.74830240    -0.00829402
     129     dih      13      14      15      16     0.15088049    -0.00499553
     130     dih      13      14      15      10   234.91628613    -0.05625485
     131     dih      10      14      15      19   -55.16798373     0.04796083
     132     dih      10      14      15      16   125.23459435     0.05125932
     133     dih      21      11      16      15   180.35290728    -0.00153992
     134     dih      21      11      16      20    -0.14247132     0.00005512
     135     dih      12      11      16      15     0.43792766     0.00102915
     136     dih      12      11      16      20   179.94254905     0.00262419
     137     dih      14      15      16      11    -0.55857285     0.00455861
     138     dih      14      15      16      20   179.93676407     0.00296358
     139     dih      19      15      16      11   179.84442631     0.00785710
     140     dih      19      15      16      20     0.33976322     0.00626207
     141     dih      10      15      16      11    86.27310462     0.00537152
     142     dih      10      15      16      20   266.76844153     0.00377649
     143     dih       3       4      23       5    -8.54957464     0.02174607
     144     dih       3       4      23      25    99.60865602     0.30196296
     145     dih       3       4      23      24   251.39036026    -0.26414288
     146     dih      22       4      23       5   177.33773142     0.01406465
     147     dih      22       4      23      25   -74.50403793     0.29428153
     148     dih      22       4      23      24    77.27766631    -0.27182430
     149     dih       5       4      23      25   108.15823065     0.28021688
     150     dih       5       4      23      24   259.93993489    -0.28588895
     151     dih       6       2      10       8    60.52352800    -0.01633976
     152     dih       6       2      10       7   180.53633099    -0.01180303
     153     dih       6       2      10       9   -59.23405242    -0.01537996
     154     dih       6       2      10      14   118.44547266    -0.02069007
     155     dih       6       2      10      15   145.66723953    -0.04033001
     156     dih      14       2      10       8   -57.92194466     0.00435031
     157     dih      14       2      10       7    62.09085833     0.00888704
     158     dih      14       2      10       9   182.32047491     0.00531011
     159     dih      14       2      10      15    27.22176687    -0.01963994
     160     dih       3       2      10       8   181.45548410    -0.01487892
     161     dih       3       2      10       7   -58.53171291    -0.01034219
     162     dih       3       2      10       9    61.69790368    -0.01391912
     163     dih       3       2      10      14   239.37742877    -0.01922923
     164     dih       3       2      10      15   266.59919564    -0.03886917
     165     dih       8      10      14       2   120.61997496     0.01241340
     166     dih       8      10      14      13     9.74374979     0.07135624
     167     dih       8      10      14      15   247.59565810     0.04290396
     168     dih       7      10      14       2   242.14190370     0.00458973
     169     dih       7      10      14      13   131.26567854     0.06353257
     170     dih       7      10      14      15     9.11758685     0.03508029
     171     dih       9      10      14       2     2.90709098     0.00683711
     172     dih       9      10      14      13   252.03086581     0.06577995
     173     dih       9      10      14      15   129.88277412     0.03732766
     174     dih       2      10      14      13   249.12377484     0.05894284
     175     dih       2      10      14      15   126.97568315     0.03049056
     176     dih      15      10      14       2   233.02431685    -0.03049056
     177     dih      15      10      14      13   122.14809169     0.02845229
     178     dih       8      10      15      14    64.98008527     0.04286851
     179     dih       8      10      15      19   197.10632489     0.07538026
     180     dih       8      10      15      16   -47.16533098     0.06319395
     181     dih       7      10      15      14   190.94682264     0.04126260
     182     dih       7      10      15      19   -36.92693774     0.07377435
     183     dih       7      10      15      16    78.80140638     0.06158804
     184     dih       9      10      15      14   -73.56526474     0.03537394
     185     dih       9      10      15      19    58.56097488     0.06788569
     186     dih       9      10      15      16   174.28931900     0.05569938
     187     dih       2      10      15      14   -32.32380323     0.00961118
     188     dih       2      10      15      19    99.80243639     0.04212293
     189     dih       2      10      15      16   215.53078052     0.02993662
     190     dih      14      10      15      19   132.12623962     0.03251175
     191     dih      14      10      15      16   247.85458374     0.02032544
 
----------------------------------------------------------------------
Geometry Convergence after Step   2       (Hartree/Angstrom,Angstrom)
----------------------------------------------------------------------
current energy                               -4.91610792 Hartree
energy change                      -0.00743764     0.00025000    F
constrained gradient max            0.38306192     0.00100000    F
constrained gradient rms            0.08847098     0.00066667    F
gradient max                        0.38306192
gradient rms                        0.08847098
cart. step max                      0.04678740     0.01000000    F
cart. step rms                      0.01707285     0.00666667    F
 
 
--------
Geometry
--------
Formula: C10H11Cl2OSn
Atoms
  Index Symbol   x (angstrom)   y (angstrom)   z (angstrom)
      1      H     0.20409114    -1.85771556    -0.18830932
      2      C    -0.91983751    -0.11871468     0.31884247
      3      C     0.22139316    -0.78021153    -0.02749821
      4      C     1.51657217    -0.13411591    -0.21203409
      5      O     2.57325904    -0.70336750    -0.52095504
      6      H    -0.93115484     0.96266529     0.39929174
      7      H    -1.18894572    -1.14675855     3.03203770
      8      H    -2.11449614     0.46237077     2.87244278
      9      H    -0.25876166     0.46892585     3.05508066
     10      C    -1.17464491    -0.07689640     2.86748493
     11      C    -4.73933406    -2.17550810     0.33657977
     12      C    -4.63773623    -0.90047031    -0.23232179
     13      C    -3.40609533    -0.23449979    -0.24443280
     14      C    -2.27734736    -0.83864232     0.32288837
     15      C    -2.37992502    -2.11350036     0.89117696
     16      C    -3.60810922    -2.78472289     0.89302842
     17      H    -5.50298408    -0.43578228    -0.66526774
     18      H    -3.32665282     0.73872271    -0.68989577
     19      H    -1.51327751    -2.57910233     1.31943436
     20      H    -3.68520993    -3.76147395     1.33127631
     21      H    -5.68325280    -2.68633502     0.34468989
     22      H     1.50886163     0.92763558    -0.05431974
     23     Sn     3.93734689     0.32653799    -0.74932733
     24     Cl     5.63326855     0.75062759     0.87143479
     25     Cl     4.87874258     1.35764200    -2.68259154
 
Total System Charge             0.00000
 
 *** GOStep3 ***

 Energy gradients wrt nuclear displacements
 ==========================================

     Atom      Cartesian (a.u./angstrom)
                 X         Y         Z
 ----------------------------------------
     1 H    -0.000132 -0.001187  0.000898
     2 C     0.108844  0.000205 -0.083151
     3 C    -0.165224 -0.009051  0.037665
     4 C     0.333595 -0.015706 -0.072880
     5 O     0.130904  0.355347 -0.004380
     6 H     0.003294 -0.003007  0.012583
     7 H    -0.001107 -0.005273 -0.003439
     8 H    -0.001125  0.000998 -0.004154
     9 H    -0.000024 -0.000980 -0.007436
    10 C    -0.014182 -0.006850  0.043976
    11 C    -0.015309 -0.012758  0.002349
    12 C    -0.020611  0.013393 -0.011302
    13 C     0.009083  0.021296 -0.010339
    14 C    -0.052180 -0.029919  0.009266
    15 C     0.035112  0.010967  0.020614
    16 C    -0.009241 -0.025624  0.010516
    17 H     0.014700 -0.008363  0.007612
    18 H    -0.001319 -0.016667  0.007405
    19 H    -0.010354  0.007865 -0.007102
    20 H     0.000998  0.016917 -0.007783
    21 H     0.016182  0.008480 -0.000251
    22 H    -0.002138 -0.034447 -0.005129
    23 Sn   -0.336300 -0.277895  0.048905
    24 Cl   -0.013915  0.013002 -0.020985
    25 Cl   -0.009549 -0.000745  0.036543
 ----------------------------------------
 Mulliken charges used for AMS results%charges...
Hessian eigenvector     1(    -0.016) has overlap with TSRC:    0.29829E+00
Hessian eigenvector     1 has the largest overlap with TSRC:  0.29829
           Primitive Internal Coordinates (atoms in internal order)
-------------------------------------------------------------------------------
    index    type      i       j       k       l   value(A,deg)     Max Ovl Vect
-------------------------------------------------------------------------------
       1     bnd       1       3       0       0     1.08957538     0.00030348
       2     bnd       2       6       0       0     1.08442742    -0.00153364
       3     bnd       2      14       0       0     1.53660182     0.01308109
       4     bnd       2       3       0       0     1.36379521     0.03481163
       5     bnd       3       4       0       0     1.45910306    -0.02552428
       6     bnd       4      22       0       0     1.07342885     0.00151131
       7     bnd       4       5       0       0     1.23938157     0.02173375
       8     bnd       5      23       0       0     1.72441145    -0.01157146
       9     bnd       8      10       0       0     1.08358387     0.00035944
      10     bnd       7      10       0       0     1.08253736    -0.00024366
      11     bnd       9      10       0       0     1.08256927    -0.00064989
      12     bnd      11      21       0       0     1.07330914     0.00044354
      13     bnd      11      12       0       0     1.39989016    -0.00032847
      14     bnd      12      13       0       0     1.40021524     0.00136861
      15     bnd      13      14       0       0     1.40032621    -0.00360226
      16     bnd      14      15       0       0     1.39954890    -0.00251885
      17     bnd      15      19       0       0     1.07297134     0.00031978
      18     bnd      11      16       0       0     1.40015978    -0.00178665
      19     bnd      15      16       0       0     1.39963550     0.00197945
      20     bnd      16      20       0       0     1.07333516     0.00050780
      21     bnd      12      17       0       0     1.07332707     0.00045675
      22     bnd      13      18       0       0     1.07327089     0.00031052
      23     bnd       4      23       0       0     2.52210948     0.01403810
      24     bnd      23      25       0       0     2.38472469     0.00478694
      25     bnd      23      24       0       0     2.38387754     0.00725449
      26     bnd       2      10       0       0     2.56168968    -0.42215608
      27     bnd      10      14       0       0     2.87596613    -0.08814167
      28     bnd      10      15       0       0     3.08322056     0.00023388
      29     ang       6       2      14       0   117.24442958    -0.00214396
      30     ang       6       2       3       0   120.74719473    -0.00163906
      31     ang       6       2      10       0    84.77168116     0.01193571
      32     ang      14       2       3       0   120.84333090    -0.01481235
      33     ang      14       2      10       0    85.24779052     0.10144720
      34     ang       3       2      10       0   110.10941024    -0.01652474
      35     ang       1       3       2       0   120.25573778    -0.00579164
      36     ang       1       3       4       0   115.67888444    -0.00987310
      37     ang       2       3       4       0   124.06504731     0.01558576
      38     ang       3       4      22       0   114.39519777    -0.00815504
      39     ang       3       4       5       0   125.79944379     0.00908677
      40     ang       3       4      23       0   163.70069559     0.00286231
      41     ang      22       4       5       0   119.80518455    -0.00094171
      42     ang      22       4      23       0    81.80950237     0.00566995
      43     ang       5       4      23       0    38.04327146    -0.00694870
      44     ang       4       5      23       0   115.66637100     0.00509941
      45     ang       8      10       7       0   118.66510745    -0.00708519
      46     ang       8      10       9       0   118.82210472    -0.00756415
      47     ang       8      10       2       0    95.67875362     0.03393168
      48     ang       8      10      14       0    78.65614115     0.01894996
      49     ang       8      10      15       0    89.57619205    -0.00082181
      50     ang       7      10       9       0   118.88961009    -0.00772266
      51     ang       7      10       2       0    97.84033582     0.02644610
      52     ang       7      10      14       0    82.39530189     0.01832053
      53     ang       7      10      15       0    55.90685263     0.01959600
      54     ang       9      10       2       0    95.53665367     0.00194400
      55     ang       9      10      14       0   127.67980992     0.02067345
      56     ang       9      10      15       0   140.79068450     0.03351548
      57     ang       2      10      15       0    52.43777052     0.02478035
      58     ang      21      11      12       0   120.02554841     0.00020175
      59     ang      21      11      16       0   120.02932431     0.00016491
      60     ang      12      11      16       0   119.94504533    -0.00036667
      61     ang      11      12      13       0   120.03665614     0.00013996
      62     ang      11      12      17       0   119.98331792    -0.00050470
      63     ang      13      12      17       0   119.97879463     0.00036474
      64     ang      12      13      14       0   120.02096150     0.00157280
      65     ang      12      13      18       0   119.99876812     0.00022822
      66     ang      14      13      18       0   119.98021171    -0.00180103
      67     ang       2      14      13       0   120.59150973     0.01100159
      68     ang       2      14      15       0   119.51144245    -0.00812750
      69     ang       2      14      10       0    62.58080231    -0.12034430
      70     ang      13      14      15       0   119.89544898    -0.00287409
      71     ang      13      14      10       0   123.58983525     0.04598866
      72     ang      15      14      10       0    84.84240042     0.03233660
      73     ang      14      15      19       0   119.87731485    -0.00116513
      74     ang      14      15      16       0   120.11221869     0.00386591
      75     ang      14      15      10       0    68.27996879    -0.03345216
      76     ang      19      15      16       0   120.00894162    -0.00270078
      77     ang      19      15      10       0    73.44412150    -0.02162267
      78     ang      16      15      10       0   131.22052210     0.06954052
      79     ang      11      16      15       0   119.98470373    -0.00233791
      80     ang      11      16      20       0   120.01210877     0.00043100
      81     ang      15      16      20       0   119.99927748     0.00190691
      82     ang       5      23      25       0   132.67782801     0.03674545
      83     ang       5      23      24       0   125.37812304     0.03704557
      84     ang       4      23      25       0   129.09258520    -0.09202335
      85     ang       4      23      24       0   124.78398569    -0.09016662
      86     ang      25      23      24       0   101.15219078    -0.01509249
      87     dih       6       2      14      13    33.04154574    -0.06574870
      88     dih       6       2      14      15   212.58108511    -0.01681957
      89     dih       6       2      14      10   -81.62479992    -0.06890518
      90     dih       3       2      14      13   225.28752404     0.04323139
      91     dih       3       2      14      15    44.82706341     0.09216052
      92     dih       3       2      14      10   110.62117838     0.04007491
      93     dih      10       2      14      13   114.66634566     0.00315648
      94     dih      10       2      14      15   -65.79411497     0.05208561
      95     dih       6       2       3       1   185.18508409     0.05678722
      96     dih       6       2       3       4     4.96669072     0.06730538
      97     dih      14       2       3       1    -7.48999434    -0.05597737
      98     dih      14       2       3       4   172.29161229    -0.04545920
      99     dih      10       2       3       1    89.16424474     0.05313545
     100     dih      10       2       3       4   -91.05414864     0.06365362
     101     dih       1       3       4      22   179.65115034     0.01478969
     102     dih       1       3       4       5    -0.50184464     0.01943681
     103     dih       1       3       4      23     6.13427430     0.00190210
     104     dih       2       3       4      22    -0.13953186     0.00471195
     105     dih       2       3       4       5   179.70747315     0.00935907
     106     dih       2       3       4      23   186.34359210    -0.00817564
     107     dih       3       4       5      23   176.98314221     0.00828548
     108     dih      22       4       5      23    -3.17743409     0.01314779
     109     dih       4       5      23      25   265.98157559     0.29733409
     110     dih       4       5      23      24    98.18300473    -0.28473161
     111     dih      21      11      12      13   180.07497711    -0.00391857
     112     dih      21      11      12      17    -0.32874621     0.00368840
     113     dih      16      11      12      13    -0.02912315    -0.00610823
     114     dih      16      11      12      17   179.56715352     0.00149873
     115     dih      11      12      13      14    -0.54972859     0.01215527
     116     dih      11      12      13      18   179.36214375     0.01181417
     117     dih      17      12      13      14   179.85397635     0.00454831
     118     dih      17      12      13      18    -0.23415132     0.00420721
     119     dih      12      13      14       2   180.09870132     0.04424732
     120     dih      12      13      14      15     0.56092589    -0.00468181
     121     dih      12      13      14      10   255.64805694    -0.08319057
     122     dih      18      13      14       2     0.18681252     0.04458841
     123     dih      18      13      14      15   180.64903709    -0.00434072
     124     dih      18      13      14      10    75.73616814    -0.08284948
     125     dih       2      14      15      19     0.01423545    -0.05999272
     126     dih       2      14      15      16   180.46337584    -0.05776781
     127     dih       2      14      15      10    54.38098314    -0.12351549
     128     dih      13      14      15      19   179.55702485    -0.01106359
     129     dih      13      14      15      16     0.00616523    -0.00883868
     130     dih      13      14      15      10   233.92377254    -0.07458636
     131     dih      10      14      15      19   -54.36674769     0.06352277
     132     dih      10      14      15      16   126.08239270     0.06574769
     133     dih      21      11      16      15   180.49170491    -0.00960193
     134     dih      21      11      16      20    -0.22756733     0.00777815
     135     dih      12      11      16      15     0.59580914    -0.00741226
     136     dih      12      11      16      20   179.87653690     0.00996781
     137     dih      14      15      16      11    -0.58480419     0.01488571
     138     dih      14      15      16      20   180.13437504    -0.00249436
     139     dih      19      15      16      11   179.86493096     0.01711063
     140     dih      19      15      16      20     0.58411019    -0.00026945
     141     dih      10      15      16      11    85.93701416     0.00739973
     142     dih      10      15      16      20   266.65619339    -0.00998034
     143     dih       3       4      23       5    -8.74839040     0.02312966
     144     dih       3       4      23      25   100.35876885     0.28301664
     145     dih       3       4      23      24   250.55875438    -0.24017975
     146     dih      22       4      23       5   177.21479331     0.01158199
     147     dih      22       4      23      25   -73.67804744     0.27146896
     148     dih      22       4      23      24    76.52193808    -0.25172743
[...]
    12     C      -0.000018   0.000022   0.000006
    13     C       0.000016   0.000003  -0.000017
    14     C      -0.000329   0.000277   0.000079
    15     C       0.000160  -0.000023  -0.000007
    16     C      -0.000038   0.000055   0.000006
    17     H       0.000106  -0.000164  -0.000014
    18     H      -0.000216  -0.000985  -0.000095
    19     H      -0.000520   0.000366   0.000021
    20     H       0.000047  -0.000237  -0.000019
    21     H      -0.000163  -0.000059  -0.000006
    22     H       0.013841   0.949882   0.299348
    23    Sn      -0.000030  -0.000058  -0.000021
    24    Cl      -0.000127   0.000029   0.000018
    25    Cl      -0.000077   0.000013   0.000080
 
 Mode:    66      Frequency (cm-1):     3062.4683     Intensity (km/mol):        1.3895
 Index  Atom      ---- Displacements (x/y/z) ----
     1     H       0.000063  -0.001308  -0.000388
     2     C      -0.000129  -0.001938  -0.000181
     3     C       0.000034   0.000141  -0.000062
     4     C      -0.000222   0.000097   0.000055
     5     O       0.000117  -0.000017  -0.000035
     6     H       0.000831   0.023140   0.003506
     7     H       0.044969   0.562993  -0.027317
     8     H       0.454685  -0.327324  -0.173996
     9     H      -0.528684  -0.236048   0.007092
    10     C       0.002586   0.000060   0.016577
    11     C       0.000017  -0.000015   0.000002
    12     C      -0.000061   0.000065   0.000013
    13     C       0.000027  -0.000021  -0.000055
    14     C      -0.000009  -0.000017  -0.000131
    15     C       0.000016   0.000087  -0.000009
    16     C      -0.000041  -0.000081  -0.000005
    17     H       0.000683  -0.000650  -0.000127
    18     H      -0.000181  -0.000346  -0.000257
    19     H      -0.000115   0.000008  -0.000251
    20     H       0.000084   0.000881   0.000079
    21     H      -0.000258  -0.000099  -0.000026
    22     H       0.000039  -0.001527  -0.000811
    23    Sn      -0.000003  -0.000001  -0.000005
    24    Cl       0.000003  -0.000002   0.000002
    25    Cl      -0.000003   0.000003   0.000018
 
 Mode:    67      Frequency (cm-1):     3112.3635     Intensity (km/mol):        2.9894
 Index  Atom      ---- Displacements (x/y/z) ----
     1     H       0.001228   0.092663   0.029008
     2     C       0.002383   0.082320   0.014406
     3     C       0.001981  -0.008293  -0.003487
     4     C       0.001086   0.001112   0.000052
     5     O      -0.000358   0.000010   0.000140
     6     H      -0.038600  -0.963626  -0.164311
     7     H       0.002031   0.021901  -0.000539
     8     H       0.006503  -0.004884  -0.002068
     9     H      -0.011736  -0.005340  -0.000344
    10     C       0.000272  -0.001293   0.000647
    11     C       0.001321   0.000389   0.000018
    12     C      -0.002281   0.002476   0.000388
    13     C      -0.002234  -0.012527  -0.001589
    14     C      -0.001945   0.000355   0.000209
    15     C      -0.002463   0.001602   0.000285
    16     C      -0.000240  -0.001273  -0.000162
    17     H       0.034488  -0.028702  -0.004597
    18     H       0.026321   0.142568   0.018147
    19     H       0.026975  -0.023319  -0.003430
    20     H       0.003166   0.016994   0.002050
    21     H      -0.016140  -0.006243  -0.000415
    22     H      -0.003548  -0.014765  -0.003958
    23    Sn      -0.000001   0.000002   0.000001
    24    Cl       0.000006  -0.000002   0.000000
    25    Cl       0.000004   0.000000  -0.000004
 
 Mode:    68      Frequency (cm-1):     3127.1062     Intensity (km/mol):        3.4875
 Index  Atom      ---- Displacements (x/y/z) ----
     1     H       0.000494   0.000880  -0.000117
     2     C       0.000607   0.011495   0.002005
     3     C       0.000096  -0.000185  -0.000113
     4     C       0.000112   0.000256   0.000067
     5     O      -0.000042  -0.000007   0.000012
     6     H      -0.007649  -0.135983  -0.022955
     7     H       0.000590   0.004478  -0.000221
     8     H       0.000122  -0.000105  -0.000231
     9     H      -0.002344  -0.001221  -0.000065
    10     C       0.000139  -0.000312   0.000052
    11     C      -0.031266  -0.011533  -0.000728
    12     C       0.032773  -0.028292  -0.004518
    13     C       0.008010   0.054339   0.007039
    14     C       0.001669  -0.000070  -0.000094
    15     C       0.007345  -0.007744  -0.001111
    16     C       0.004811   0.026567   0.003281
    17     H      -0.398146   0.332858   0.053075
    18     H      -0.105261  -0.634908  -0.081232
    19     H      -0.097092   0.084169   0.012638
    20     H      -0.053655  -0.316189  -0.039152
    21     H       0.374798   0.138890   0.008881
    22     H      -0.000480  -0.002880  -0.000826
    23    Sn      -0.000001   0.000000   0.000000
    24    Cl       0.000002  -0.000001  -0.000000
    25    Cl       0.000002  -0.000000  -0.000001
 
 Mode:    69      Frequency (cm-1):     3133.7816     Intensity (km/mol):        0.0603
 Index  Atom      ---- Displacements (x/y/z) ----
     1     H       0.000470   0.106335   0.034426
     2     C      -0.000165   0.003966   0.000849
     3     C       0.000037  -0.009412  -0.003070
     4     C       0.000430  -0.000051  -0.000160
     5     O      -0.000099   0.000018   0.000044
     6     H      -0.003505  -0.044171  -0.007221
     7     H       0.000446   0.002383  -0.000118
     8     H      -0.001831   0.001212   0.000470
     9     H      -0.000563  -0.000484  -0.000197
    10     C       0.000150  -0.000294  -0.000003
    11     C       0.031852   0.012982   0.000900
    12     C       0.004291  -0.006113  -0.000933
    13     C       0.007647   0.046515   0.006013
    14     C       0.000972  -0.000765  -0.000167
    15     C      -0.019381   0.017667   0.002635
    16     C      -0.009394  -0.052840  -0.006514
    17     H      -0.065247   0.056671   0.009033
    18     H      -0.089845  -0.536869  -0.068693
    19     H       0.240738  -0.205178  -0.031289
    20     H       0.105937   0.621639   0.076937
    21     H      -0.380608  -0.141857  -0.009069
    22     H      -0.000263   0.001170   0.000392
    23    Sn       0.000001   0.000001  -0.000000
    24    Cl       0.000000  -0.000002   0.000001
    25    Cl      -0.000001  -0.000000  -0.000001
 
 Mode:    70      Frequency (cm-1):     3143.0068     Intensity (km/mol):        8.8504
 Index  Atom      ---- Displacements (x/y/z) ----
     1     H       0.000183   0.234575   0.076297
     2     C      -0.001231  -0.006046  -0.000843
     3     C       0.000255  -0.020162  -0.006601
     4     C       0.000553  -0.000536  -0.000365
     5     O      -0.000024   0.000047   0.000027
     6     H       0.004381   0.075642   0.013102
     7     H      -0.000127  -0.000912   0.000029
     8     H       0.000178  -0.000199  -0.000007
     9     H       0.001222   0.000516   0.000113
    10     C      -0.000074   0.000071   0.000088
    11     C      -0.041248  -0.013079  -0.000671
    12     C       0.032366  -0.023644  -0.003846
    13     C      -0.006333  -0.034824  -0.004485
    14     C      -0.001791  -0.000231   0.000037
    15     C      -0.026194   0.024433   0.003622
    16     C      -0.003230  -0.030677  -0.003837
    17     H      -0.355322   0.292006   0.046564
    18     H       0.065881   0.392133   0.050260
    19     H       0.317846  -0.272894  -0.041302
    20     H       0.056933   0.347368   0.043094
    21     H       0.468021   0.170939   0.010579
    22     H       0.000252   0.006769   0.002015
    23    Sn      -0.000001  -0.000002  -0.000000
    24    Cl      -0.000003   0.000003   0.000000
    25    Cl      -0.000001   0.000001   0.000002
 
 Mode:    71      Frequency (cm-1):     3148.6554     Intensity (km/mol):        2.9798
 Index  Atom      ---- Displacements (x/y/z) ----
     1     H       0.001407   0.726080   0.234968
     2     C      -0.002641  -0.004947  -0.000024
     3     C       0.000624  -0.062568  -0.020550
     4     C       0.001956  -0.000965  -0.000978
     5     O      -0.000233   0.000118   0.000135
     6     H       0.001534   0.072440   0.013189
     7     H       0.000048  -0.001323  -0.000313
     8     H       0.000055  -0.000004  -0.000220
     9     H       0.000263   0.000053  -0.000084
    10     C      -0.000017   0.000121   0.000205
    11     C      -0.005456  -0.004390  -0.000448
    12     C      -0.026380   0.021258   0.003410
    13     C       0.004043   0.015117   0.001922
    14     C       0.000306  -0.001803  -0.000337
    15     C      -0.022633   0.018047   0.002810
    16     C       0.006294   0.029385   0.003631
    17     H       0.294337  -0.244068  -0.038963
    18     H      -0.030001  -0.167588  -0.021419
    19     H       0.247164  -0.209129  -0.031493
    20     H      -0.057853  -0.332649  -0.041110
    21     H       0.069359   0.028616   0.001990
    22     H       0.000641   0.015569   0.004502
    23    Sn      -0.000002  -0.000002   0.000000
    24    Cl      -0.000005   0.000003   0.000002
    25    Cl      -0.000002   0.000002   0.000002
 
 Mode:    72      Frequency (cm-1):     3154.2465     Intensity (km/mol):       14.2245
 Index  Atom      ---- Displacements (x/y/z) ----
     1     H       0.000838   0.436930   0.141094
     2     C      -0.001452  -0.003750  -0.000180
     3     C       0.000469  -0.037390  -0.012337
     4     C       0.001058  -0.000559  -0.000549
     5     O      -0.000082   0.000067   0.000060
     6     H       0.001162   0.049629   0.008904
     7     H      -0.000299  -0.002685  -0.000188
     8     H       0.001737  -0.001049  -0.000684
     9     H      -0.000535  -0.000057  -0.000005
    10     C      -0.000071   0.000335   0.000161
    11     C       0.045434   0.018442   0.001279
    12     C       0.037102  -0.032094  -0.005066
    13     C      -0.005461  -0.020031  -0.002540
    14     C      -0.000446   0.001064   0.000123
    15     C       0.021253  -0.018793  -0.002774
    16     C      -0.000489   0.012633   0.001642
    17     H      -0.416968   0.348653   0.055488
    18     H       0.039793   0.222006   0.028369
    19     H      -0.253635   0.216077   0.033253
    20     H      -0.019782  -0.134701  -0.016705
    21     H      -0.510845  -0.190997  -0.012293
    22     H       0.000672   0.009496   0.002694
    23    Sn      -0.000004  -0.000003   0.000001
    24    Cl      -0.000003   0.000005  -0.000000
    25    Cl       0.000000   0.000002   0.000002
 
 Mode:    73      Frequency (cm-1):     3159.6963     Intensity (km/mol):        7.4773
 Index  Atom      ---- Displacements (x/y/z) ----
     1     H      -0.000984  -0.328413  -0.105574
     2     C       0.000651   0.000741  -0.000297
     3     C      -0.000183   0.028074   0.009268
     4     C      -0.000977   0.000279   0.000429
     5     O       0.000191  -0.000057  -0.000094
     6     H       0.001942  -0.011124  -0.002215
     7     H       0.000286   0.003090   0.000139
     8     H      -0.001387   0.000709   0.000550
     9     H       0.000676   0.000094   0.000055
    10     C       0.000051  -0.000336  -0.000075
    11     C       0.029522   0.009808   0.000553
    12     C       0.014955  -0.013779  -0.002170
    13     C      -0.001457  -0.006543  -0.000825
    14     C      -0.001077  -0.001723  -0.000139
    15     C      -0.047249   0.038244   0.005788
    16     C       0.007900   0.042228   0.005226
    17     H      -0.170037   0.143121   0.022738
    18     H       0.011770   0.068247   0.008826
    19     H       0.526948  -0.445282  -0.068186
    20     H      -0.078634  -0.461600  -0.057190
    21     H      -0.318420  -0.116336  -0.007308
    22     H      -0.000593  -0.006394  -0.001738
    23    Sn      -0.000002  -0.000001  -0.000000
    24    Cl       0.000003  -0.000000  -0.000001
    25    Cl       0.000002  -0.000000   0.000001
 
 Mode:    74      Frequency (cm-1):     3240.1519     Intensity (km/mol):        0.6502
 Index  Atom      ---- Displacements (x/y/z) ----
     1     H      -0.000053   0.001622   0.000626
     2     C      -0.000069  -0.000631  -0.000185
     3     C      -0.000136  -0.000032  -0.000030
     4     C      -0.000064   0.000078   0.000040
     5     O       0.000020   0.000004  -0.000003
     6     H       0.000378   0.007665   0.000782
     7     H       0.040835   0.313826  -0.024678
     8     H      -0.614987   0.443706   0.250680
     9     H      -0.452403  -0.215953  -0.005446
    10     C       0.086445  -0.045624  -0.018507
    11     C      -0.000050   0.000030   0.000000
    12     C      -0.000048  -0.000021   0.000017
    13     C      -0.000048  -0.000215   0.000048
    14     C       0.000057   0.000047   0.000026
    15     C       0.000090  -0.000197  -0.000048
    16     C       0.000055   0.000037  -0.000001
    17     H       0.000156  -0.000115  -0.000010
    18     H       0.000535   0.003103   0.000357
    19     H      -0.001720   0.001566   0.000227
    20     H      -0.000044  -0.000310  -0.000034
    21     H       0.000263   0.000129  -0.000009
    22     H       0.000053  -0.001313  -0.000563
    23    Sn      -0.000001  -0.000001  -0.000001
    24    Cl       0.000000   0.000001   0.000000
    25    Cl       0.000002   0.000003   0.000005
 
 Mode:    75      Frequency (cm-1):     3244.0517     Intensity (km/mol):        0.5032
 Index  Atom      ---- Displacements (x/y/z) ----
     1     H      -0.000116   0.001860   0.000578
     2     C       0.000014  -0.000561  -0.000186
     3     C       0.000016  -0.000076   0.000015
     4     C       0.000033  -0.000226  -0.000039
     5     O      -0.000026   0.000018   0.000007
     6     H       0.000007   0.008788  -0.000040
     7     H       0.052816   0.753980  -0.049901
     8     H      -0.086347   0.041289   0.032101
     9     H       0.586758   0.248458   0.002647
    10     C      -0.046591  -0.088013   0.001340
    11     C       0.000034   0.000030   0.000006
    12     C      -0.000048   0.000013   0.000003
    13     C       0.000048  -0.000111   0.000005
    14     C       0.000048   0.000050   0.000028
    15     C       0.000218  -0.000135  -0.000052
    16     C       0.000010  -0.000011  -0.000016
    17     H       0.000220  -0.000206  -0.000021
    18     H       0.000094   0.001117   0.000139
    19     H      -0.002566   0.002119   0.000292
    20     H       0.000007   0.000097   0.000014
    21     H      -0.000288  -0.000094   0.000004
    22     H       0.000143   0.002477   0.000938
    23    Sn       0.000001  -0.000000   0.000002
    24    Cl      -0.000003   0.000002  -0.000001
    25    Cl      -0.000003  -0.000001  -0.000007

PES point character: Geometry corresponds to a transition state.
                     (Hint: Very small negative frequencies do not count towards being a
                     transition state, as they usually indicate noise on a very flat PES. See
                     the PESPointCharacter%NegativeFrequenciesTolerance keyword documentation.)




 ============================
 Statistical Thermal Analysis  ***  ideal gas assumed  ***
 ============================
  
 Pressure:                  1.000000 atm.
 Temperature:             298.150000 K



 Moments of Inertia [amu*bohr^2] and principal axis
 ==================================================

        2091.4871      15758.4136      16114.1886
 ------------------------------------------------
           0.9451          0.2550         -0.2044
           0.2865         -0.3457          0.8935
          -0.1572          0.9030          0.3998


 The rotational contribution to the molecular entropy includes
 a term, dependent on the symmetry number sigma. The results 
 reported below were computed using sigma = 1, determined from
 the point group symmetry of the input geometry (NOSYM). 
 If this is not the correct symmetry, try symmetrizing the molecule before
 running the calculation (note: linear molecules should be aligned along one
 of the Cartesian axes).
 Contributions from frequencies below 20 1/cm are not included in vibrational sums.
 Their contributions, if any, are reported separately.


     Temp                                                        Transl      Rotat     Vibrat     Total
     ----                                                        ------      -----     ------     -----

     298.15   Entropy (cal/mol-K):                               43.339     34.628     61.474    139.441
              Nuclear Internal Energy (kcal/mol):                 0.889      0.889    119.117    120.895
              Constant Volume Heat Capacity (cal/mol-K):          2.981      2.981     50.870     56.831
          (c) Constant Volume Heat Capacity (cal/mol-K):          2.981      2.981     45.142     51.103

 Contributions from frequencies below 20 1/cm
 Frequency (1/cm):                                   13.019
 Entropy (cal/mol-K):                                 7.487
 Nuclear Internal Energy (kcal/mol):                  0.593
 Constant Volume Heat Capacity (cal/mol-K):           1.987

       Summary of energy terms
                                                   hartree              eV         kcal/mol           kJ/mol
                                      --------------------     -----------       ----------      -----------
      Energy from Engine:               -5.109513066470033       -139.0369         -3206.27        -13415.02
      Nuclear Internal Energy:           0.192657973387581          5.2425           120.89           505.82
  (c) Nuclear Internal Energy:           0.189749050569637          5.1633           119.07           498.19
      Internal Energy U:                -4.916855093082452       -133.7944         -3085.37        -12909.20
      pV/n = RT:                         0.000944186013486          0.0257             0.59             2.48
      Enthalpy H:                       -4.915910907068966       -133.7687         -3084.78        -12906.72
      -T*S:                             -0.066252796756263         -1.8028           -41.57          -173.95
  (c) -T*S:                             -0.064979391941549         -1.7682           -40.78          -170.60
      Gibbs free energy:                -4.982163703825228       -135.5716         -3126.36        -13080.67
 
 
 
  (c) The properties marked with this symbol have been corrected using 'low vibrational frequency free rotor
      interpolation corrections'. For those terms all positive frequencies are used (also ones below 20 1/cm),
      but the contribution to the partition function of small vibrational frequencies is modified as described
      in the following paper:
      S. Grimme, 'Supramolecular Binding Thermodynamics by Dispersion-Corrected Density Functional Theory'
      (Chem. Eur. J. 2012, 18, 9955-9964)
      Configuration: Dampener Frequency          :   100.000 1/cm
                     Dampener Alpha              :     4.000
                     Averaging Moment of Inertia : 1.000E-44 kg m2

--------------
Atomic charges
--------------
  Index   Atom    Charge
      1      H   -0.2133
      2      C    0.2081
      3      C    0.2174
      4      C    0.7184
      5      O   -0.5821
      6      H   -0.1857
      7      H   -0.1512
      8      H   -0.1656
      9      H   -0.1538
     10      C    0.5707
     11      C    0.2528
     12      C    0.2449
     13      C    0.3041
     14      C    0.0187
     15      C    0.2972
     16      C    0.2468
     17      H   -0.2404
     18      H   -0.2565
     19      H   -0.2575
     20      H   -0.2409
     21      H   -0.2372
     22      H   -0.2520
     23     Sn    0.7236
     24     Cl   -0.4302
     25     Cl   -0.4362


Dipole moment vector    (Debye):    -7.73859297   -4.52685513    1.01031917
              magnitude (Debye):     9.02213852


Final PES point is a transition state. Transition state search successful!


AMS application finished. Exiting.
NORMAL TERMINATION
     Total cpu time:  274858.69
  Total system time:    1071.26
 Total elapsed time:  516081.98
