

 Parallel Execution: Process Information
 ==============================================================================
 Rank   Node Name                              NodeID   MyNodeRank  NodeMaster
    0   node137                                   0          0          0
    1   node137                                   0          1         -1
    2   node137                                   0          2         -1
    3   node137                                   0          3         -1
    4   node137                                   0          4         -1
    5   node137                                   0          5         -1
    6   node137                                   0          6         -1
    7   node137                                   0          7         -1
    8   node137                                   0          8         -1
    9   node137                                   0          9         -1
   10   node137                                   0         10         -1
   11   node137                                   0         11         -1
   12   node137                                   0         12         -1
   13   node137                                   0         13         -1
   14   node137                                   0         14         -1
   15   node137                                   0         15         -1
 ==============================================================================


May use up to 61518MB of RAM as shared memory on node 0

 *******************************************************************************
 *                                                                             *
 *  --------------------------------                                           *
 *   Amsterdam Modeling Suite (AMS)              2021.102                      *
 *  --------------------------------                                           *
 *                                               r95042 2021-06-07             *
 *                                                                             *
 *                                                                             *
 *                              =================                              *
 *                              |               |                              *
 *                              |     A M S     |                              *
 *                              |               |                              *
 *                              =================                              *
 *                                                                             *
 *                                                                             *
 *   Online information and documentation:  https://www.scm.com/support/       *
 *   E-mail:  support@scm.com   info@scm.com                                   *
 *                                                                             *
 *   Scientific publications using AMS results must be properly referenced     *
 *   See the User Manuals (or the web site) for recommended citations          *
 *   The terms and conditions of the End User License Agreement apply to       *
 *   the use of AMS, https://www.scm.com/license-terms/                        *
 *                                                                             *
 **********************  x86_64_linux_intel / intelmpi  ************************
 
 Licensed to: VU/FEW (+ SARA) / ALGEMEEN / Amsterdam / THE NETHERLANDS
 SCM User ID: u7668
  
 AMS 2021.102  RunTime: Jan31-2022 11:22:37  ShM Nodes: 1  Procs: 16

 AMS jobname: 54.achiral_catalyst.H_tBu_I2.Rsub_cat_complex
 AMS jobid  : 81530024

 Start   directory: /scistor/tc/yhk800/MasterProject/calculations/achiral_catalyst_H_tBu_I2/54.achiral_catalyst.H_tBu_I2.Rsub_cat_complex/
 Results directory: /scistor/tc/yhk800/MasterProject/calculations/achiral_catalyst_H_tBu_I2/54.achiral_catalyst.H_tBu_I2.Rsub_cat_complex/
 Scratch directory: /scratch/6205/amstmp_54.achiral_catalyst.H_tBu_I2.Rsub_cat_complex_kid0.81530024/


 Communication costs MPI_COMM_WORLD:      7.858 usec per message,   0.0204 usec per 8-byte item
 Communication costs for intra-node:      2.632 usec per message,   0.0042 usec per 8-byte item

 RNG seed: 2105938284 -574456072 8533707 1067049977 1245591378 304276173 1589221512 51029523



                     *************************************************************************
                     *  ADF 2021.102  RunTime: Jan31-2022 11:22:38  ShM Nodes: 1  Procs: 16  *
                     *************************************************************************
  
       ***************************
       *  GEOMETRY OPTIMIZATION  *
       ***************************

Optimization Method                    Quasi Newton
Optimization Coordinates               Delocalized Coordinates
Optimize lattice                       F
 
 ------------------------------------------------------
 Convergence criteria (Hartree,Angstrom)
 ------------------------------------------------------
 Maximum gradient               0.001000000000
 Maximum rms gradient           0.000666666667
 Maximum step allowed           0.010000000000
 Maximum rms step allowed       0.006666666667
 Maximum energy change allowe   0.000220000000
 Maximum stress energy allowe   0.000500000000
 
Initial model Hessian                  Automatic Hessian
 
------------------------------------
Quasi-Newton Optimizer Parameters
------------------------------------
Hessian Update Method                  BFGS
Maximum number of steps                  250
First GDIIS cycle                          0
Maximum GDIIS vectors                      0
Trust radius (bohr)                        0.200000
Trust radius varies                        T
Constraints converged at all steps         T
Use projector                              T
 
 Rigid motions settings for: old optimizer
 Atomic rotations (x,y,z):     T T T
 Atomic translations (x,y,z):  T T T
 Tolerance:                   1.000000000000000E-006
 
--------
Geometry
--------
Formula: C7H12I2O
Atoms
  Index Symbol   x (angstrom)   y (angstrom)   z (angstrom)
      1      H    -0.62056146    -0.03764738    -0.08023722
      2      C    -0.09659473    -2.02948020    -0.54883449
      3      C     0.18266548    -0.75219647    -0.26512258
      4      C     1.55928918    -0.22013974    -0.18291419
      5      O     1.86635738     0.93365884     0.07180470
      6      H     0.69695300    -2.74612423    -0.73626627
      7      C    -1.53512390    -3.98169459    -1.12156823
      8      C    -1.54987465    -2.53359044    -0.62266085
      9      C    -2.32371837    -1.63885453    -1.59566924
     10      C    -2.16108997    -2.45555144     0.77964353
     11      H    -2.14765732    -1.42687928     1.14159999
     12      H    -2.55099094    -4.37493076    -1.18722103
     13      H    -0.96277866    -4.61120054    -0.43929077
     14      H    -1.07715113    -4.03683810    -2.10978859
     15      H    -3.36175531    -1.96622602    -1.67465053
     16      H    -1.87118027    -1.67785219    -2.58715690
     17      H    -2.31140649    -0.60455404    -1.25008242
     18      H    -3.19455491    -2.80588288     0.76743983
     19      H    -1.59305862    -3.07453987     1.47502332
     20      H     2.32514145    -0.94333367    -0.37095895
     21      I     1.85103070     2.46611042     0.80757453
     22      I     1.82606624     4.96220362     2.00601374
 
Total System Charge             0.00000
 
 
----------------
ADF Engine Input
----------------
 
 NumericalQuality VeryGood
 SCF
 Converge 1.0e-6
 Iterations 99
 End
 SYMMETRY NOSYM
 XC
 GGA OLYP
 End
 basis
 core None
 type TZ2P
 End
 

 Title: *** (NO TITLE) ***

Bad geometry: could not add a dihedral for atom   22
 Using automatic Hessian for delocalized coordinates.
 *** GOStep1 ***

 Energy gradients wrt nuclear displacements
 ==========================================

     Atom      Cartesian (a.u./angstrom)
                 X         Y         Z
 ----------------------------------------
     1 H    -0.005075  0.001227  0.000021
     2 C     0.033501  0.015760  0.002504
     3 C    -0.055419 -0.060015 -0.015277
     4 C     0.110737  0.137404  0.036891
     5 O    -0.049242  0.383623  0.192579
     6 H    -0.006014  0.002173 -0.000130
     7 C     0.002736 -0.002201 -0.000711
     8 C    -0.030590  0.002098  0.005409
     9 C     0.003030 -0.001637  0.001728
    10 C     0.000590 -0.001138 -0.004316
    11 H     0.003046 -0.000661 -0.005232
    12 H     0.001901  0.003744  0.001193
    13 H    -0.001187  0.006253 -0.001361
    14 H    -0.000724  0.004084  0.004999
    15 H     0.004144  0.000347  0.000671
    16 H     0.001112 -0.002231  0.005223
    17 H     0.005898 -0.002508  0.004493
    18 H     0.004114  0.001589 -0.000528
    19 H     0.000381  0.001481 -0.006022
    20 H    -0.035784  0.017765  0.007843
    21 I     0.014014 -0.467968 -0.206870
    22 I    -0.001169 -0.039189 -0.023108
 ----------------------------------------
 Mulliken charges used for AMS results%charges...
 
----------------------------------------------------------------------
Geometry Convergence after Step   1       (Hartree/Angstrom,Angstrom)
----------------------------------------------------------------------
current energy                               -3.96664296 Hartree
energy change                      -3.96664296     0.00022000    F
constrained gradient max            0.46798402     0.00100000    F
constrained gradient rms            0.08656547     0.00066667    F
gradient max                        0.46798402
gradient rms                        0.08656547
cart. step max                      0.09542194     0.01000000    F
cart. step rms                      0.02302975     0.00666667    F
 
 
--------
Geometry
--------
Formula: C7H12I2O
Atoms
  Index Symbol   x (angstrom)   y (angstrom)   z (angstrom)
      1      H    -0.60720689    -0.02331885    -0.08351769
      2      C    -0.10761594    -2.02847620    -0.55072785
      3      C     0.18562398    -0.74800400    -0.26889444
      4      C     1.56179929    -0.23833173    -0.19191209
      5      O     1.88515442     0.93487088     0.06518473
      6      H     0.68614199    -2.74691619    -0.73655301
      7      C    -1.53218945    -3.99237070    -1.12258553
      8      C    -1.55744188    -2.54122410    -0.62590949
      9      C    -2.34015273    -1.65438298    -1.60431709
     10      C    -2.17267021    -2.46455783     0.77833234
     11      H    -2.16918698    -1.43559520     1.14100575
     12      H    -2.54545116    -4.39377861    -1.18884905
     13      H    -0.95637342    -4.61873870    -0.43883849
     14      H    -1.07292965    -4.04849648    -2.11115824
     15      H    -3.37579018    -1.99195652    -1.68229295
     16      H    -1.88818085    -1.69188984    -2.59696205
     17      H    -2.34004934    -0.61762210    -1.26544221
     18      H    -3.20416193    -2.82304998     0.76449643
     19      H    -1.60242868    -3.07801780     1.47808336
     20      H     2.32770422    -0.97175579    -0.38072802
     21      I     1.88392220     2.56044368     0.84038453
     22      I     1.89148989     5.05762556     2.05787845
 
Total System Charge             0.00000
 
 *** GOStep2 ***

 Energy gradients wrt nuclear displacements
 ==========================================

     Atom      Cartesian (a.u./angstrom)
                 X         Y         Z
 ----------------------------------------
     1 H    -0.003979  0.000801 -0.000037
     2 C     0.029506  0.008775  0.001184
     3 C    -0.044881 -0.044543 -0.011392
     4 C     0.081710  0.061453  0.015989
     5 O    -0.028741  0.279438  0.131199
     6 H    -0.005370  0.001374 -0.000324
     7 C     0.002448 -0.002376 -0.001031
     8 C    -0.028588  0.000216  0.004856
     9 C     0.002168 -0.000865  0.001063
    10 C     0.000269 -0.000807 -0.003329
    11 H     0.002666 -0.000495 -0.004294
    12 H     0.001342  0.003065  0.000973
    13 H    -0.000717  0.005200 -0.000965
    14 H    -0.000372  0.003482  0.003947
    15 H     0.003124  0.000430  0.000471
    16 H     0.001170 -0.001760  0.004173
    17 H     0.004991 -0.002258  0.003517
    18 H     0.003102  0.001396 -0.000259
    19 H     0.000594  0.001154 -0.004884
    20 H    -0.029247  0.011473  0.005621
    21 I     0.010482 -0.299619 -0.130578
    22 I    -0.001679 -0.025536 -0.015897
 ----------------------------------------
 Mulliken charges used for AMS results%charges...

 dE(predicted):    -0.51364E-01, dE(actual):    -0.49483E-01, Trust radius:    0.400000, all in a.u.
 
----------------------------------------------------------------------
Geometry Convergence after Step   2       (Hartree/Angstrom,Angstrom)
----------------------------------------------------------------------
current energy                               -4.01612631 Hartree
energy change                      -0.04948335     0.00022000    F
constrained gradient max            0.29963284     0.00100000    F
constrained gradient rms            0.05798298     0.00066667    F
gradient max                        0.29963306
gradient rms                        0.05798298
cart. step max                      0.16575457     0.01000000    F
cart. step rms                      0.05697309     0.00666667    F
 
 
--------
Geometry
--------
Formula: C7H12I2O
Atoms
  Index Symbol   x (angstrom)   y (angstrom)   z (angstrom)
      1      H    -0.55158359     0.07995316    -0.10229595
      2      C    -0.14195078    -1.96882024    -0.55089428
      3      C     0.19868097    -0.68679968    -0.28230035
      4      C     1.57685290    -0.27265479    -0.21937800
      5      O     1.94983722     0.88933963     0.02113890
      6      H     0.66047420    -2.68759632    -0.71741544
      7      C    -1.48859510    -3.99382537    -1.10460144
      8      C    -1.56702012    -2.52955015    -0.63200439
      9      C    -2.40651992    -1.70764404    -1.63498156
     10      C    -2.20849362    -2.46883160     0.77227795
     11      H    -2.27315715    -1.44124304     1.13720075
     12      H    -2.48714636    -4.43503659    -1.16789830
     13      H    -0.89688383    -4.59902249    -0.41105036
     14      H    -1.02707603    -4.06252053    -2.09424602
     15      H    -3.41946625    -2.11620712    -1.69981162
     16      H    -1.96339993    -1.73794442    -2.63425519
     17      H    -2.48728363    -0.66149867    -1.33343653
     18      H    -3.22125861    -2.88233351     0.74094285
     19      H    -1.62776008    -3.04787697     1.49601049
     20      H     2.34419614    -1.03551517    -0.39741098
     21      I     1.93031582     2.67854234     0.87693352
     22      I     2.05724446     5.13154208     2.21415334
 
Total System Charge             0.00000
 
 *** GOStep3 ***

 Energy gradients wrt nuclear displacements
 ==========================================

     Atom      Cartesian (a.u./angstrom)
                 X         Y         Z
 ----------------------------------------
     1 H    -0.000700 -0.000449  0.000124
     2 C     0.017172  0.001778 -0.000136
     3 C    -0.004123  0.000182 -0.001802
     4 C     0.029846  0.017301  0.004179
     5 O    -0.028065  0.133729  0.067561
     6 H    -0.002787 -0.000248 -0.000450
     7 C     0.000822 -0.000390 -0.000437
     8 C    -0.016016 -0.002221  0.002833
     9 C    -0.000278 -0.000676 -0.000242
    10 C     0.000173 -0.000690 -0.002130
    11 H     0.000782 -0.000589 -0.000848
    12 H     0.000190  0.000572  0.000187
    13 H     0.000025  0.001402 -0.000151
    14 H     0.000029  0.001017  0.000987
    15 H     0.000282  0.000461 -0.000045
    16 H     0.000286 -0.000263  0.000891
    17 H     0.001102 -0.001436  0.000024
    18 H     0.000369  0.000572  0.000271
    19 H     0.000240  0.000246 -0.000961
    20 H    -0.007274  0.003933  0.002521
    21 I     0.007847 -0.148023 -0.068307
    22 I     0.000076 -0.006210 -0.004070
 ----------------------------------------
 Mulliken charges used for AMS results%charges...

 dE(predicted):    -0.37519E-01, dE(actual):    -0.50413E-01, Trust radius:    0.800000, all in a.u.
 
----------------------------------------------------------------------
Geometry Convergence after Step   3       (Hartree/Angstrom,Angstrom)
----------------------------------------------------------------------
current energy                               -4.06653884 Hartree
energy change                      -0.05041254     0.00022000    F
constrained gradient max            0.14802783     0.00100000    F
constrained gradient rms            0.02802236     0.00066667    F
gradient max                        0.14802821
gradient rms                        0.02802236
cart. step max                      0.20836454     0.01000000    F
cart. step rms                      0.04159246     0.00666667    F
 
 
--------
Geometry
--------
Formula: C7H12I2O
Atoms
  Index Symbol   x (angstrom)   y (angstrom)   z (angstrom)
      1      H    -0.49282830     0.08854371    -0.11854002
      2      C    -0.13988646    -1.98239563    -0.53381257
      3      C     0.23211383    -0.70555113    -0.28013749
      4      C     1.61610598    -0.33791329    -0.23515923
      5      O     2.03730853     0.81346589    -0.01675283
      6      H     0.65903045    -2.70871441    -0.69731317
      7      C    -1.50962300    -3.98689955    -1.12398657
      8      C    -1.55883394    -2.52704370    -0.62492869
      9      C    -2.38993051    -1.66639060    -1.60696133
     10      C    -2.20213129    -2.47790863     0.78405904
     11      H    -2.25961235    -1.45542834     1.16677606
     12      H    -2.51743665    -4.40707813    -1.19268044
     13      H    -0.93077257    -4.62100972    -0.44386196
     14      H    -1.05352441    -4.05222470    -2.11757209
     15      H    -3.40839978    -2.06201361    -1.67590378
     16      H    -1.95354388    -1.67793888    -2.61050221
     17      H    -2.45901079    -0.62503495    -1.28195901
     18      H    -3.21942315    -2.88115015     0.74136748
     19      H    -1.63251861    -3.07469824     1.50345428
     20      H     2.37027189    -1.13034087    -0.39334601
     21      I     1.91377178     2.72571170     0.85714100
     22      I     1.84887992     5.19646976     2.17729691
 
Total System Charge             0.00000
 
 *** GOStep4 ***

 Energy gradients wrt nuclear displacements
 ==========================================

     Atom      Cartesian (a.u./angstrom)
                 X         Y         Z
 ----------------------------------------
     1 H    -0.000450 -0.000236 -0.000836
     2 C     0.005359  0.001879  0.001900
     3 C     0.008977  0.006098  0.001625
     4 C     0.003190 -0.002206 -0.003764
     5 O    -0.027779  0.093265  0.044568
     6 H    -0.000899 -0.000233 -0.001766
     7 C     0.000429 -0.001138 -0.000265
     8 C    -0.007073 -0.004162  0.000831
     9 C     0.001618  0.000983  0.000225
    10 C     0.000966  0.000952 -0.001553
    11 H    -0.000046  0.000146  0.000571
    12 H    -0.000105 -0.000307 -0.000034
    13 H     0.000207 -0.000419  0.000079
    14 H     0.000173 -0.000144 -0.000243
    15 H    -0.000202 -0.000125  0.000276
    16 H     0.000117  0.000151 -0.000296
    17 H     0.000376  0.000667 -0.000218
    18 H    -0.000375  0.000204  0.000023
    19 H     0.000111 -0.000080  0.000288
    20 H     0.001245  0.000609  0.002577
    21 I     0.015015 -0.097084 -0.044855
    22 I    -0.000855  0.001180  0.000866
 ----------------------------------------
 Mulliken charges used for AMS results%charges...

 dE(predicted):    -0.15862E-01, dE(actual):    -0.18127E-01, Trust radius:    0.800000, all in a.u.
 
----------------------------------------------------------------------
Geometry Convergence after Step   4       (Hartree/Angstrom,Angstrom)
----------------------------------------------------------------------
current energy                               -4.08466609 Hartree
energy change                      -0.01812725     0.00022000    F
constrained gradient max            0.09709570     0.00100000    F
constrained gradient rms            0.01882952     0.00066667    F
gradient max                        0.09709576
gradient rms                        0.01882952
cart. step max                      0.21754976     0.01000000    F
cart. step rms                      0.05167463     0.00666667    F
 
 
--------
Geometry
--------
Formula: C7H12I2O
Atoms
  Index Symbol   x (angstrom)   y (angstrom)   z (angstrom)
      1      H    -0.41817239     0.08793671    -0.11286323
      2      C    -0.13052913    -1.99314367    -0.54155868
      3      C     0.27838308    -0.72988370    -0.27880383
      4      C     1.67522745    -0.41967019    -0.19078951
      5      O     2.14451482     0.70974244     0.02359629
      6      H     0.65704798    -2.73892377    -0.67751577
      7      C    -1.53266788    -3.95980551    -1.15860433
      8      C    -1.55182863    -2.51016664    -0.62851205
      9      C    -2.39424327    -1.62182908    -1.57864347
     10      C    -2.17797960    -2.48681237     0.79203286
     11      H    -2.22370258    -1.47213218     1.19691500
     12      H    -2.54839839    -4.36190440    -1.22085935
     13      H    -0.95484696    -4.61813559    -0.50050141
     14      H    -1.09285038    -4.01258803    -2.16062508
     15      H    -3.41539716    -2.01217397    -1.64114274
     16      H    -1.97400926    -1.61155475    -2.58930564
     17      H    -2.45531805    -0.58811201    -1.22808768
     18      H    -3.19845301    -2.88281142     0.75165028
     19      H    -1.60489076    -3.10341176     1.49209993
     20      H     2.40228907    -1.24137998    -0.35558646
     21      I     1.83450157     2.74247617     0.84550069
     22      I     1.63133016     5.26874021     2.03828154
 
Total System Charge             0.00000
 
 *** GOStep5 ***

 Energy gradients wrt nuclear displacements
 ==========================================

     Atom      Cartesian (a.u./angstrom)
                 X         Y         Z
 ----------------------------------------
     1 H    -0.000043 -0.000547  0.000807
     2 C    -0.002184  0.000369 -0.003579
     3 C     0.012810  0.007817 -0.001942
     4 C    -0.004510 -0.005910  0.006081
     5 O    -0.027301  0.064033  0.023462
     6 H     0.000673 -0.000163 -0.000329
     7 C     0.000491 -0.000080  0.000268
     8 C     0.000671 -0.002573  0.003146
     9 C     0.000738  0.000977 -0.000655
    10 C     0.000024  0.000742 -0.000939
    11 H    -0.000249  0.000276  0.000769
    12 H    -0.000349 -0.000291 -0.000055
    13 H     0.000219 -0.000723  0.000250
    14 H     0.000144 -0.000353 -0.000693
    15 H    -0.000659 -0.000315  0.000113
    16 H    -0.000074  0.000218 -0.000712
    17 H    -0.000020  0.000651 -0.000184
    18 H    -0.000755  0.000006  0.000164
    19 H     0.000051 -0.000279  0.000601
    20 H     0.004375 -0.000294 -0.000597
    21 I     0.016139 -0.068298 -0.028796
    22 I    -0.000193  0.004736  0.002822
 ----------------------------------------
 Mulliken charges used for AMS results%charges...

 dE(predicted):    -0.14724E-01, dE(actual):    -0.11282E-01, Trust radius:    0.800000, all in a.u.
 
----------------------------------------------------------------------
Geometry Convergence after Step   5       (Hartree/Angstrom,Angstrom)
----------------------------------------------------------------------
current energy                               -4.09594848 Hartree
energy change                      -0.01128239     0.00022000    F
constrained gradient max            0.06829393     0.00100000    F
constrained gradient rms            0.01323807     0.00066667    F
gradient max                        0.06829340
gradient rms                        0.01323807
cart. step max                      0.21728474     0.01000000    F
cart. step rms                      0.04172226     0.00666667    F
 
 
--------
Geometry
--------
Formula: C7H12I2O
Atoms
  Index Symbol   x (angstrom)   y (angstrom)   z (angstrom)
      1      H    -0.36151929     0.08242807    -0.11629165
      2      C    -0.11814039    -2.00862097    -0.52736273
      3      C     0.31615832    -0.75269944    -0.27333624
      4      C     1.72245049    -0.46931233    -0.20287741
      5      O     2.22007440     0.64279210     0.02527467
      6      H     0.65708164    -2.76763120    -0.66376688
      7      C    -1.55399732    -3.93796623    -1.17704702
      8      C    -1.54535481    -2.49770276    -0.62176929
      9      C    -2.37900067    -1.57948846    -1.55167874
     10      C    -2.16530587    -2.48970348     0.80291024
     11      H    -2.19404863    -1.48126568     1.22448097
     12      H    -2.57698134    -4.32066454    -1.24224121
     13      H    -0.98558992    -4.61787723    -0.53284460
     14      H    -1.11892836    -3.98110207    -2.18160447
     15      H    -3.40571841    -1.95412587    -1.61733521
     16      H    -1.96239718    -1.55622661    -2.56358533
     17      H    -2.42429153    -0.55192836    -1.18119463
     18      H    -3.19137801    -2.87039894     0.75917940
     19      H    -1.59854969    -3.12671206     1.48974312
     20      H     2.42819009    -1.31548375    -0.34317195
     21      I     1.77320777     2.72963915     0.82572121
     22      I     1.41404541     5.26850716     1.94547514
 
Total System Charge             0.00000
 
 *** GOStep6 ***

 Energy gradients wrt nuclear displacements
 ==========================================

     Atom      Cartesian (a.u./angstrom)
                 X         Y         Z
 ----------------------------------------
     1 H    -0.000042 -0.000285  0.000396
     2 C    -0.005300 -0.000964 -0.000805
     3 C     0.011792  0.005812  0.002357
     4 C    -0.005341 -0.002816 -0.005361
     5 O    -0.025183  0.048941  0.019778
     6 H     0.001179  0.000114 -0.000831
     7 C     0.000271  0.000062  0.000306
     8 C     0.003633 -0.001744  0.001384
     9 C     0.000132  0.000937 -0.001143
    10 C     0.000208  0.000988 -0.000324
    11 H    -0.000247  0.000239  0.000732
    12 H    -0.000331 -0.000312 -0.000048
    13 H     0.000205 -0.000712  0.000259
    14 H     0.000113 -0.000344 -0.000679
    15 H    -0.000658 -0.000236  0.000041
    16 H    -0.000102  0.000198 -0.000678
    17 H     0.000023  0.000683 -0.000066
    18 H    -0.000635 -0.000052 -0.000037
    19 H     0.000045 -0.000315  0.000616
    20 H     0.004743 -0.001343  0.002865
    21 I     0.016063 -0.054713 -0.021788
    22 I    -0.000569  0.005863  0.003026
 ----------------------------------------
 Mulliken charges used for AMS results%charges...
 Rebuilding optimization coordinates
Bad geometry: could not add a dihedral for atom   22

 dE(predicted):    -0.13250E-01, dE(actual):    -0.52431E-02, Trust radius:    0.800000, all in a.u.
 
----------------------------------------------------------------------
Geometry Convergence after Step   6       (Hartree/Angstrom,Angstrom)
----------------------------------------------------------------------
current energy                               -4.10119156 Hartree
energy change                      -0.00524307     0.00022000    F
constrained gradient max            0.05472743     0.00100000    F
constrained gradient rms            0.01067769     0.00066667    F
gradient max                        0.05472701
gradient rms                        0.01067769
cart. step max                      0.20833974     0.01000000    F
cart. step rms                      0.04293363     0.00666667    F
 
 
--------
Geometry
--------
Formula: C7H12I2O
Atoms
  Index Symbol   x (angstrom)   y (angstrom)   z (angstrom)
      1      H    -0.30982581     0.07342380    -0.10497994
      2      C    -0.10585012    -2.02176750    -0.51848607
      3      C     0.35078790    -0.77589888    -0.25787125
      4      C     1.76520629    -0.52303638    -0.17100163
      5      O     2.28860685     0.57802606     0.04401169
      6      H     0.65645406    -2.79393969    -0.65456983
      7      C    -1.57398443    -3.91316674    -1.20215406
      8      C    -1.53961325    -2.48506885    -0.61733953
      9      C    -2.36559868    -1.53541223    -1.52185641
     10      C    -2.15089496    -2.49803227     0.81186151
     11      H    -2.16215353    -1.49783262     1.25319884
     12      H    -2.60316368    -4.27825345    -1.26949972
     13      H    -1.01282062    -4.61493777    -0.57542174
     14      H    -1.14490454    -3.94206628    -2.20971309
     15      H    -3.39745456    -1.89470837    -1.58976666
     16      H    -1.95386433    -1.49590925    -2.53514709
     17      H    -2.39507311    -0.51585728    -1.12860336
     18      H    -3.18226055    -2.86359864     0.76651475
     19      H    -1.58877156    -3.15688380     1.48156597
     20      H     2.44984108    -1.38273989    -0.33516685
     21      I     1.71963857     2.71603049     0.79633541
     22      I     1.20570567     5.26608607     1.81476645
 
Total System Charge             0.00000
 
 *** GOStep7 ***

 Energy gradients wrt nuclear displacements
 ==========================================

     Atom      Cartesian (a.u./angstrom)
                 X         Y         Z
 ----------------------------------------
     1 H    -0.000045 -0.000050  0.000038
     2 C    -0.006671 -0.001103 -0.001281
     3 C     0.009826  0.004761 -0.000384
     4 C    -0.005201 -0.003813  0.004947
     5 O    -0.021795  0.039373  0.011055
     6 H     0.001343  0.000374 -0.001434
     7 C     0.000255  0.000010  0.000403
     8 C     0.005066 -0.001559  0.001823
     9 C    -0.000067  0.001099 -0.001352
    10 C    -0.000247  0.000938  0.000142
    11 H    -0.000200  0.000201  0.000613
    12 H    -0.000271 -0.000248 -0.000050
    13 H     0.000158 -0.000621  0.000197
    14 H     0.000083 -0.000290 -0.000591
    15 H    -0.000498 -0.000258  0.000071
    16 H    -0.000079  0.000144 -0.000566
    17 H     0.000048  0.000584 -0.000027
    18 H    -0.000530 -0.000029 -0.000033
    19 H     0.000023 -0.000291  0.000482
    20 H     0.004423 -0.000815 -0.000681
    21 I     0.015507 -0.044606 -0.016245
    22 I    -0.001128  0.006197  0.002872
 ----------------------------------------
 Mulliken charges used for AMS results%charges...

 dE(predicted):    -0.11598E-01, dE(actual):    -0.37303E-02, Trust radius:    0.800000, all in a.u.
 
----------------------------------------------------------------------
Geometry Convergence after Step   7       (Hartree/Angstrom,Angstrom)
----------------------------------------------------------------------
current energy                               -4.10492187 Hartree
energy change                      -0.00373031     0.00022000    F
constrained gradient max            0.04461237     0.00100000    F
constrained gradient rms            0.00869145     0.00066667    F
gradient max                        0.04461215
gradient rms                        0.00869145
cart. step max                      0.20001095     0.01000000    F
cart. step rms                      0.04718918     0.00666667    F
 
 
--------
Geometry
--------
Formula: C7H12I2O
Atoms
  Index Symbol   x (angstrom)   y (angstrom)   z (angstrom)
      1      H    -0.26006317     0.06384949    -0.08772665
      2      C    -0.09373629    -2.03410395    -0.50589351
      3      C     0.38396637    -0.79864019    -0.23684633
      4      C     1.80494456    -0.57581582    -0.13143434
      5      O     2.35202808     0.51252824     0.08080939
      6      H     0.65573794    -2.81939163    -0.63879956
      7      C    -1.59225850    -3.88266635    -1.23587510
      8      C    -1.53355483    -2.47196144    -0.61213021
      9      C    -2.35178921    -1.48611080    -1.48405279
     10      C    -2.13681765    -2.51664450     0.82054207
     11      H    -2.13214885    -1.52850976     1.28820678
     12      H    -2.62707344    -4.23034258    -1.30778170
     13      H    -1.03845262    -4.60960720    -0.63181724
     14      H    -1.16856276    -3.88989634    -2.24603330
     15      H    -3.38819120    -1.83055523    -1.55711514
     16      H    -1.94411498    -1.42238755    -2.49766462
     17      H    -2.36688785    -0.47831484    -1.06100400
     18      H    -3.17281527    -2.86803430     0.77122668
     19      H    -1.57906746    -3.20057863     1.46830110
     20      H     2.46931990    -1.44838171    -0.31292377
     21      I     1.66384920     2.69931922     0.75384700
     22      I     1.00569472     5.26070240     1.64084263
 
Total System Charge             0.00000
 
 *** GOStep8 ***

 Energy gradients wrt nuclear displacements
 ==========================================

     Atom      Cartesian (a.u./angstrom)
                 X         Y         Z
 ----------------------------------------
     1 H    -0.000035  0.000182 -0.000124
     2 C    -0.007630 -0.000988 -0.001987
     3 C     0.008157  0.003874 -0.002178
     4 C    -0.004979 -0.003615  0.012452
     5 O    -0.018270  0.031110  0.004500
     6 H     0.001521  0.000594 -0.001757
     7 C     0.000187 -0.000050  0.000521
     8 C     0.006266 -0.001619  0.002346
     9 C    -0.000266  0.001359 -0.001554
    10 C    -0.000683  0.000924  0.000511
    11 H    -0.000162  0.000148  0.000530
    12 H    -0.000207 -0.000210 -0.000050
    13 H     0.000126 -0.000541  0.000158
    14 H     0.000067 -0.000243 -0.000513
    15 H    -0.000364 -0.000302  0.000095
    16 H    -0.000049  0.000107 -0.000474
    17 H     0.000092  0.000504  0.000022
    18 H    -0.000434 -0.000006 -0.000018
    19 H     0.000026 -0.000259  0.000358
    20 H     0.004086 -0.000317 -0.003376
    21 I     0.014088 -0.036909 -0.012056
    22 I    -0.001535  0.006259  0.002593
 ----------------------------------------
 Mulliken charges used for AMS results%charges...

 dE(predicted):    -0.72530E-02, dE(actual):    -0.26582E-02, Trust radius:    0.800000, all in a.u.
 
----------------------------------------------------------------------
Geometry Convergence after Step   8       (Hartree/Angstrom,Angstrom)
----------------------------------------------------------------------
current energy                               -4.10758007 Hartree
energy change                      -0.00265820     0.00022000    F
constrained gradient max            0.03692129     0.00100000    F
constrained gradient rms            0.00729088     0.00066667    F
gradient max                        0.03692114
gradient rms                        0.00729088
cart. step max                      0.20475842     0.01000000    F
cart. step rms                      0.04740576     0.00666667    F
 
 
--------
Geometry
--------
Formula: C7H12I2O
Atoms
  Index Symbol   x (angstrom)   y (angstrom)   z (angstrom)
      1      H    -0.20878783     0.05904592    -0.08954954
      2      C    -0.08060186    -2.04372290    -0.49787074
      3      C     0.41834109    -0.81636596    -0.23367735
      4      C     1.84567765    -0.62278344    -0.11648414
      5      O     2.41707046     0.44525116     0.12549679
      6      H     0.65377217    -2.84632175    -0.60971995
      7      C    -1.61005767    -3.84907565    -1.26769268
      8      C    -1.52742519    -2.45614311    -0.60798820
      9      C    -2.34058515    -1.43815431    -1.44593808
     10      C    -2.11901720    -2.53182680     0.82863378
     11      H    -2.09847719    -1.55583445     1.32051708
     12      H    -2.65002879    -4.18046766    -1.34092908
     13      H    -1.06188204    -4.59874026    -0.68691025
     14      H    -1.19350438    -3.83543049    -2.28065116
     15      H    -3.38095506    -1.76936200    -1.52143368
     16      H    -1.93869358    -1.35082771    -2.45998336
     17      H    -2.34251126    -0.44256857    -0.99500182
     18      H    -3.15909823    -2.87058665     0.77924546
     19      H    -1.56320812    -3.23831115     1.45331880
     20      H     2.48590279    -1.51909810    -0.26680403
     21      I     1.60313978     2.67436479     0.71931409
     22      I     0.80093631     5.23141559     1.47078548
 
Total System Charge             0.00000
 
 *** GOStep9 ***

 Energy gradients wrt nuclear displacements
 ==========================================

     Atom      Cartesian (a.u./angstrom)
                 X         Y         Z
 ----------------------------------------
     1 H     0.000020  0.000158  0.000893
     2 C    -0.007111 -0.000698 -0.003058
     3 C     0.005657  0.002028  0.000505
     4 C    -0.004345 -0.000083  0.002266
     5 O    -0.013386  0.023064  0.004690
     6 H     0.001487  0.000478 -0.000628
     7 C    -0.000049  0.000032  0.000666
     8 C     0.006521 -0.001596  0.001987
     9 C    -0.000722  0.001481 -0.001747
    10 C    -0.000929  0.000904  0.000753
    11 H    -0.000088  0.000083  0.000357
    12 H    -0.000115 -0.000185 -0.000052
    13 H     0.000105 -0.000386  0.000132
    14 H     0.000037 -0.000149 -0.000401
    15 H    -0.000258 -0.000274  0.000082
    16 H    -0.000024  0.000030 -0.000340
    17 H     0.000126  0.000307  0.000037
    18 H    -0.000298  0.000009 -0.000054
    19 H     0.000050 -0.000196  0.000190
    20 H     0.003251 -0.000940 -0.000012
    21 I     0.011849 -0.030078 -0.008295
    22 I    -0.001776  0.006010  0.002028
 ----------------------------------------
 Mulliken charges used for AMS results%charges...

 dE(predicted):    -0.60300E-02, dE(actual):    -0.24638E-02, Trust radius:    0.800000, all in a.u.
 
----------------------------------------------------------------------
Geometry Convergence after Step   9       (Hartree/Angstrom,Angstrom)
----------------------------------------------------------------------
current energy                               -4.11004387 Hartree
energy change                      -0.00246379     0.00022000    F
constrained gradient max            0.03008693     0.00100000    F
constrained gradient rms            0.00562043     0.00066667    F
gradient max                        0.03008687
gradient rms                        0.00562043
cart. step max                      0.19634981     0.01000000    F
cart. step rms                      0.04533169     0.00666667    F
 
 
--------
Geometry
--------
Formula: C7H12I2O
Atoms
  Index Symbol   x (angstrom)   y (angstrom)   z (angstrom)
      1      H    -0.17652553     0.05521292    -0.08931368
      2      C    -0.07321137    -2.05392139    -0.47049399
      3      C     0.43889456    -0.83167904    -0.21021597
      4      C     1.86947777    -0.65789163    -0.07794763
      5      O     2.45743700     0.40125023     0.15930224
      6      H     0.65076855    -2.86685226    -0.57466115
      7      C    -1.61815491    -3.81425506    -1.30895504
      8      C    -1.52411422    -2.44718004    -0.59861360
      9      C    -2.32918462    -1.39299348    -1.39733444
     10      C    -2.11468348    -2.57161136     0.83515460
     11      H    -2.08666649    -1.61400483     1.36146806
     12      H    -2.66089271    -4.13357830    -1.39473698
     13      H    -1.07675801    -4.58924940    -0.75587225
     14      H    -1.20061817    -3.76689438    -2.32041484
     15      H    -3.37160059    -1.71381251    -1.48656325
     16      H    -1.92528938    -1.26977480    -2.40676358
     17      H    -2.32541527    -0.41542574    -0.90875145
     18      H    -3.15691381    -2.90161508     0.77461836
     19      H    -1.56286925    -3.30394037     1.43296686
     20      H     2.49322535    -1.56701786    -0.22016336
     21      I     1.56671135     2.67052990     0.65953282
     22      I     0.67638992     5.22916102     1.27443567
 
Total System Charge             0.00000
 
 *** GOStep10 ***

 Energy gradients wrt nuclear displacements
 ==========================================

     Atom      Cartesian (a.u./angstrom)
                 X         Y         Z
 ----------------------------------------
     1 H     0.000076  0.000456  0.000029
     2 C    -0.006227 -0.000876 -0.001422
     3 C     0.003992  0.001199  0.000868
     4 C    -0.004352  0.000662  0.003746
     5 O    -0.009665  0.018527  0.002448
     6 H     0.001485  0.000736 -0.001854
     7 C    -0.000251  0.000051  0.000748
     8 C     0.006021 -0.001848  0.001828
     9 C    -0.000807  0.001646 -0.001862
    10 C    -0.001022  0.000908  0.000877
    11 H    -0.000075 -0.000005  0.000257
    12 H    -0.000033 -0.000170 -0.000068
    13 H     0.000077 -0.000289  0.000083
    14 H     0.000037 -0.000104 -0.000320
    15 H    -0.000164 -0.000272  0.000051
    16 H     0.000003  0.000009 -0.000256
    17 H     0.000277  0.000222  0.000051
    18 H    -0.000188  0.000028 -0.000097
    19 H     0.000056 -0.000141  0.000083
    20 H     0.002601 -0.000601 -0.000816
    21 I     0.010028 -0.025740 -0.005927
    22 I    -0.001871  0.005602  0.001552
 ----------------------------------------
 Mulliken charges used for AMS results%charges...

 dE(predicted):    -0.36241E-02, dE(actual):    -0.13658E-02, Trust radius:    0.800000, all in a.u.
 
----------------------------------------------------------------------
Geometry Convergence after Step  10       (Hartree/Angstrom,Angstrom)
----------------------------------------------------------------------
current energy                               -4.11140969 Hartree
energy change                      -0.00136582     0.00022000    F
constrained gradient max            0.02574619     0.00100000    F
constrained gradient rms            0.00466973     0.00066667    F
gradient max                        0.02574617
gradient rms                        0.00466973
cart. step max                      0.19964246     0.01000000    F
cart. step rms                      0.04516062     0.00666667    F
 
 
--------
Geometry
--------
Formula: C7H12I2O
Atoms
  Index Symbol   x (angstrom)   y (angstrom)   z (angstrom)
      1      H    -0.14794087     0.05397750    -0.09853259
      2      C    -0.06769900    -2.06124039    -0.44796349
      3      C     0.45660880    -0.84270058    -0.19736692
      4      C     1.88880393    -0.68872941    -0.03941545
      5      O     2.49147205     0.36053344     0.20077353
      6      H     0.64433547    -2.88805360    -0.51886967
      7      C    -1.62307848    -3.77720389    -1.35288201
      8      C    -1.52201690    -2.43811000    -0.59184488
      9      C    -2.32467633    -1.35201447    -1.34696914
     10      C    -2.10807461    -2.61500662     0.83825060
     11      H    -2.07480064    -1.67748546     1.39922364
     12      H    -2.66749037    -4.08785608    -1.44920870
     13      H    -1.08466499    -4.57481782    -0.83002290
     14      H    -1.20632000    -3.69365368    -2.36223484
     15      H    -3.36775149    -1.66657508    -1.44855682
     16      H    -1.92079068    -1.18953198    -2.35074304
     17      H    -2.31964444    -0.39469090    -0.81998076
     18      H    -3.15141907    -2.93957781     0.76903872
     19      H    -1.55648020    -3.37074911     1.40634023
     20      H     2.49545598    -1.61271762    -0.15722596
     21      I     1.53836008     2.67218460     0.60007462
     22      I     0.57781846     5.22847549     1.07479320
 
Total System Charge             0.00000
 
 *** GOStep11 ***

 Energy gradients wrt nuclear displacements
 ==========================================

     Atom      Cartesian (a.u./angstrom)
                 X         Y         Z
 ----------------------------------------
     1 H     0.000132  0.000349  0.000639
     2 C    -0.004576 -0.000624 -0.002591
     3 C     0.002427  0.000511  0.001076
     4 C    -0.004232  0.001805  0.002272
     5 O    -0.006134  0.014466  0.001657
     6 H     0.001365  0.000678 -0.001183
     7 C    -0.000350  0.000136  0.000949
     8 C     0.005037 -0.002145  0.001973
     9 C    -0.000953  0.001763 -0.001879
    10 C    -0.001174  0.000940  0.000892
    11 H    -0.000028 -0.000057  0.000160
    12 H     0.000044 -0.000134 -0.000084
    13 H     0.000068 -0.000199  0.000071
    14 H     0.000033 -0.000057 -0.000257
    15 H    -0.000092 -0.000255  0.000058
    16 H     0.000049 -0.000045 -0.000158
    17 H     0.000297  0.000093  0.000002
    18 H    -0.000090  0.000051 -0.000098
    19 H     0.000080 -0.000077 -0.000021
    20 H     0.001854 -0.000442 -0.000464
    21 I     0.008110 -0.021783 -0.004045
    22 I    -0.001867  0.005023  0.001032
 ----------------------------------------
 Mulliken charges used for AMS results%charges...

 dE(predicted):    -0.29133E-02, dE(actual):    -0.11842E-02, Trust radius:    0.800000, all in a.u.
 
----------------------------------------------------------------------
Geometry Convergence after Step  11       (Hartree/Angstrom,Angstrom)
----------------------------------------------------------------------
current energy                               -4.11259388 Hartree
energy change                      -0.00118419     0.00022000    F
constrained gradient max            0.02179497     0.00100000    F
constrained gradient rms            0.00379746     0.00066667    F
gradient max                        0.02179496
gradient rms                        0.00379746
cart. step max                      0.20619008     0.01000000    F
cart. step rms                      0.04668452     0.00666667    F
 
 
--------
Geometry
--------
Formula: C7H12I2O
Atoms
  Index Symbol   x (angstrom)   y (angstrom)   z (angstrom)
      1      H    -0.12604436     0.05667711    -0.12308147
      2      C    -0.06643365    -2.06702906    -0.41769053
      3      C     0.46795534    -0.85007311    -0.18343893
      4      C     1.90000705    -0.71237998     0.00398900
      5      O     2.51496047     0.32999599     0.23924353
      6      H     0.63507490    -2.90461939    -0.45984544
      7      C    -1.62164748    -3.73791370    -1.39967004
      8      C    -1.52206292    -2.43178156    -0.58278529
      9      C    -2.32496191    -1.31599336    -1.29023668
     10      C    -2.10650199    -2.67036088     0.83890265
     11      H    -2.07366187    -1.75687009     1.43823805
     12      H    -2.66603930    -4.04382749    -1.51038328
     13      H    -1.08398102    -4.55671438    -0.90999397
     14      H    -1.20324509    -3.61189626    -2.40382495
     15      H    -3.36699634    -1.62785019    -1.40845972
     16      H    -1.91914740    -1.10788096    -2.28469348
     17      H    -2.32465763    -0.38306418    -0.72121566
     18      H    -3.14938319    -2.99338025     0.75695952
     19      H    -1.55344785    -3.44851606     1.37436999
     20      H     2.49071079    -1.65022863    -0.08028416
     21      I     1.52334976     2.68547000     0.53197512
     22      I     0.52616037     5.24269293     0.86860312
 
Total System Charge             0.00000
 
 *** GOStep12 ***

 Energy gradients wrt nuclear displacements
 ==========================================

     Atom      Cartesian (a.u./angstrom)
                 X         Y         Z
 ----------------------------------------
     1 H     0.000250  0.000390  0.000123
     2 C    -0.003053 -0.000719 -0.001670
     3 C     0.001099 -0.000090  0.001746
     4 C    -0.004119  0.002693  0.001372
     5 O    -0.003170  0.011327  0.001164
     6 H     0.001308  0.000785 -0.001920
     7 C    -0.000409  0.000226  0.001108
     8 C     0.003826 -0.002322  0.001670
     9 C    -0.001057  0.001753 -0.001803
    10 C    -0.001180  0.001005  0.000922
    11 H     0.000025 -0.000084  0.000061
    12 H     0.000098 -0.000116 -0.000098
    13 H     0.000073 -0.000123  0.000086
    14 H     0.000035 -0.000035 -0.000192
    15 H    -0.000043 -0.000216  0.000069
    16 H     0.000084 -0.000074 -0.000069
    17 H     0.000269 -0.000012 -0.000115
    18 H    -0.000013  0.000056 -0.000124
    19 H     0.000094 -0.000035 -0.000071
    20 H     0.001210 -0.000233 -0.000291
    21 I     0.006377 -0.018497 -0.002548
    22 I    -0.001704  0.004321  0.000580
 ----------------------------------------
 Mulliken charges used for AMS results%charges...

 dE(predicted):    -0.25395E-02, dE(actual):    -0.95929E-03, Trust radius:    0.800000, all in a.u.
 
----------------------------------------------------------------------
Geometry Convergence after Step  12       (Hartree/Angstrom,Angstrom)
----------------------------------------------------------------------
current energy                               -4.11355316 Hartree
energy change                      -0.00095929     0.00022000    F
constrained gradient max            0.01850992     0.00100000    F
constrained gradient rms            0.00310670     0.00066667    F
gradient max                        0.01850992
gradient rms                        0.00310670
cart. step max                      0.20930457     0.01000000    F
cart. step rms                      0.04812884     0.00666667    F
 
 
--------
Geometry
--------
Formula: C7H12I2O
Atoms
  Index Symbol   x (angstrom)   y (angstrom)   z (angstrom)
      1      H    -0.10861532     0.05822889    -0.14406266
      2      C    -0.06791588    -2.07201040    -0.38394553
      3      C     0.47569877    -0.85614744    -0.16842821
      4      C     1.90668495    -0.73164049     0.04730948
      5      O     2.53199031     0.30562737     0.27352676
      6      H     0.62176784    -2.92030142    -0.38707855
      7      C    -1.61626851    -3.69614253    -1.44768271
      8      C    -1.52330630    -2.42690770    -0.57314219
      9      C    -2.32803957    -1.28413833    -1.23012213
     10      C    -2.10747465    -2.73189127     0.83576414
     11      H    -2.07845679    -1.84552547     1.47476806
     12      H    -2.65965925    -3.99918789    -1.57480465
     13      H    -1.07777130    -4.53438674    -0.99327687
     14      H    -1.19517830    -3.52435698    -2.44378233
     15      H    -3.36802678    -1.59464953    -1.36750071
     16      H    -1.91946925    -1.02711028    -2.21186988
     17      H    -2.33583358    -0.37917231    -0.61757675
     18      H    -3.14893555    -3.05532670     0.73882382
     19      H    -1.55175489    -3.53087472     1.33668518
     20      H     2.48235493    -1.68121426    -0.00348749
     21      I     1.51591138     2.70714925     0.45726205
     22      I     0.50230443     5.26443544     0.65929855
 
Total System Charge             0.00000
 
 *** GOStep13 ***

 Energy gradients wrt nuclear displacements
 ==========================================

     Atom      Cartesian (a.u./angstrom)
                 X         Y         Z
 ----------------------------------------
     1 H     0.000281  0.000250  0.000294
     2 C    -0.001499 -0.000604 -0.001461
     3 C    -0.000067 -0.000445  0.001783
     4 C    -0.003806  0.003336  0.000711
     5 O    -0.000757  0.008585  0.000883
     6 H     0.001106  0.000692 -0.001721
     7 C    -0.000455  0.000231  0.001217
     8 C     0.002514 -0.002344  0.000916
     9 C    -0.001026  0.001658 -0.001622
    10 C    -0.001005  0.001065  0.000948
    11 H     0.000098 -0.000077 -0.000034
    12 H     0.000150 -0.000107 -0.000128
    13 H     0.000060 -0.000067  0.000079
    14 H     0.000029 -0.000020 -0.000126
    15 H     0.000005 -0.000157  0.000116
    16 H     0.000126 -0.000133  0.000010
    17 H     0.000158 -0.000090 -0.000197
    18 H     0.000053  0.000034 -0.000171
    19 H     0.000087  0.000004 -0.000071
    20 H     0.000640 -0.000024 -0.000305
    21 I     0.004722 -0.015235 -0.001361
    22 I    -0.001414  0.003448  0.000240
 ----------------------------------------
 Mulliken charges used for AMS results%charges...

 dE(predicted):    -0.25530E-02, dE(actual):    -0.89028E-03, Trust radius:    0.800000, all in a.u.
 
----------------------------------------------------------------------
Geometry Convergence after Step  13       (Hartree/Angstrom,Angstrom)
----------------------------------------------------------------------
current energy                               -4.11444344 Hartree
energy change                      -0.00089028     0.00022000    F
constrained gradient max            0.01524576     0.00100000    F
constrained gradient rms            0.00248957     0.00066667    F
gradient max                        0.01524576
gradient rms                        0.00248957
cart. step max                      0.21093555     0.01000000    F
cart. step rms                      0.04865924     0.00666667    F
 
 
--------
Geometry
--------
Formula: C7H12I2O
Atoms
  Index Symbol   x (angstrom)   y (angstrom)   z (angstrom)
      1      H    -0.09545252     0.05915311    -0.16476965
      2      C    -0.07126559    -2.07572869    -0.35174134
      3      C     0.47984707    -0.86094178    -0.15207006
      4      C     1.90805553    -0.74609700     0.09434760
      5      O     2.54012015     0.28843063     0.30997835
      6      H     0.60823702    -2.93172390    -0.32506627
      7      C    -1.60875026    -3.65303800    -1.49447642
      8      C    -1.52526485    -2.42368615    -0.56303454
      9      C    -2.33434746    -1.25767682    -1.16804930
     10      C    -2.10881149    -2.79689332     0.82947913
     11      H    -2.08565148    -1.94021502     1.50805778
     12      H    -2.65046872    -3.95486303    -1.63762588
     13      H    -1.06704764    -4.50817154    -1.07704612
     14      H    -1.18604170    -3.43406342    -2.48048827
     15      H    -3.37177744    -1.56761440    -1.32424909
     16      H    -1.92429885    -0.95129953    -2.13487570
     17      H    -2.35118214    -0.38297211    -0.51302527
     18      H    -3.14821084    -3.12194283     0.71692394
     19      H    -1.54892916    -3.61461434     1.29422495
     20      H     2.47044938    -1.70499062     0.08299313
     21      I     1.51583943     2.73248385     0.37882741
     22      I     0.50495825     5.29092140     0.44836301
 
Total System Charge             0.00000
 
 *** GOStep14 ***

 Energy gradients wrt nuclear displacements
 ==========================================

     Atom      Cartesian (a.u./angstrom)
                 X         Y         Z
 ----------------------------------------
     1 H     0.000331  0.000156 -0.000049
     2 C    -0.000353 -0.000475 -0.001014
     3 C    -0.000865 -0.000635  0.002007
     4 C    -0.003348  0.003675  0.000264
     5 O     0.000679  0.006519  0.000748
     6 H     0.000976  0.000624 -0.002127
     7 C    -0.000443  0.000221  0.001333
     8 C     0.001449 -0.002080  0.000464
     9 C    -0.000832  0.001423 -0.001419
    10 C    -0.000876  0.000984  0.000997
    11 H     0.000146 -0.000060 -0.000125
    12 H     0.000174 -0.000069 -0.000151
    13 H     0.000037 -0.000029  0.000081
    14 H     0.000028 -0.000016 -0.000081
    15 H     0.000032 -0.000115  0.000167
    16 H     0.000174 -0.000163  0.000072
    17 H     0.000035 -0.000144 -0.000241
    18 H     0.000079 -0.000012 -0.000165
    19 H     0.000061  0.000016 -0.000040
    20 H     0.000204  0.000070 -0.000148
    21 I     0.003406 -0.012526 -0.000564
    22 I    -0.001091  0.002636 -0.000008
 ----------------------------------------
 Mulliken charges used for AMS results%charges...

 dE(predicted):    -0.24262E-02, dE(actual):    -0.72253E-03, Trust radius:    0.800000, all in a.u.
 
----------------------------------------------------------------------
Geometry Convergence after Step  14       (Hartree/Angstrom,Angstrom)
----------------------------------------------------------------------
current energy                               -4.11516598 Hartree
energy change                      -0.00072253     0.00022000    F
constrained gradient max            0.01253715     0.00100000    F
constrained gradient rms            0.00203887     0.00066667    F
gradient max                        0.01253715
gradient rms                        0.00203887
cart. step max                      0.21234144     0.01000000    F
cart. step rms                      0.05122679     0.00666667    F
 
 
--------
Geometry
--------
Formula: C7H12I2O
Atoms
  Index Symbol   x (angstrom)   y (angstrom)   z (angstrom)
      1      H    -0.08318341     0.05851469    -0.18347943
      2      C    -0.07753852    -2.07977804    -0.31019399
      3      C     0.48262912    -0.86601088    -0.13332682
      4      C     1.90874422    -0.75852936     0.13593647
      5      O     2.54719953     0.27453032     0.33411277
      6      H     0.58883874    -2.94374030    -0.24234293
      7      C    -1.59611166    -3.60491574    -1.54071475
      8      C    -1.52841663    -2.42107415    -0.54975303
      9      C    -2.34176270    -1.23406437    -1.10108723
     10      C    -2.11570070    -2.86753778     0.81918461
     11      H    -2.10258797    -2.04507396     1.53922137
     12      H    -2.63497170    -3.90648051    -1.70433412
     13      H    -1.05043340    -4.47532555    -1.16207324
     14      H    -1.16918316    -3.33489921    -2.51202988
     15      H    -3.37549533    -1.54328789    -1.28101699
     16      H    -1.92793171    -0.87516035    -2.04801506
     17      H    -2.37112468    -0.39404416    -0.40227732
     18      H    -3.15201691    -3.19455304     0.68570099
     19      H    -1.55192218    -3.70304778     1.24602067
     20      H     2.45863584    -1.72462189     0.16015879
     21      I     1.52110152     2.76423608     0.29096495
     22      I     0.52123839     5.31932039     0.23602157
 
Total System Charge             0.00000
 
 *** GOStep15 ***

 Energy gradients wrt nuclear displacements
 ==========================================

     Atom      Cartesian (a.u./angstrom)
                 X         Y         Z
 ----------------------------------------
     1 H     0.000273 -0.000024  0.000107
     2 C     0.000539 -0.000391 -0.000442
     3 C    -0.001481 -0.000580  0.001863
     4 C    -0.002616  0.003753 -0.000216
     5 O     0.001675  0.004578  0.000757
     6 H     0.000659  0.000401 -0.001673
     7 C    -0.000569  0.000225  0.001396
     8 C     0.000517 -0.001477 -0.000751
     9 C    -0.000614  0.000932 -0.001166
    10 C    -0.000392  0.000905  0.001168
    11 H     0.000185 -0.000034 -0.000191
    12 H     0.000172 -0.000051 -0.000175
    13 H     0.000018  0.000003  0.000086
    14 H     0.000025 -0.000039 -0.000056
    15 H     0.000052 -0.000045  0.000200
    16 H     0.000210 -0.000173  0.000130
    17 H    -0.000147 -0.000169 -0.000264
    18 H     0.000119 -0.000061 -0.000241
    19 H     0.000049  0.000019 -0.000007
    20 H    -0.000118  0.000167 -0.000296
    21 I     0.002143 -0.009539 -0.000081
    22 I    -0.000700  0.001600 -0.000148
 ----------------------------------------
 Mulliken charges used for AMS results%charges...

 dE(predicted):    -0.20774E-02, dE(actual):    -0.74599E-03, Trust radius:    0.800000, all in a.u.
 
----------------------------------------------------------------------
Geometry Convergence after Step  15       (Hartree/Angstrom,Angstrom)
----------------------------------------------------------------------
current energy                               -4.11591197 Hartree
energy change                      -0.00074599     0.00022000    F
constrained gradient max            0.00955052     0.00100000    F
constrained gradient rms            0.00158100     0.00066667    F
gradient max                        0.00955052
gradient rms                        0.00158100
cart. step max                      0.21288977     0.01000000    F
cart. step rms                      0.05163537     0.00666667    F
 
 
--------
Geometry
--------
Formula: C7H12I2O
Atoms
  Index Symbol   x (angstrom)   y (angstrom)   z (angstrom)
      1      H    -0.07260048     0.05698557    -0.20804818
      2      C    -0.08447205    -2.08296664    -0.27344308
      3      C     0.48362121    -0.87029211    -0.11814163
      4      C     1.90524315    -0.76744608     0.18131187
      5      O     2.54742233     0.26531719     0.36354036
      6      H     0.57044521    -2.95228839    -0.17127504
      7      C    -1.58288485    -3.55521516    -1.58472261
      8      C    -1.53183132    -2.41996218    -0.53631701
      9      C    -2.35191101    -1.21536327    -1.03209244
     10      C    -2.12123987    -2.93902697     0.80558609
     11      H    -2.11823062    -2.15319477     1.56568046
     12      H    -2.61844192    -3.85769129    -1.76706808
     13      H    -1.03043726    -4.43789466    -1.24671618
     14      H    -1.15444184    -3.23360505    -2.53940310
     15      H    -3.38215057    -1.52331112    -1.23286070
     16      H    -1.93754781    -0.80543185    -1.95785025
     17      H    -2.39176224    -0.41183521    -0.29179700
     18      H    -3.15432492    -3.26747480     0.65197445
     19      H    -1.55242110    -3.79013729     1.19305265
     20      H     2.44288281    -1.73855858     0.24975375
     21      I     1.53074228     2.79628719     0.20238125
     22      I     0.55434758     5.34756197     0.02313180
 
Total System Charge             0.00000
 
 *** GOStep16 ***

 Energy gradients wrt nuclear displacements
 ==========================================

     Atom      Cartesian (a.u./angstrom)
                 X         Y         Z
 ----------------------------------------
     1 H     0.000264 -0.000127 -0.000241
     2 C     0.001039 -0.000210 -0.000279
     3 C    -0.001835 -0.000546  0.001796
     4 C    -0.001967  0.003657 -0.000496
     5 O     0.002182  0.003171  0.000816
     6 H     0.000437  0.000215 -0.001755
     7 C    -0.000523  0.000189  0.001398
     8 C    -0.000152 -0.000884 -0.001219
     9 C    -0.000231  0.000431 -0.000769
    10 C    -0.000274  0.000728  0.001350
    11 H     0.000185 -0.000010 -0.000238
    12 H     0.000174  0.000018 -0.000164
    13 H     0.000005  0.000023  0.000055
    14 H     0.000045 -0.000042 -0.000052
    15 H     0.000076 -0.000013  0.000218
    16 H     0.000279 -0.000154  0.000170
    17 H    -0.000303 -0.000153 -0.000238
    18 H     0.000098 -0.000128 -0.000230
    19 H     0.000029  0.000029 -0.000001
    20 H    -0.000361  0.000183 -0.000148
    21 I     0.001168 -0.007000  0.000227
    22 I    -0.000334  0.000624 -0.000200
 ----------------------------------------
 Mulliken charges used for AMS results%charges...

 dE(predicted):    -0.16658E-02, dE(actual):    -0.60175E-03, Trust radius:    0.800000, all in a.u.
 
----------------------------------------------------------------------
Geometry Convergence after Step  16       (Hartree/Angstrom,Angstrom)
----------------------------------------------------------------------
current energy                               -4.11651371 Hartree
energy change                      -0.00060175     0.00022000    F
constrained gradient max            0.00701072     0.00100000    F
constrained gradient rms            0.00125573     0.00066667    F
gradient max                        0.00701073
gradient rms                        0.00125573
cart. step max                      0.21332604     0.01000000    F
cart. step rms                      0.05504898     0.00666667    F
 
 
--------
Geometry
--------
Formula: C7H12I2O
Atoms
  Index Symbol   x (angstrom)   y (angstrom)   z (angstrom)
      1      H    -0.06391068     0.05362190    -0.22805922
      2      C    -0.09529780    -2.08603345    -0.22467900
      3      C     0.48253610    -0.87489101    -0.09917317
      4      C     1.90138566    -0.77448004     0.21934468
      5      O     2.54801665     0.25863860     0.37605432
      6      H     0.54551078    -2.95943219    -0.07756997
      7      C    -1.56260397    -3.49935975    -1.62658891
      8      C    -1.53679222    -2.41986272    -0.51843404
      9      C    -2.36447516    -1.20071850    -0.95772291
     10      C    -2.13366257    -3.01698959     0.78666574
     11      H    -2.14596697    -2.27373055     1.58854985
     12      H    -2.59291389    -3.80437980    -1.83349004
     13      H    -1.00158381    -4.39160600    -1.33072215
     14      H    -1.13009227    -3.12169660    -2.55847549
     15      H    -3.39000501    -1.50713058    -1.18339234
     16      H    -1.94841199    -0.73770668    -1.85735001
     17      H    -2.41764695    -0.43804982    -0.17584031
     18      H    -3.16212334    -3.34621479     0.60616414
     19      H    -1.56018586    -3.88257802     1.13295423
     20      H     2.42809511    -1.74838162     0.32683769
     21      I     1.54631907     2.83482586     0.10179852
     22      I     0.60381581     5.38061186    -0.19019424
 
Total System Charge             0.00000
 
 *** GOStep17 ***

 Energy gradients wrt nuclear displacements
 ==========================================

     Atom      Cartesian (a.u./angstrom)
                 X         Y         Z
 ----------------------------------------
     1 H     0.000108 -0.000255 -0.000038
     2 C     0.001173 -0.000051  0.000300
     3 C    -0.001941 -0.000414  0.001224
     4 C    -0.001228  0.003398 -0.000747
     5 O     0.002382  0.001823  0.000833
     6 H     0.000020 -0.000035 -0.000995
     7 C    -0.000581  0.000130  0.001295
     8 C    -0.000464  0.000004 -0.002368
     9 C     0.000146 -0.000185 -0.000328
    10 C     0.000063  0.000431  0.001555
    11 H     0.000163  0.000022 -0.000301
    12 H     0.000167  0.000043 -0.000178
    13 H    -0.000010  0.000032  0.000046
    14 H     0.000052 -0.000052 -0.000047
    15 H     0.000078  0.000041  0.000181
    16 H     0.000316 -0.000098  0.000189
    17 H    -0.000414 -0.000154 -0.000173
    18 H     0.000104 -0.000152 -0.000290
    19 H     0.000005  0.000028  0.000029
    20 H    -0.000461  0.000195 -0.000341
    21 I     0.000248 -0.004342  0.000256
    22 I     0.000072 -0.000409 -0.000099
 ----------------------------------------
 Mulliken charges used for AMS results%charges...

 dE(predicted):    -0.11564E-02, dE(actual):    -0.56014E-03, Trust radius:    0.800000, all in a.u.
 
----------------------------------------------------------------------
Geometry Convergence after Step  17       (Hartree/Angstrom,Angstrom)
----------------------------------------------------------------------
current energy                               -4.11707385 Hartree
energy change                      -0.00056014     0.00022000    F
constrained gradient max            0.00435075     0.00100000    F
constrained gradient rms            0.00097035     0.00066667    F
gradient max                        0.00435075
gradient rms                        0.00097035
cart. step max                      0.21323203     0.01000000    F
cart. step rms                      0.05389264     0.00666667    F
 
 
--------
Geometry
--------
Formula: C7H12I2O
Atoms
  Index Symbol   x (angstrom)   y (angstrom)   z (angstrom)
      1      H    -0.05593227     0.04937485    -0.25124889
      2      C    -0.10501958    -2.08815163    -0.18601594
      3      C     0.48069735    -0.87887626    -0.08415498
      4      C     1.89318827    -0.77839263     0.26500802
      5      O     2.54133501     0.25569368     0.40211717
      6      H     0.52462560    -2.96309224    -0.00387401
      7      C    -1.54548049    -3.44294617    -1.66560330
      8      C    -1.54141925    -2.42071236    -0.50265085
      9      C    -2.38030423    -1.19139942    -0.88479859
     10      C    -2.14005509    -3.09166586     0.76451871
     11      H    -2.16413768    -2.39240795     1.60502800
     12      H    -2.57077644    -3.75142615    -1.89202436
     13      H    -0.97272304    -4.34097963    -1.41319258
     14      H    -1.11459279    -3.01121137    -2.57430869
     15      H    -3.40238032    -1.49639946    -1.12749617
     16      H    -1.96908673    -0.68031368    -1.76032281
     17      H    -2.44130568    -0.46847043    -0.06626941
     18      H    -3.16459251    -3.42011973     0.56186778
     19      H    -1.56036128    -3.96915357     1.06777547
     20      H     2.40828521    -1.75238683     0.42041864
     21      I     1.56578902     2.86960702     0.00533045
     22      I     0.66425364     5.40788633    -0.40342627
 
Total System Charge             0.00000
 
 *** GOStep18 ***

 Energy gradients wrt nuclear displacements
 ==========================================

     Atom      Cartesian (a.u./angstrom)
                 X         Y         Z
 ----------------------------------------
     1 H     0.000041 -0.000329 -0.000287
     2 C     0.001184  0.000079 -0.000007
     3 C    -0.001784 -0.000319  0.000690
     4 C    -0.000670  0.002971 -0.000632
     5 O     0.002187  0.000933  0.000815
     6 H    -0.000206 -0.000191 -0.000830
     7 C    -0.000310  0.000146  0.001155
     8 C    -0.000624  0.000796 -0.002151
     9 C     0.000428 -0.000700  0.000001
    10 C     0.000069  0.000033  0.001557
    11 H     0.000112  0.000052 -0.000291
    12 H     0.000124  0.000114 -0.000118
    13 H    -0.000033  0.000040  0.000026
    14 H     0.000057 -0.000064 -0.000061
    15 H     0.000058  0.000071  0.000133
    16 H     0.000334 -0.000018  0.000199
    17 H    -0.000468 -0.000134 -0.000083
    18 H     0.000058 -0.000179 -0.000237
    19 H    -0.000012  0.000028  0.000035
    20 H    -0.000547  0.000147 -0.000133
    21 I    -0.000373 -0.002273  0.000178
    22 I     0.000374 -0.001202  0.000040
 ----------------------------------------
 Mulliken charges used for AMS results%charges...
 Rebuilding optimization coordinates
Bad geometry: could not add a dihedral for atom   22

 dE(predicted):    -0.62988E-03, dE(actual):    -0.36013E-03, Trust radius:    0.800000, all in a.u.
 
----------------------------------------------------------------------
Geometry Convergence after Step  18       (Hartree/Angstrom,Angstrom)
----------------------------------------------------------------------
current energy                               -4.11743398 Hartree
energy change                      -0.00036013     0.00022000    F
constrained gradient max            0.00296095     0.00100000    F
constrained gradient rms            0.00078096     0.00066667    F
gradient max                        0.00296095
gradient rms                        0.00078096
cart. step max                      0.21206504     0.01000000    F
cart. step rms                      0.05842461     0.00666667    F
 
 
--------
Geometry
--------
Formula: C7H12I2O
Atoms
  Index Symbol   x (angstrom)   y (angstrom)   z (angstrom)
      1      H    -0.05174523     0.04295980    -0.26355935
      2      C    -0.12054387    -2.09018265    -0.12959126
      3      C     0.47525566    -0.88377910    -0.06011215
      4      C     1.88566790    -0.78119935     0.30001306
      5      O     2.53637134     0.25435932     0.40218974
      6      H     0.49611170    -2.96426138     0.09617176
      7      C    -1.51880660    -3.37921206    -1.70048666
      8      C    -1.54836979    -2.42378567    -0.48027284
      9      C    -2.39976435    -1.18796612    -0.80636542
     10      C    -2.15609092    -3.17417572     0.73550093
     11      H    -2.19817429    -2.52708829     1.61646845
     12      H    -2.53591444    -3.69393867    -1.95444625
     13      H    -0.93082387    -4.27881515    -1.49297536
     14      H    -1.08725803    -2.88742511    -2.57756357
     15      H    -3.41734888    -1.49200553    -1.06853319
     16      H    -1.99364402    -0.62894623    -1.65454892
     17      H    -2.47001337    -0.50725710     0.04722533
     18      H    -3.17501067    -3.49937755     0.50212006
     19      H    -1.57123881    -4.06266334     0.99335107
     20      H     2.39273088    -1.75270188     0.49518352
     21      I     1.59555493     2.91562024    -0.10760024
     22      I     0.74306145     5.44629803    -0.61549131
 
Total System Charge             0.00000
 
 *** GOStep19 ***

 Energy gradients wrt nuclear displacements
 ==========================================

     Atom      Cartesian (a.u./angstrom)
                 X         Y         Z
 ----------------------------------------
     1 H    -0.000191 -0.000338  0.000033
     2 C     0.000517  0.000335  0.000793
     3 C    -0.001124 -0.000151 -0.000153
     4 C    -0.000015  0.002163 -0.000656
     5 O     0.001581  0.000279  0.000655
     6 H    -0.000593 -0.000291  0.000037
     7 C    -0.000321  0.000018  0.000605
     8 C    -0.000283  0.001531 -0.002421
     9 C     0.000636 -0.001302  0.000256
    10 C     0.000377 -0.000343  0.001297
    11 H     0.000034  0.000084 -0.000225
    12 H     0.000054  0.000079 -0.000100
    13 H    -0.000048  0.000060 -0.000001
    14 H     0.000041 -0.000044 -0.000040
    15 H     0.000051  0.000098 -0.000027
    16 H     0.000195  0.000073  0.000132
    17 H    -0.000311 -0.000100  0.000111
    18 H     0.000049 -0.000104 -0.000198
    19 H    -0.000042  0.000051  0.000009
    20 H    -0.000434  0.000065 -0.000293
    21 I    -0.000767 -0.000214 -0.000079
    22 I     0.000595 -0.001949  0.000268
 ----------------------------------------
 Mulliken charges used for AMS results%charges...

 dE(predicted):    -0.28465E-03, dE(actual):    -0.26781E-03, Trust radius:    0.800000, all in a.u.
 
----------------------------------------------------------------------
Geometry Convergence after Step  19       (Hartree/Angstrom,Angstrom)
----------------------------------------------------------------------
current energy                               -4.11770179 Hartree
energy change                      -0.00026781     0.00022000    F
constrained gradient max            0.00242096     0.00100000    F
constrained gradient rms            0.00066699     0.00066667    F
gradient max                        0.00242096
gradient rms                        0.00066699
cart. step max                      0.10408165     0.01000000    F
cart. step rms                      0.02943838     0.00666667    F
 
 
--------
Geometry
--------
Formula: C7H12I2O
Atoms
  Index Symbol   x (angstrom)   y (angstrom)   z (angstrom)
      1      H    -0.05170124     0.03869917    -0.27448092
      2      C    -0.12782038    -2.09191613    -0.10744686
      3      C     0.47079742    -0.88627113    -0.05143524
      4      C     1.87780671    -0.77954179     0.32147121
      5      O     2.52714360     0.25789366     0.40817017
      6      H     0.48523120    -2.96385216     0.13590560
      7      C    -1.50765612    -3.34901815    -1.71679383
      8      C    -1.55223501    -2.42775762    -0.46987975
      9      C    -2.41167893    -1.19021081    -0.76759078
     10      C    -2.16151222    -3.21607996     0.71968263
     11      H    -2.20982878    -2.59627851     1.61994881
     12      H    -2.52065832    -3.66835365    -1.98157199
     13      H    -0.90968245    -4.24710611    -1.53265938
     14      H    -1.07960774    -2.82754413    -2.57813955
     15      H    -3.42850726    -1.49437534    -1.03264371
     16      H    -2.01302659    -0.61103693    -1.60570414
     17      H    -2.48121386    -0.52797249     0.10056932
     18      H    -3.17837987    -3.53836116     0.47394549
     19      H    -1.57367111    -4.10936865     0.95304604
     20      H     2.38096399    -1.74742512     0.54398767
     21      I     1.61563746     2.94520191    -0.16213046
     22      I     0.79960622     5.47513165    -0.71957296
 
Total System Charge             0.00000
 
 *** GOStep20 ***

 Energy gradients wrt nuclear displacements
 ==========================================

     Atom      Cartesian (a.u./angstrom)
                 X         Y         Z
 ----------------------------------------
     1 H    -0.000187 -0.000275 -0.000086
     2 C     0.000347  0.000367  0.000309
     3 C    -0.000653 -0.000110 -0.000326
     4 C     0.000076  0.001522 -0.000552
     5 O     0.001158  0.000245  0.000509
     6 H    -0.000545 -0.000259  0.000100
     7 C    -0.000020  0.000016  0.000277
     8 C    -0.000304  0.001517 -0.001274
     9 C     0.000643 -0.001318  0.000343
    10 C     0.000096 -0.000535  0.000805
    11 H    -0.000012  0.000069 -0.000157
    12 H     0.000007  0.000093  0.000005
    13 H    -0.000031  0.000060 -0.000024
    14 H     0.000040 -0.000017 -0.000013
    15 H     0.000047  0.000095 -0.000113
    16 H     0.000067  0.000099  0.000074
    17 H    -0.000152 -0.000047  0.000139
    18 H     0.000003 -0.000086 -0.000053
    19 H    -0.000040  0.000066 -0.000037
    20 H    -0.000375  0.000057 -0.000092
    21 I    -0.000734  0.000462 -0.000165
    22 I     0.000568 -0.002021  0.000329
 ----------------------------------------
 Mulliken charges used for AMS results%charges...

 dE(predicted):    -0.51300E-04, dE(actual):    -0.74783E-04, Trust radius:    0.800000, all in a.u.
 
----------------------------------------------------------------------
Geometry Convergence after Step  20       (Hartree/Angstrom,Angstrom)
----------------------------------------------------------------------
current energy                               -4.11777657 Hartree
energy change                      -0.00007478     0.00022000    T
constrained gradient max            0.00202676     0.00100000    F
constrained gradient rms            0.00053052     0.00066667    T
gradient max                        0.00202676
gradient rms                        0.00053052
cart. step max                      0.06279542     0.01000000    F
cart. step rms                      0.01625820     0.00666667    F
 
 
--------
Geometry
--------
Formula: C7H12I2O
Atoms
  Index Symbol   x (angstrom)   y (angstrom)   z (angstrom)
      1      H    -0.05877751     0.03541460    -0.28173192
      2      C    -0.13350062    -2.09446182    -0.09655687
      3      C     0.46355199    -0.88765758    -0.04957295
      4      C     1.86940366    -0.77441075     0.32529624
      5      O     2.51457407     0.26637678     0.39914504
      6      H     0.48156050    -2.96231913     0.15633913
      7      C    -1.50160516    -3.34295042    -1.72155412
      8      C    -1.55583115    -2.43523008    -0.46407646
      9      C    -2.42032779    -1.19802458    -0.75338365
     10      C    -2.16663060    -3.23827168     0.71319207
     11      H    -2.21710491    -2.63073796     1.62187284
     12      H    -2.51161864    -3.66852514    -1.99043887
     13      H    -0.89590836    -4.23766491    -1.54631305
     14      H    -1.07719386    -2.80804925    -2.57627961
     15      H    -3.43843648    -1.50403153    -1.01143679
     16      H    -2.02989141    -0.61651722    -1.59367404
     17      H    -2.48360592    -0.53758169     0.11658803
     18      H    -3.18296043    -3.55803876     0.46241886
     19      H    -1.57832363    -4.13398761     0.93617254
     20      H     2.37500060    -1.73795324     0.56152640
     21      I     1.63523071     2.98302965    -0.18525800
     22      I     0.86240164     5.52604883    -0.74559744
 
Total System Charge             0.00000
 
 *** GOStep21 ***

 Energy gradients wrt nuclear displacements
 ==========================================

     Atom      Cartesian (a.u./angstrom)
                 X         Y         Z
 ----------------------------------------
     1 H    -0.000138 -0.000088 -0.000016
     2 C     0.000318  0.000220  0.000112
     3 C    -0.000090 -0.000117 -0.000376
     4 C    -0.000269  0.000701 -0.000442
     5 O     0.000702  0.000428  0.000247
     6 H    -0.000219 -0.000043  0.000217
     7 C     0.000208 -0.000036 -0.000269
     8 C    -0.000385  0.000655  0.000133
     9 C     0.000393 -0.000683  0.000267
    10 C    -0.000184 -0.000377 -0.000016
    11 H    -0.000032  0.000030 -0.000022
    12 H    -0.000036  0.000027  0.000081
    13 H    -0.000001  0.000041 -0.000036
    14 H     0.000019  0.000005  0.000043
    15 H     0.000024  0.000049 -0.000159
    16 H    -0.000136  0.000074  0.000009
    17 H     0.000093  0.000024  0.000071
    18 H    -0.000002 -0.000009  0.000084
    19 H     0.000005  0.000057 -0.000074
    20 H    -0.000197  0.000089  0.000004
    21 I    -0.000441  0.000374 -0.000080
    22 I     0.000370 -0.001419  0.000225
 ----------------------------------------
 Mulliken charges used for AMS results%charges...

[...]
     2     C       0.000974  -0.001405   0.000392
     3     C       0.002478   0.001288   0.000536
     4     C      -0.044182   0.067443  -0.017955
     5     O       0.001888   0.002477   0.000272
     6     H      -0.016363   0.011635  -0.005413
     7     C      -0.000094  -0.000073  -0.000042
     8     C       0.000006  -0.000599   0.000058
     9     C       0.000020  -0.000072   0.000010
    10     C      -0.000114  -0.000066   0.000001
    11     H       0.000028  -0.000730  -0.001126
    12     H       0.001240  -0.000196  -0.000269
    13     H      -0.001262   0.001652  -0.000326
    14     H      -0.000534  -0.000514   0.001105
    15     H       0.000435  -0.000476   0.000151
    16     H       0.000551   0.000774  -0.000717
    17     H       0.000149   0.000932   0.000761
    18     H       0.000995  -0.000053   0.000886
    19     H      -0.001164   0.001580  -0.000609
    20     H       0.478281  -0.849505   0.205413
    21     I       0.000003  -0.000052   0.000005
    22     I      -0.000001   0.000016  -0.000002
 
 Mode:    56      Frequency (cm-1):     2993.3893     Intensity (km/mol):       21.4076
 Index  Atom      ---- Displacements (x/y/z) ----
     1     H      -0.000123   0.000104   0.000157
     2     C       0.000037  -0.000111   0.000021
     3     C       0.000034  -0.000003  -0.000015
     4     C      -0.000002   0.000002  -0.000045
     5     O       0.000001   0.000004   0.000008
     6     H      -0.000865   0.001235  -0.000116
     7     C       0.000847   0.024313   0.025900
     8     C       0.000226  -0.000100  -0.000785
     9     C      -0.000127   0.000455  -0.001287
    10     C      -0.013450  -0.017999   0.023880
    11     H       0.008596  -0.227853  -0.285476
    12     H      -0.407772  -0.120974  -0.088907
    13     H       0.241111  -0.351621   0.098868
    14     H       0.156388   0.187428  -0.313248
    15     H       0.008134   0.002735   0.001696
    16     H      -0.005886  -0.009099   0.013829
    17     H      -0.000809   0.001031  -0.000398
    18     H       0.373337   0.113284   0.095577
    19     H      -0.224114   0.325683  -0.089797
    20     H       0.000029  -0.000083   0.000105
    21     I       0.000000  -0.000000   0.000000
    22     I       0.000000   0.000000  -0.000000
 
 Mode:    57      Frequency (cm-1):     2995.8475     Intensity (km/mol):       28.7573
 Index  Atom      ---- Displacements (x/y/z) ----
     1     H       0.002895  -0.003962   0.001145
     2     C      -0.000781   0.002191  -0.000416
     3     C      -0.000702   0.000214  -0.000207
     4     C       0.000296  -0.000157   0.000091
     5     O      -0.000067  -0.000058  -0.000012
     6     H       0.016346  -0.024283   0.006656
     7     C      -0.000885  -0.018593  -0.022190
     8     C      -0.000435   0.000562  -0.000202
     9     C       0.013085  -0.017826   0.005155
    10     C      -0.013733  -0.015986   0.023836
    11     H       0.009314  -0.225331  -0.285752
    12     H       0.331293   0.099162   0.072967
    13     H      -0.188853   0.275250  -0.077460
    14     H      -0.130871  -0.155151   0.263374
    15     H      -0.248226  -0.084332  -0.058679
    16     H       0.104806   0.126550  -0.212601
    17     H      -0.008803   0.166652   0.211157
    18     H       0.361489   0.110343   0.091585
    19     H      -0.209288   0.303974  -0.083817
    20     H      -0.001418   0.002401  -0.000595
    21     I      -0.000001   0.000003  -0.000000
    22     I       0.000000  -0.000001   0.000000
 
 Mode:    58      Frequency (cm-1):     3004.2548     Intensity (km/mol):        9.9756
 Index  Atom      ---- Displacements (x/y/z) ----
     1     H       0.006932  -0.011430   0.002911
     2     C       0.001012  -0.003682   0.000619
     3     C      -0.000126   0.001306  -0.000158
     4     C      -0.000159   0.000087  -0.000050
     5     O       0.000079   0.000080   0.000014
     6     H      -0.023346   0.036759  -0.009696
     7     C      -0.000177   0.011256   0.011814
     8     C      -0.000224   0.000541  -0.000107
     9     C       0.023896  -0.035918   0.009849
    10     C       0.006340   0.009179  -0.012387
    11     H      -0.005140   0.110438   0.141212
    12     H      -0.176040  -0.052806  -0.039408
    13     H       0.108712  -0.160105   0.042454
    14     H       0.068875   0.081397  -0.139694
    15     H      -0.454729  -0.152776  -0.107631
    16     H       0.198725   0.247293  -0.410767
    17     H      -0.019944   0.323304   0.404350
    18     H      -0.179191  -0.054619  -0.044730
    19     H       0.110478  -0.163335   0.046816
    20     H      -0.000502   0.000077  -0.000139
    21     I       0.000001  -0.000005   0.000001
    22     I      -0.000001   0.000002  -0.000000
 
 Mode:    59      Frequency (cm-1):     3067.4464     Intensity (km/mol):        3.4017
 Index  Atom      ---- Displacements (x/y/z) ----
     1     H      -0.009749   0.016366  -0.004139
     2     C      -0.042361   0.064645  -0.017383
     3     C      -0.001382  -0.003931   0.000010
     4     C      -0.001807   0.000467  -0.000520
     5     O       0.000454   0.000343   0.000087
     6     H       0.522141  -0.742080   0.209085
     7     C       0.016940  -0.011798   0.011883
     8     C       0.000867   0.001083   0.000131
     9     C      -0.003939  -0.005585  -0.000486
    10     C       0.017977  -0.011728  -0.000030
    11     H       0.001344   0.050017   0.068449
    12     H      -0.141685  -0.050169  -0.031785
    13     H      -0.100795   0.149586  -0.039454
    14     H       0.039705   0.039014  -0.070345
    15     H       0.036408   0.012698   0.008617
    16     H       0.016118   0.022025  -0.036711
    17     H      -0.003207   0.028289   0.034826
    18     H      -0.126894  -0.045541  -0.030171
    19     H      -0.089505   0.133101  -0.038038
    20     H       0.012212  -0.013399   0.004461
    21     I      -0.000001  -0.000003  -0.000000
    22     I       0.000000   0.000002  -0.000000
 
 Mode:    60      Frequency (cm-1):     3070.4989     Intensity (km/mol):        0.0520
 Index  Atom      ---- Displacements (x/y/z) ----
     1     H      -0.000663   0.000840   0.000383
     2     C      -0.001248   0.001892  -0.000499
     3     C       0.000013  -0.000152  -0.000111
     4     C      -0.000044   0.000016  -0.000060
     5     O       0.000009   0.000010   0.000015
     6     H       0.015210  -0.021696   0.007031
     7     C      -0.058780   0.024638  -0.020439
     8     C      -0.000032   0.000071  -0.000026
     9     C       0.000592   0.000387   0.000109
    10     C       0.057437  -0.024215   0.014893
    11     H       0.013857   0.022956   0.041764
    12     H       0.453610   0.150536   0.101220
    13     H       0.280911  -0.429805   0.111693
    14     H      -0.033214  -0.014243   0.030446
    15     H      -0.005759  -0.002036  -0.002583
    16     H      -0.002088  -0.002761   0.003342
    17     H       0.000842  -0.000012  -0.001060
    18     H      -0.431323  -0.145164  -0.105348
    19     H      -0.267380   0.410285  -0.114300
    20     H       0.000395  -0.000469   0.000210
    21     I      -0.000000   0.000000   0.000000
    22     I       0.000000   0.000000  -0.000000
 
 Mode:    61      Frequency (cm-1):     3074.3542     Intensity (km/mol):       11.0409
 Index  Atom      ---- Displacements (x/y/z) ----
     1     H      -0.012058   0.017867  -0.004894
     2     C      -0.010282   0.015510  -0.004200
     3     C       0.000574  -0.002087   0.000351
     4     C      -0.000522   0.000071  -0.000142
     5     O       0.000114   0.000097   0.000021
     6     H       0.127510  -0.178503   0.050820
     7     C      -0.049708  -0.005880   0.005810
     8     C      -0.000791   0.000810  -0.000279
     9     C       0.044980   0.032991   0.005662
    10     C      -0.042500  -0.002531  -0.025117
    11     H      -0.015777   0.122246   0.153099
    12     H       0.397741   0.124204   0.095615
    13     H       0.104425  -0.175984   0.046533
    14     H       0.092880   0.120416  -0.210563
    15     H      -0.462584  -0.145992  -0.111219
    16     H      -0.090139  -0.121358   0.214641
    17     H       0.021019  -0.129997  -0.169388
    18     H       0.391200   0.123593   0.091136
    19     H       0.133793  -0.217060   0.055837
    20     H       0.003771  -0.004056   0.001366
    21     I      -0.000000   0.000001  -0.000000
    22     I       0.000000  -0.000000   0.000000
 
 Mode:    62      Frequency (cm-1):     3076.1748     Intensity (km/mol):        2.8553
 Index  Atom      ---- Displacements (x/y/z) ----
     1     H      -0.001062   0.001584  -0.000470
     2     C      -0.002125   0.003217  -0.000898
     3     C      -0.000025  -0.000265   0.000073
     4     C      -0.000090   0.000030  -0.000044
     5     O       0.000020   0.000013   0.000002
     6     H       0.026879  -0.037341   0.010084
     7     C       0.023280   0.043834  -0.036226
     8     C      -0.000099   0.000260  -0.000358
     9     C      -0.010548   0.004431   0.042169
    10     C      -0.015723  -0.039564  -0.033774
    11     H      -0.018818   0.290608   0.380114
    12     H      -0.220924  -0.059027  -0.059903
    13     H       0.159084  -0.215747   0.051923
    14     H      -0.215231  -0.247858   0.441060
    15     H      -0.009235  -0.001165   0.008879
    16     H       0.124454   0.162166  -0.253882
    17     H       0.011210  -0.214904  -0.256167
    18     H       0.284339   0.080322   0.062584
    19     H      -0.078242   0.099710  -0.038551
    20     H       0.000683  -0.000787   0.000297
    21     I      -0.000000   0.000000  -0.000000
    22     I       0.000000  -0.000000   0.000000
 
 Mode:    63      Frequency (cm-1):     3077.7557     Intensity (km/mol):       39.3240
 Index  Atom      ---- Displacements (x/y/z) ----
     1     H       0.001871  -0.002889   0.000778
     2     C       0.011870  -0.017960   0.004852
     3     C       0.000401   0.001007   0.000012
     4     C       0.000458  -0.000236   0.000141
     5     O      -0.000090  -0.000038  -0.000020
     6     H      -0.150526   0.209169  -0.059866
     7     C       0.020004  -0.037893   0.030701
     8     C       0.001453  -0.001792   0.000550
     9     C       0.024960   0.021182   0.010959
    10     C       0.030609  -0.052256  -0.016364
    11     H      -0.005884   0.257195   0.344666
    12     H      -0.125993  -0.050739  -0.022531
    13     H      -0.249406   0.365914  -0.090500
    14     H       0.132844   0.140661  -0.252877
    15     H      -0.288090  -0.089057  -0.067418
    16     H      -0.030718  -0.041394   0.080654
    17     H       0.014497  -0.114615  -0.146294
    18     H      -0.083818  -0.042192  -0.025742
    19     H      -0.278567   0.411687  -0.126580
    20     H      -0.003546   0.004216  -0.001314
    21     I       0.000001  -0.000002   0.000000
    22     I      -0.000000   0.000001  -0.000000
 
 Mode:    64      Frequency (cm-1):     3081.0862     Intensity (km/mol):       34.6169
 Index  Atom      ---- Displacements (x/y/z) ----
     1     H      -0.003483   0.005278  -0.001679
     2     C      -0.000680   0.000943  -0.000121
     3     C       0.000155  -0.000599   0.000271
     4     C      -0.000091  -0.000045  -0.000053
     5     O       0.000027   0.000035   0.000017
     6     H       0.006547  -0.009479   0.002140
     7     C       0.028235   0.027893  -0.023275
     8     C       0.001307   0.000427  -0.001601
     9     C       0.040159   0.009250  -0.067503
    10     C       0.004455  -0.010416  -0.004596
    11     H      -0.002222   0.061511   0.084058
    12     H      -0.245145  -0.070831  -0.063989
    13     H       0.063379  -0.078293   0.017780
    14     H      -0.157821  -0.183188   0.328848
    15     H      -0.218113  -0.070603  -0.071187
    16     H      -0.252734  -0.336183   0.535856
    17     H      -0.010729   0.295019   0.343843
    18     H      -0.010583  -0.007128  -0.002421
    19     H      -0.045628   0.066833  -0.020090
    20     H       0.000432  -0.000296   0.000040
    21     I       0.000000  -0.000001   0.000000
    22     I      -0.000000   0.000001   0.000000
 
 Mode:    65      Frequency (cm-1):     3081.5640     Intensity (km/mol):       47.8223
 Index  Atom      ---- Displacements (x/y/z) ----
     1     H      -0.007753   0.011484  -0.003018
     2     C      -0.001741   0.002546  -0.000769
     3     C       0.000429  -0.001360   0.000164
     4     C      -0.000234  -0.000079  -0.000039
     5     O       0.000070   0.000074   0.000006
     6     H       0.018395  -0.026677   0.007656
     7     C       0.024454   0.012830  -0.010331
     8     C       0.001581   0.001458   0.001145
     9     C       0.037779   0.038261   0.040493
    10     C       0.021776   0.037051   0.035111
    11     H       0.019779  -0.286219  -0.375807
    12     H      -0.215432  -0.066946  -0.055484
    13     H       0.001940   0.008310  -0.004164
    14     H      -0.082423  -0.100114   0.176881
    15     H      -0.492728  -0.151045  -0.109597
    16     H       0.007680   0.006398   0.012711
    17     H       0.031622  -0.316046  -0.388242
    18     H      -0.336066  -0.097710  -0.072289
    19     H       0.052105  -0.061657   0.027683
    20     H       0.001016  -0.000803   0.000390
    21     I       0.000001  -0.000003   0.000000
    22     I      -0.000000   0.000002  -0.000000
 
 Mode:    66      Frequency (cm-1):     3157.0481     Intensity (km/mol):        1.0295
 Index  Atom      ---- Displacements (x/y/z) ----
     1     H      -0.487785   0.842213  -0.208737
     2     C       0.003528   0.002458   0.000698
     3     C       0.040051  -0.074653   0.017671
     4     C      -0.001728  -0.001855  -0.000284
     5     O       0.000348   0.000522   0.000043
     6     H      -0.013948   0.024177  -0.006010
     7     C       0.000221  -0.000227   0.000165
     8     C       0.000305  -0.000241   0.000105
     9     C      -0.001027  -0.001577  -0.000098
    10     C       0.000265  -0.000247   0.000009
    11     H      -0.000000   0.000695   0.001080
    12     H      -0.002401  -0.000890  -0.000705
    13     H      -0.001697   0.002655  -0.000674
    14     H       0.000559   0.000479  -0.001040
    15     H       0.008710   0.004046   0.001957
    16     H       0.006810   0.008433  -0.013764
    17     H      -0.000518   0.010714   0.013275
    18     H      -0.002465  -0.000863  -0.000422
    19     H      -0.001720   0.002699  -0.000752
    20     H      -0.006214   0.007808  -0.002369
    21     I       0.000001  -0.000009   0.000001
    22     I      -0.000003  -0.000003  -0.000001

PES point character: Geometry corresponds to a local minimum on the PES.




 ============================
 Statistical Thermal Analysis  ***  ideal gas assumed  ***
 ============================
  
 Pressure:                  1.000000 atm.
 Temperature:             298.150000 K



 Moments of Inertia [amu*bohr^2] and principal axis
 ==================================================

        1653.4176      13454.7065      14707.9419
 ------------------------------------------------
           0.2615         -0.9338         -0.2443
           0.9652          0.2503          0.0764
          -0.0102         -0.2558          0.9667


 The rotational contribution to the molecular entropy includes
 a term, dependent on the symmetry number sigma. The results 
 reported below were computed using sigma = 1, determined from
 the point group symmetry of the input geometry (NOSYM). 
 If this is not the correct symmetry, try symmetrizing the molecule before
 running the calculation (note: linear molecules should be aligned along one
 of the Cartesian axes).
 Contributions from frequencies below 20 1/cm are not included in vibrational sums.
 Their contributions, if any, are reported separately.


     Temp                                                        Transl      Rotat     Vibrat     Total
     ----                                                        ------      -----     ------     -----

     298.15   Entropy (cal/mol-K):                               43.585     34.147     41.451    119.182
              Nuclear Internal Energy (kcal/mol):                 0.889      0.889    113.984    115.761
              Constant Volume Heat Capacity (cal/mol-K):          2.981      2.981     37.510     43.472
          (c) Constant Volume Heat Capacity (cal/mol-K):          2.981      2.981     35.688     41.650

 Contributions from frequencies below 20 1/cm
 Frequency (1/cm):                                   18.764    18.290
 Entropy (cal/mol-K):                                 6.761     6.812
 Nuclear Internal Energy (kcal/mol):                  0.593     0.593
 Constant Volume Heat Capacity (cal/mol-K):           1.986     1.986

       Summary of energy terms
                                                   hartree              eV         kcal/mol           kJ/mol
                                      --------------------     -----------       ----------      -----------
      Energy from Engine:               -4.117907454041927       -112.0540         -2584.03        -10811.56
      Nuclear Internal Energy:           0.184477509764193          5.0199           115.76           484.35
  (c) Nuclear Internal Energy:           0.183491548676876          4.9931           115.14           481.76
      Internal Energy U:                -3.933429944277734       -107.0341         -2468.26        -10327.22
      pV/n = RT:                         0.000944186013486          0.0257             0.59             2.48
      Enthalpy H:                       -3.932485758264248       -107.0084         -2467.67        -10324.74
      -T*S:                             -0.056627434678630         -1.5409           -35.53          -148.68
  (c) -T*S:                             -0.058929169447100         -1.6035           -36.98          -154.72
      Gibbs free energy:                -3.989113192942878       -108.5493         -2503.21        -10473.42
 
 
 
  (c) The properties marked with this symbol have been corrected using 'low vibrational frequency free rotor
      interpolation corrections'. For those terms all positive frequencies are used (also ones below 20 1/cm),
      but the contribution to the partition function of small vibrational frequencies is modified as described
      in the following paper:
      S. Grimme, 'Supramolecular Binding Thermodynamics by Dispersion-Corrected Density Functional Theory'
      (Chem. Eur. J. 2012, 18, 9955-9964)
      Configuration: Dampener Frequency          :   100.000 1/cm
                     Dampener Alpha              :     4.000
                     Averaging Moment of Inertia : 1.000E-44 kg m2

--------------
Atomic charges
--------------
  Index   Atom    Charge
      1      H   -0.1793
      2      C    0.3821
      3      C    0.1692
      4      C    0.6704
      5      O   -0.5100
      6      H   -0.2067
      7      C    0.7233
      8      C   -0.0426
      9      C    0.7328
     10      C    0.7231
     11      H   -0.2285
     12      H   -0.2271
     13      H   -0.2423
     14      H   -0.2286
     15      H   -0.2525
     16      H   -0.2371
     17      H   -0.2368
     18      H   -0.2270
     19      H   -0.2423
     20      H   -0.2797
     21      I    0.0306
     22      I   -0.0910


Dipole moment vector    (Debye):    -3.07629751   -5.68380321   -0.31768948
              magnitude (Debye):     6.47071495


Final PES point is a local minimum. Geometry optimization successful!


AMS application finished. Exiting.
NORMAL TERMINATION
     Total cpu time:   10882.97
  Total system time:     210.16
 Total elapsed time:   22322.13
 WARNING: total elapsed time is much higher than the (CPU+system) time. 
 Make sure the machine is not oversubscribed and has enough memory, SCM_TMPDIR p
 oints to a fast file system, and the network is fast enough.
