

 Parallel Execution: Process Information
 ==============================================================================
 Rank   Node Name                              NodeID   MyNodeRank  NodeMaster
    0   node109                                   0          0          0
    1   node109                                   0          1         -1
    2   node109                                   0          2         -1
    3   node109                                   0          3         -1
 ==============================================================================


May use up to 122928MB of RAM as shared memory on node 0

 *******************************************************************************
 *                                                                             *
 *  --------------------------------                                           *
 *   Amsterdam Modeling Suite (AMS)              2021.102                      *
 *  --------------------------------                                           *
 *                                               r95042 2021-06-07             *
 *                                                                             *
 *                                                                             *
 *                              =================                              *
 *                              |               |                              *
 *                              |     A M S     |                              *
 *                              |               |                              *
 *                              =================                              *
 *                                                                             *
 *                                                                             *
 *   Online information and documentation:  https://www.scm.com/support/       *
 *   E-mail:  support@scm.com   info@scm.com                                   *
 *                                                                             *
 *   Scientific publications using AMS results must be properly referenced     *
 *   See the User Manuals (or the web site) for recommended citations          *
 *   The terms and conditions of the End User License Agreement apply to       *
 *   the use of AMS, https://www.scm.com/license-terms/                        *
 *                                                                             *
 **********************  x86_64_linux_intel / intelmpi  ************************
 
 Licensed to: VU/FEW (+ SARA) / ALGEMEEN / Amsterdam / THE NETHERLANDS
 SCM User ID: u7668
  
 AMS 2021.102  RunTime: Jan27-2022 12:30:37  ShM Nodes: 1  Procs: 4

 AMS jobname: 1.achiral_catalyst.H_Ph_ZnCl2.Rsub
 AMS jobid  : 514343396

 Start   directory: /scistor/tc/yhk800/MasterProject/calculations/achiral_catalyst_H_Ph_ZnCl2/1.achiral_catalyst.H_Ph_ZnCl2.Rsub/
 Results directory: /scistor/tc/yhk800/MasterProject/calculations/achiral_catalyst_H_Ph_ZnCl2/1.achiral_catalyst.H_Ph_ZnCl2.Rsub/
 Scratch directory: /scratch/5292/amstmp_1.achiral_catalyst.H_Ph_ZnCl2.Rsub_kid0.514343396/


 Communication costs MPI_COMM_WORLD:      0.975 usec per message,   0.0107 usec per 8-byte item
 Communication costs for intra-node:      1.010 usec per message,   0.0076 usec per 8-byte item

 RNG seed: -1563591223 -1280425053 -586019518 1091083873 -1849286759 844976712 1598800856 -1275643624



                      ************************************************************************
                      *  ADF 2021.102  RunTime: Jan27-2022 12:30:38  ShM Nodes: 1  Procs: 4  *
                      ************************************************************************
  
       ***************************
       *  GEOMETRY OPTIMIZATION  *
       ***************************

Optimization Method                    Quasi Newton
Optimization Coordinates               Delocalized Coordinates
Optimize lattice                       F
 
 ------------------------------------------------------
 Convergence criteria (Hartree,Angstrom)
 ------------------------------------------------------
 Maximum gradient               0.001000000000
 Maximum rms gradient           0.000666666667
 Maximum step allowed           0.010000000000
 Maximum rms step allowed       0.006666666667
 Maximum energy change allowe   0.000180000000
 Maximum stress energy allowe   0.000500000000
 
Initial model Hessian                  Automatic Hessian
 
------------------------------------
Quasi-Newton Optimizer Parameters
------------------------------------
Hessian Update Method                  BFGS
Maximum number of steps                  250
First GDIIS cycle                          0
Maximum GDIIS vectors                      0
Trust radius (bohr)                        0.200000
Trust radius varies                        T
Constraints converged at all steps         T
Use projector                              T
 
 Rigid motions settings for: old optimizer
 Atomic rotations (x,y,z):     T T T
 Atomic translations (x,y,z):  T T T
 Tolerance:                   1.000000000000000E-006
 
--------
Geometry
--------
Formula: C9H8O
Atoms
  Index Symbol   x (angstrom)   y (angstrom)   z (angstrom)
      1      H     0.09039378    -1.80988465    -0.51555853
      2      C    -0.90781845    -0.00771283    -0.04943451
      3      C     0.18266548    -0.75219647    -0.26512258
      4      C     1.55928918    -0.22013974    -0.18291419
      5      O     2.58397592    -0.85270545    -0.38366642
      6      H    -0.82431619     1.04491294     0.20242594
      7      C    -4.89175452    -1.70930219    -0.32578719
      8      C    -4.11637706    -1.92449989     0.82040558
      9      C    -2.83108777    -1.37553662     0.90956191
     10      C    -2.32117593    -0.61137564    -0.14747452
     11      C    -3.09655338    -0.39617794    -1.29366728
     12      C    -4.38184267    -0.94514121    -1.38282362
     13      H    -4.50657524    -2.50925630     1.62927811
     14      H    -2.23774822    -1.54021165     1.78665926
     15      H    -2.70635521     0.18857847    -2.10253982
     16      H    -4.97518223    -0.78046618    -2.25992097
     17      H    -5.87529225    -2.12938356    -0.39401200
     18      H     1.61846764     0.81547669     0.07956726
 
Total System Charge             0.00000
 
 
----------------
ADF Engine Input
----------------
 
 NumericalQuality VeryGood
 SCF
 Converge 1.0e-6
 Iterations 99
 End
 SYMMETRY NOSYM
 XC
 GGA OLYP
 End
 basis
 core None
 type TZ2P
 End
 

 Title: *** (NO TITLE) ***

 Using automatic Hessian for delocalized coordinates.
 *** GOStep1 ***

 Energy gradients wrt nuclear displacements
 ==========================================

     Atom      Cartesian (a.u./angstrom)
                 X         Y         Z
 ----------------------------------------
     1 H    -0.000794 -0.001816  0.000281
     2 C     0.051211  0.029502  0.005214
     3 C    -0.020288  0.014243  0.002016
     4 C     0.005202  0.039661  0.009615
     5 O     0.007370  0.005864  0.001140
     6 H    -0.000480 -0.007829  0.000361
     7 C    -0.024035 -0.010106 -0.002198
     8 C    -0.009335 -0.016176  0.023747
     9 C     0.018909  0.000544  0.018275
    10 C    -0.044410 -0.025138 -0.005220
    11 C     0.016938  0.011986 -0.017271
    12 C    -0.016311  0.005356 -0.024637
    13 H     0.006735  0.011117 -0.015777
    14 H    -0.010955  0.002700 -0.015838
    15 H    -0.007248 -0.010768  0.015067
    16 H     0.010561 -0.003162  0.017225
    17 H     0.018782  0.007940  0.001281
    18 H    -0.001854 -0.053920 -0.013281
 ----------------------------------------
 Mulliken charges used for AMS results%charges...
 
----------------------------------------------------------------------
Geometry Convergence after Step   1       (Hartree/Angstrom,Angstrom)
----------------------------------------------------------------------
current energy                               -4.10575044 Hartree
energy change                      -4.10575044     0.00018000    F
constrained gradient max            0.05392037     0.00100000    F
constrained gradient rms            0.01808021     0.00066667    F
gradient max                        0.05392037
gradient rms                        0.01808021
cart. step max                      0.09209044     0.01000000    F
cart. step rms                      0.03032046     0.00666667    F
 
 
--------
Geometry
--------
Formula: C9H8O
Atoms
  Index Symbol   x (angstrom)   y (angstrom)   z (angstrom)
      1      H     0.14646325    -1.86220826    -0.45113871
      2      C    -0.90958322    -0.05663413    -0.08245475
      3      C     0.20157619    -0.79363767    -0.24401476
      4      C     1.54947104    -0.20138476    -0.16323643
      5      O     2.58456360    -0.82691965    -0.31930055
      6      H    -0.82966081     1.01295502     0.11033550
      7      C    -4.89654951    -1.69059239    -0.31789715
      8      C    -4.11019936    -1.92404365     0.81170858
      9      C    -2.81985096    -1.39473848     0.89111999
     10      C    -2.30883316    -0.62774582    -0.16251180
     11      C    -3.10682721    -0.37838074    -1.28549176
     12      C    -4.39166238    -0.91963186    -1.36690339
     13      H    -4.49795823    -2.52129852     1.62756598
     14      H    -2.21185066    -1.58099242     1.76700054
     15      H    -2.71904035     0.21717781    -2.10218120
     16      H    -4.99607270    -0.74103154    -2.24752165
     17      H    -5.89474170    -2.10581988    -0.38033324
     18      H     1.57346904     0.87990472     0.04023123
 
Total System Charge             0.00000
 
 *** GOStep2 ***

 Energy gradients wrt nuclear displacements
 ==========================================

     Atom      Cartesian (a.u./angstrom)
                 X         Y         Z
 ----------------------------------------
     1 H    -0.001004 -0.001340 -0.000623
     2 C     0.030575  0.018068  0.003675
     3 C    -0.005566 -0.000911 -0.002844
     4 C     0.002381  0.017981  0.005900
     5 O     0.000202 -0.000105 -0.001030
     6 H    -0.002100 -0.003611  0.001641
     7 C    -0.006033 -0.002139 -0.000860
     8 C    -0.002562 -0.004354  0.005932
     9 C     0.007035  0.004183  0.005376
    10 C    -0.030627 -0.016656 -0.004307
    11 C     0.007529  0.004575 -0.003087
    12 C    -0.004788  0.000187 -0.006168
    13 H     0.001765  0.002861 -0.004802
    14 H    -0.003313  0.000813 -0.004169
    15 H    -0.002024 -0.003262  0.004204
    16 H     0.002990 -0.001504  0.004798
    17 H     0.005087  0.002230  0.000393
    18 H     0.000453 -0.017017 -0.004029
 ----------------------------------------
 Mulliken charges used for AMS results%charges...

 dE(predicted):    -0.28373E-02, dE(actual):    -0.39778E-02, Trust radius:    0.400000, all in a.u.
 
----------------------------------------------------------------------
Geometry Convergence after Step   2       (Hartree/Angstrom,Angstrom)
----------------------------------------------------------------------
current energy                               -4.10972826 Hartree
energy change                      -0.00397783     0.00018000    F
constrained gradient max            0.03062728     0.00100000    F
constrained gradient rms            0.00833379     0.00066667    F
gradient max                        0.03062728
gradient rms                        0.00833379
cart. step max                      0.21179454     0.01000000    F
cart. step rms                      0.06775349     0.00666667    F
 
 
--------
Geometry
--------
Formula: C9H8O
Atoms
  Index Symbol   x (angstrom)   y (angstrom)   z (angstrom)
      1      H     0.21122918    -1.91810829    -0.24348037
      2      C    -0.91292287    -0.10830744    -0.16291147
      3      C     0.22213632    -0.83126247    -0.18873704
      4      C     1.53905160    -0.17779891    -0.14448630
      5      O     2.59764511    -0.78155913    -0.12548199
      6      H    -0.83613887     0.98116759    -0.10145904
      7      C    -4.91010579    -1.65818267    -0.29587780
      8      C    -4.08321623    -1.94900737     0.78716993
      9      C    -2.77904181    -1.45707832     0.82919476
     10      C    -2.28817503    -0.65670019    -0.21150001
     11      C    -3.12756755    -0.36647094    -1.29651078
     12      C    -4.42787225    -0.86580887    -1.33678079
     13      H    -4.45485697    -2.56122565     1.61025873
     14      H    -2.13906565    -1.68569929     1.68137131
     15      H    -2.76173950     0.25816895    -2.11217924
     16      H    -5.06849354    -0.63249341    -2.18857972
     17      H    -5.92905200    -2.04626961    -0.32836663
     18      H     1.51089874     0.94161380    -0.04666712
 
Total System Charge             0.00000
 
 *** GOStep3 ***

 Energy gradients wrt nuclear displacements
 ==========================================

     Atom      Cartesian (a.u./angstrom)
                 X         Y         Z
 ----------------------------------------
     1 H    -0.000448  0.000126  0.001252
     2 C     0.005724  0.002141  0.001279
     3 C     0.000922 -0.005926  0.000513
     4 C     0.000839  0.000574 -0.017894
     5 O    -0.002148 -0.002854  0.005806
     6 H    -0.002031  0.000332  0.005572
     7 C     0.005877  0.002300 -0.000200
     8 C     0.000982  0.003801 -0.005515
     9 C    -0.001247  0.004802 -0.003339
    10 C    -0.008292 -0.000588 -0.002654
    11 C     0.002943 -0.008160  0.001703
    12 C     0.001963 -0.001346  0.006671
    13 H    -0.001665 -0.002084  0.003309
    14 H     0.002321 -0.001308  0.003151
    15 H     0.001073  0.002501 -0.002804
    16 H    -0.002730  0.001254 -0.003051
    17 H    -0.003962 -0.001840 -0.000256
    18 H    -0.000122  0.006274  0.006459
 ----------------------------------------
 Mulliken charges used for AMS results%charges...

 dE(predicted):    -0.17313E-02, dE(actual):    -0.17884E-02, Trust radius:    0.800000, all in a.u.
 
----------------------------------------------------------------------
Geometry Convergence after Step   3       (Hartree/Angstrom,Angstrom)
----------------------------------------------------------------------
current energy                               -4.11151667 Hartree
energy change                      -0.00178841     0.00018000    F
constrained gradient max            0.01789811     0.00100000    F
constrained gradient rms            0.00424881     0.00066667    F
gradient max                        0.01789811
gradient rms                        0.00424881
cart. step max                      0.20900156     0.01000000    F
cart. step rms                      0.05899096     0.00666667    F
 
 
--------
Geometry
--------
Formula: C9H8O
Atoms
  Index Symbol   x (angstrom)   y (angstrom)   z (angstrom)
      1      H     0.24426873    -1.93676167    -0.03447882
      2      C    -0.91440811    -0.14960765    -0.21430744
      3      C     0.23126389    -0.85228087    -0.11015273
      4      C     1.52819231    -0.16482469    -0.08637840
      5      O     2.60171608    -0.73607822    -0.01028149
      6      H    -0.82994150     0.94136008    -0.28869529
      7      C    -4.91684619    -1.63826907    -0.28544350
      8      C    -4.06489166    -1.97644798     0.76208776
      9      C    -2.75362742    -1.50701768     0.78337297
     10      C    -2.27380474    -0.67472938    -0.24010610
     11      C    -3.14403126    -0.33970644    -1.29037860
     12      C    -4.44992317    -0.81930456    -1.31152079
     13      H    -4.42344335    -2.61054959     1.58076214
     14      H    -2.09302843    -1.77299389     1.61438858
     15      H    -2.79218777     0.31053924    -2.09849488
     16      H    -5.11116888    -0.54520105    -2.14125809
     17      H    -5.94707214    -2.01019969    -0.30161101
     18      H     1.47164650     0.96705089    -0.20252786
 
Total System Charge             0.00000
 
 *** GOStep4 ***

 Energy gradients wrt nuclear displacements
 ==========================================

     Atom      Cartesian (a.u./angstrom)
                 X         Y         Z
 ----------------------------------------
     1 H    -0.000201  0.001465  0.000761
     2 C    -0.013341 -0.011412  0.000739
     3 C     0.003743 -0.007015 -0.008588
     4 C    -0.000331 -0.011940  0.012665
     5 O    -0.002341 -0.003415 -0.003734
     6 H    -0.001571  0.003787  0.005427
     7 C     0.012468  0.004430  0.000353
     8 C     0.002004  0.008546 -0.012009
     9 C    -0.006945  0.006320 -0.007516
    10 C     0.011063  0.009475 -0.000514
    11 C    -0.000378 -0.013367  0.005025
    12 C     0.006624 -0.003743  0.013136
    13 H    -0.003182 -0.005422  0.007743
    14 H     0.005859 -0.002895  0.006862
    15 H     0.002737  0.005727 -0.006870
    16 H    -0.005939  0.003106 -0.007403
    17 H    -0.009204 -0.003697 -0.000306
    18 H    -0.001067  0.020051 -0.005770
 ----------------------------------------
 Mulliken charges used for AMS results%charges...

 dE(predicted):    -0.30785E-02, dE(actual):    -0.11706E-02, Trust radius:    0.800000, all in a.u.
 
----------------------------------------------------------------------
Geometry Convergence after Step   4       (Hartree/Angstrom,Angstrom)
----------------------------------------------------------------------
current energy                               -4.11268725 Hartree
energy change                      -0.00117058     0.00018000    F
constrained gradient max            0.02006501     0.00100000    F
constrained gradient rms            0.00736415     0.00066667    F
gradient max                        0.02006501
gradient rms                        0.00736415
cart. step max                      0.21301821     0.01000000    F
cart. step rms                      0.05769585     0.00666667    F
 
 
--------
Geometry
--------
Formula: C9H8O
Atoms
  Index Symbol   x (angstrom)   y (angstrom)   z (angstrom)
      1      H     0.24462731    -1.91934442     0.17853940
      2      C    -0.91261140    -0.17346459    -0.26382092
      3      C     0.23044696    -0.85353269    -0.03399133
      4      C     1.52399484    -0.16381187    -0.07098398
      5      O     2.59767322    -0.70829602     0.11557492
      6      H    -0.80932269     0.89396312    -0.49905756
      7      C    -4.91819747    -1.63317110    -0.27942584
      8      C    -4.04417301    -2.00728791     0.73728516
      9      C    -2.73208025    -1.54223819     0.74472604
     10      C    -2.26782867    -0.67789976    -0.26191207
     11      C    -3.16962648    -0.29322226    -1.27056372
     12      C    -4.47227149    -0.77858770    -1.28597745
     13      H    -4.38461856    -2.67096679     1.54173756
     14      H    -2.05358800    -1.83778766     1.55244176
     15      H    -2.83384363     0.38230859    -2.06646203
     16      H    -5.14925715    -0.47848245    -2.09536305
     17      H    -5.95042515    -2.00312566    -0.28569616
     18      H     1.46381449     0.94992514    -0.33207431
 
Total System Charge             0.00000
 
 *** GOStep5 ***

 Energy gradients wrt nuclear displacements
 ==========================================

     Atom      Cartesian (a.u./angstrom)
                 X         Y         Z
 ----------------------------------------
     1 H    -0.000229  0.001588 -0.000471
     2 C    -0.020703 -0.017505  0.004605
     3 C     0.003539 -0.006215 -0.005684
     4 C     0.001019 -0.016812  0.011993
     5 O    -0.002939 -0.002888 -0.002303
     6 H    -0.000553  0.005715  0.003231
     7 C     0.013935  0.004621  0.001113
     8 C     0.000837  0.010112 -0.013603
     9 C    -0.008465  0.007756 -0.007590
    10 C     0.019908  0.010695 -0.003125
    11 C    -0.003709 -0.011118  0.007861
    12 C     0.008797 -0.005773  0.013215
    13 H    -0.003057 -0.007002  0.008496
    14 H     0.007226 -0.003291  0.007488
    15 H     0.003153  0.006253 -0.008127
    16 H    -0.006570  0.003302 -0.008780
    17 H    -0.010578 -0.003812 -0.000033
    18 H    -0.001610  0.024377 -0.008284
 ----------------------------------------
 Mulliken charges used for AMS results%charges...

 dE(predicted):    -0.19966E-02, dE(actual):    -0.15191E-02, Trust radius:    0.800000, all in a.u.
 
----------------------------------------------------------------------
Geometry Convergence after Step   5       (Hartree/Angstrom,Angstrom)
----------------------------------------------------------------------
current energy                               -4.11420637 Hartree
energy change                      -0.00151912     0.00018000    F
constrained gradient max            0.02438824     0.00100000    F
constrained gradient rms            0.00894710     0.00066667    F
gradient max                        0.02438824
gradient rms                        0.00894710
cart. step max                      0.21770366     0.01000000    F
cart. step rms                      0.05855970     0.00666667    F
 
 
--------
Geometry
--------
Formula: C9H8O
Atoms
  Index Symbol   x (angstrom)   y (angstrom)   z (angstrom)
      1      H     0.22737649    -1.86090027     0.39624306
      2      C    -0.90755969    -0.18786651    -0.31410332
      3      C     0.22588594    -0.83379576     0.03969187
      4      C     1.52687604    -0.16694687    -0.06082325
      5      O     2.59271817    -0.67664984     0.23747701
      6      H    -0.78399167     0.83234316    -0.69833487
      7      C    -4.91988763    -1.63336553    -0.27606280
      8      C    -4.02418318    -2.04429413     0.70942085
      9      C    -2.71259459    -1.57921246     0.70558892
     10      C    -2.26617328    -0.68125147    -0.28277106
     11      C    -3.19422823    -0.25363426    -1.25255979
     12      C    -4.49661177    -0.73942700    -1.25983040
     13      H    -4.34802063    -2.73296047     1.49616099
     14      H    -2.02087736    -1.89796899     1.48965921
     15      H    -2.87591220     0.45063166    -2.02746054
     16      H    -5.18985540    -0.40960488    -2.03999662
     17      H    -5.95035779    -2.00095532    -0.27273162
     18      H     1.48010966     0.90083672    -0.46459120
 
Total System Charge             0.00000
 
 *** GOStep6 ***

 Energy gradients wrt nuclear displacements
 ==========================================

     Atom      Cartesian (a.u./angstrom)
                 X         Y         Z
 ----------------------------------------
     1 H    -0.000392  0.000888 -0.000669
     2 C    -0.018682 -0.014288  0.005779
     3 C     0.002347 -0.003465 -0.002816
     4 C     0.002442 -0.017703  0.009545
     5 O    -0.002459 -0.000811 -0.000844
     6 H     0.000858  0.005451  0.001430
     7 C     0.010262  0.002574  0.001581
     8 C    -0.000796  0.007309 -0.010035
     9 C    -0.006700  0.005718 -0.004610
    10 C     0.018348  0.007720 -0.003858
    11 C    -0.004976 -0.007285  0.005812
    12 C     0.007594 -0.004386  0.008414
    13 H    -0.001922 -0.005492  0.006335
    14 H     0.006055 -0.002166  0.005368
    15 H     0.002173  0.004880 -0.006082
    16 H    -0.004816  0.002651 -0.006674
    17 H    -0.007887 -0.002578  0.000168
    18 H    -0.001448  0.020982 -0.008841
 ----------------------------------------
 Mulliken charges used for AMS results%charges...

 dE(predicted):    -0.33985E-02, dE(actual):    -0.19020E-02, Trust radius:    0.800000, all in a.u.
 
----------------------------------------------------------------------
Geometry Convergence after Step   6       (Hartree/Angstrom,Angstrom)
----------------------------------------------------------------------
current energy                               -4.11610835 Hartree
energy change                      -0.00190198     0.00018000    F
constrained gradient max            0.02098934     0.00100000    F
constrained gradient rms            0.00742382     0.00066667    F
gradient max                        0.02098934
gradient rms                        0.00742382
cart. step max                      0.22105295     0.01000000    F
cart. step rms                      0.06335127     0.00666667    F
 
 
--------
Geometry
--------
Formula: C9H8O
Atoms
  Index Symbol   x (angstrom)   y (angstrom)   z (angstrom)
      1      H     0.21084014    -1.76032442     0.61729601
      2      C    -0.89876237    -0.21172152    -0.36844804
      3      C     0.22285914    -0.79711622     0.11216414
      4      C     1.53119355    -0.15992112    -0.04914823
      5      O     2.58570588    -0.61666075     0.35879244
      6      H    -0.75837967     0.73329035    -0.90333734
      7      C    -4.92623653    -1.62539456    -0.26949257
      8      C    -4.00974468    -2.08310707     0.67898102
      9      C    -2.69584194    -1.62755232     0.66309986
     10      C    -2.26355302    -0.69699506    -0.30416951
     11      C    -3.21223405    -0.22365717    -1.23387602
     12      C    -4.52075957    -0.69416540    -1.22716317
     13      H    -4.32098015    -2.79778007     1.44159216
     14      H    -1.99464719    -1.97812761     1.41907215
     15      H    -2.90590121     0.50619810    -1.98433585
     16      H    -5.22925268    -0.32731632    -1.97050422
     17      H    -5.95517172    -1.98538376    -0.25675384
     18      H     1.50357895     0.83071270    -0.59879256
 
Total System Charge             0.00000
 
 *** GOStep7 ***

 Energy gradients wrt nuclear displacements
 ==========================================

     Atom      Cartesian (a.u./angstrom)
                 X         Y         Z
 ----------------------------------------
     1 H    -0.000585 -0.000308 -0.000847
     2 C    -0.013054 -0.006378  0.004293
     3 C     0.001634 -0.000641 -0.000853
     4 C     0.002644 -0.012946  0.006983
     5 O    -0.001707  0.000614 -0.000319
     6 H     0.001770  0.002884 -0.000369
     7 C     0.004540  0.000413  0.001591
     8 C    -0.001433  0.003099 -0.004395
     9 C    -0.003925  0.001910 -0.000886
    10 C     0.012547  0.003338 -0.002549
    11 C    -0.004080 -0.002599  0.002266
    12 C     0.004297 -0.001647  0.002670
    13 H    -0.000519 -0.002596  0.002732
    14 H     0.003377 -0.000384  0.002287
    15 H     0.000895  0.002284 -0.002712
    16 H    -0.001976  0.001305 -0.003019
    17 H    -0.003385 -0.001014  0.000031
    18 H    -0.001039  0.012665 -0.006903
 ----------------------------------------
 Mulliken charges used for AMS results%charges...

 dE(predicted):    -0.23511E-02, dE(actual):    -0.15386E-02, Trust radius:    0.800000, all in a.u.
 
----------------------------------------------------------------------
Geometry Convergence after Step   7       (Hartree/Angstrom,Angstrom)
----------------------------------------------------------------------
current energy                               -4.11764694 Hartree
energy change                      -0.00153859     0.00018000    F
constrained gradient max            0.01305442     0.00100000    F
constrained gradient rms            0.00443010     0.00066667    F
gradient max                        0.01305442
gradient rms                        0.00443010
cart. step max                      0.21793675     0.01000000    F
cart. step rms                      0.06620289     0.00666667    F
 
 
--------
Geometry
--------
Formula: C9H8O
Atoms
  Index Symbol   x (angstrom)   y (angstrom)   z (angstrom)
      1      H     0.20307135    -1.61950942     0.83523276
      2      C    -0.88676160    -0.25750342    -0.41865558
      3      C     0.22338870    -0.75179187     0.17978333
      4      C     1.53284705    -0.13843012    -0.04146647
      5      O     2.57657897    -0.51629899     0.46606898
      6      H    -0.73590663     0.60498720    -1.07305264
      7      C    -4.93728551    -1.60624958    -0.25976600
      8      C    -4.00464775    -2.12063029     0.64534858
      9      C    -2.68368377    -1.69038052     0.61456048
     10      C    -2.25655707    -0.72995187    -0.32709197
     11      C    -3.21877868    -0.20646673    -1.21587146
     12      C    -4.53835293    -0.64611824    -1.19092970
     13      H    -4.31177552    -2.85814025     1.38426382
     14      H    -1.97579120    -2.08802377     1.33669436
     15      H    -2.91590379     0.54475779    -1.94326356
     16      H    -5.25830346    -0.23499526    -1.89573457
     17      H    -5.97080927    -1.94531942    -0.23259075
     18      H     1.52138398     0.74504256    -0.73855318
 
Total System Charge             0.00000
 
 *** GOStep8 ***

 Energy gradients wrt nuclear displacements
 ==========================================

     Atom      Cartesian (a.u./angstrom)
                 X         Y         Z
 ----------------------------------------
     1 H    -0.000601 -0.000320 -0.000187
     2 C    -0.010052 -0.003122  0.000566
     3 C     0.002680  0.000387 -0.000099
     4 C     0.000998 -0.006872  0.004842
     5 O    -0.000711  0.000577 -0.000243
     6 H     0.001336  0.001354  0.000207
     7 C     0.001380 -0.000494  0.000862
     8 C    -0.000563  0.000775 -0.001591
     9 C    -0.002589 -0.000622  0.000544
    10 C     0.009458  0.001675 -0.001206
    11 C    -0.002916  0.000101  0.000870
    12 C     0.002007 -0.000374 -0.000067
    13 H     0.000021 -0.000638  0.000828
    14 H     0.001372  0.000722  0.000793
    15 H     0.000277  0.000795 -0.000739
    16 H    -0.000497  0.000397 -0.000855
    17 H    -0.000970 -0.000020  0.000042
    18 H    -0.000630  0.005681 -0.004567
 ----------------------------------------
 Mulliken charges used for AMS results%charges...

 dE(predicted):    -0.76614E-03, dE(actual):    -0.71103E-03, Trust radius:    0.800000, all in a.u.
 
----------------------------------------------------------------------
Geometry Convergence after Step   8       (Hartree/Angstrom,Angstrom)
----------------------------------------------------------------------
current energy                               -4.11835796 Hartree
energy change                      -0.00071103     0.00018000    F
constrained gradient max            0.01005251     0.00100000    F
constrained gradient rms            0.00264240     0.00066667    F
gradient max                        0.01005251
gradient rms                        0.00264240
cart. step max                      0.12207044     0.01000000    F
cart. step rms                      0.04561249     0.00666667    F
 
 
--------
Geometry
--------
Formula: C9H8O
Atoms
  Index Symbol   x (angstrom)   y (angstrom)   z (angstrom)
      1      H     0.19781928    -1.51120636     0.95730320
      2      C    -0.87454635    -0.29267243    -0.45245811
      3      C     0.22422584    -0.71559750     0.21631558
      4      C     1.53441542    -0.11441713    -0.03148408
      5      O     2.56799202    -0.43532427     0.53509991
      6      H    -0.71684473     0.49633001    -1.18984320
      7      C    -4.94926483    -1.58126074    -0.24152940
      8      C    -4.00631132    -2.13997401     0.62808398
      9      C    -2.67808846    -1.73567336     0.58054867
     10      C    -2.25318317    -0.75718145    -0.34322951
     11      C    -3.21913800    -0.20554318    -1.20981112
     12      C    -4.55026479    -0.61049092    -1.16090906
     13      H    -4.31160183    -2.89795335     1.34370228
     14      H    -1.96498547    -2.18475114     1.26295191
     15      H    -2.91376756     0.54935598    -1.92928570
     16      H    -5.27501067    -0.17187807    -1.84059326
     17      H    -5.98549036    -1.90453929    -0.20324773
     18      H     1.53675787     0.69775498    -0.79663793
 
Total System Charge             0.00000
 
 *** GOStep9 ***

 Energy gradients wrt nuclear displacements
 ==========================================

     Atom      Cartesian (a.u./angstrom)
                 X         Y         Z
 ----------------------------------------
     1 H     0.000215 -0.000584 -0.000583
     2 C    -0.001736  0.002071 -0.000157
     3 C     0.001903  0.001286 -0.000313
     4 C    -0.000559 -0.000447 -0.001241
     5 O     0.000382  0.000646  0.000204
     6 H     0.000672 -0.001301 -0.000188
     7 C    -0.001956 -0.000188  0.000104
     8 C     0.000563 -0.001025  0.001813
     9 C    -0.000876 -0.001318  0.002055
    10 C     0.001349  0.000315  0.000926
    11 C    -0.000142  0.000457 -0.001898
    12 C    -0.001230  0.001433 -0.001285
    13 H     0.000490  0.000837 -0.001203
    14 H    -0.000998  0.000347 -0.001346
    15 H    -0.000180 -0.001000  0.000899
    16 H     0.000902 -0.000730  0.000964
    17 H     0.001441  0.000224 -0.000412
    18 H    -0.000241 -0.001022  0.001660
 ----------------------------------------
 Mulliken charges used for AMS results%charges...

 dE(predicted):    -0.21655E-03, dE(actual):    -0.20814E-03, Trust radius:    0.800000, all in a.u.
 
----------------------------------------------------------------------
Geometry Convergence after Step   9       (Hartree/Angstrom,Angstrom)
----------------------------------------------------------------------
current energy                               -4.11856610 Hartree
energy change                      -0.00020814     0.00018000    F
constrained gradient max            0.00207184     0.00100000    F
constrained gradient rms            0.00106232     0.00066667    F
gradient max                        0.00207184
gradient rms                        0.00106232
cart. step max                      0.07385453     0.01000000    F
cart. step rms                      0.02497573     0.00666667    F
 
 
--------
Geometry
--------
Formula: C9H8O
Atoms
  Index Symbol   x (angstrom)   y (angstrom)   z (angstrom)
      1      H     0.18165791    -1.43964456     1.03115773
      2      C    -0.87028986    -0.31321235    -0.46869541
      3      C     0.21813681    -0.69495761     0.23964929
      4      C     1.53114420    -0.10791004    -0.02679969
      5      O     2.55652291    -0.39778636     0.57064362
      6      H    -0.70784173     0.45239266    -1.22994006
      7      C    -4.94990464    -1.57557378    -0.23698854
      8      C    -4.00140974    -2.15495324     0.61228395
      9      C    -2.67015317    -1.76245608     0.55364987
     10      C    -2.24845863    -0.77340325    -0.35940424
     11      C    -3.21950149    -0.20126975    -1.20615214
     12      C    -4.55301346    -0.59665802    -1.14795350
     13      H    -4.30646000    -2.91615865     1.32625865
     14      H    -1.95408750    -2.22483167     1.22570667
     15      H    -2.91680044     0.56433548    -1.91689349
     16      H    -5.28302628    -0.13903809    -1.81100801
     17      H    -5.99082723    -1.88511013    -0.18458629
     18      H     1.54702522     0.65121325    -0.84595199
 
Total System Charge             0.00000
 
 *** GOStep10 ***

 Energy gradients wrt nuclear displacements
 ==========================================

     Atom      Cartesian (a.u./angstrom)
                 X         Y         Z
 ----------------------------------------
     1 H     0.000086  0.000387  0.000259
     2 C    -0.001793 -0.001091 -0.000171
     3 C     0.001378  0.000150 -0.000265
     4 C    -0.001093  0.000673 -0.000430
     5 O     0.000141 -0.000241  0.000105
     6 H    -0.000164  0.000261  0.000661
     7 C    -0.000282  0.000102 -0.000386
     8 C     0.000900 -0.000046  0.000063
     9 C    -0.000609 -0.000762 -0.000124
    10 C     0.002196  0.000438 -0.000459
    11 C    -0.000491  0.000347  0.000140
    12 C    -0.000058 -0.000150 -0.000356
    13 H    -0.000026  0.000270  0.000035
    14 H    -0.000396  0.000237  0.000170
    15 H     0.000073 -0.000022  0.000183
    16 H     0.000010 -0.000068  0.000211
    17 H     0.000055  0.000198  0.000122
    18 H     0.000076 -0.000683  0.000244
 ----------------------------------------
 Mulliken charges used for AMS results%charges...

 dE(predicted):    -0.56214E-04, dE(actual):    -0.31072E-04, Trust radius:    0.800000, all in a.u.
 
----------------------------------------------------------------------
Geometry Convergence after Step  10       (Hartree/Angstrom,Angstrom)
----------------------------------------------------------------------
current energy                               -4.11859718 Hartree
energy change                      -0.00003107     0.00018000    T
constrained gradient max            0.00219563     0.00100000    F
constrained gradient rms            0.00057540     0.00066667    T
gradient max                        0.00219563
gradient rms                        0.00057540
cart. step max                      0.02490664     0.01000000    F
cart. step rms                      0.00902279     0.00666667    F
 
 
--------
Geometry
--------
Formula: C9H8O
Atoms
  Index Symbol   x (angstrom)   y (angstrom)   z (angstrom)
      1      H     0.17865053    -1.46418424     1.00625109
      2      C    -0.87153640    -0.30423186    -0.46778260
      3      C     0.21667720    -0.70212942     0.23141263
      4      C     1.53159018    -0.11308166    -0.02383424
      5      O     2.55693612    -0.41883289     0.56544249
      6      H    -0.70912947     0.47002432    -1.22042987
      7      C    -4.94825600    -1.57805158    -0.23597517
      8      C    -3.99911325    -2.14902719     0.61796680
      9      C    -2.66937458    -1.75005773     0.56006297
     10      C    -2.25068833    -0.76501469    -0.35822022
     11      C    -3.22183005    -0.20154290    -1.21018475
     12      C    -4.55393514    -0.60169952    -1.15105730
     13      H    -4.30148193    -2.91012505     1.33325312
     14      H    -1.95103573    -2.20753442     1.23322981
     15      H    -2.92089953     0.55991340    -1.92613897
     16      H    -5.28428171    -0.15205543    -1.81925392
     17      H    -5.98745080    -1.89375703    -0.18583017
     18      H     1.54787176     0.66636566    -0.82393525
 
Total System Charge             0.00000
 
 *** GOStep11 ***

 Energy gradients wrt nuclear displacements
 ==========================================

     Atom      Cartesian (a.u./angstrom)
                 X         Y         Z
 ----------------------------------------
     1 H    -0.000062 -0.000037  0.000113
     2 C    -0.000479 -0.000455 -0.000094
     3 C     0.000282  0.000001 -0.000097
     4 C    -0.000443  0.000453 -0.000308
     5 O     0.000049 -0.000077  0.000025
     6 H     0.000018  0.000108  0.000193
     7 C    -0.000189 -0.000023 -0.000079
     8 C     0.000215 -0.000061  0.000020
     9 C    -0.000008  0.000058  0.000213
    10 C     0.000619  0.000281 -0.000050
    11 C    -0.000241  0.000049 -0.000232
    12 C    -0.000034  0.000147 -0.000026
    13 H     0.000006  0.000079 -0.000071
    14 H     0.000041 -0.000017 -0.000041
    15 H     0.000044 -0.000079  0.000072
    16 H     0.000053 -0.000090  0.000071
    17 H     0.000081  0.000034  0.000014
    18 H     0.000049 -0.000371  0.000279
 ----------------------------------------
 Mulliken charges used for AMS results%charges...

 dE(predicted):    -0.13570E-04, dE(actual):    -0.15601E-04, Trust radius:    0.800000, all in a.u.
 
---------------------------------------------------------
Geometry Convergence after Step  11       ** CONVERGED **
---------------------------------------------------------
current energy                               -4.11861278 Hartree
energy change                      -0.00001560     0.00018000    T
constrained gradient max            0.00061870     0.00100000    T
constrained gradient rms            0.00019816     0.00066667    T
gradient max                        0.00061870
gradient rms                        0.00019816
cart. step max                      0.00561694     0.01000000    T
cart. step rms                      0.00182119     0.00666667    T
 
Geometry optimization converged

Optimized geometry:
 
--------
Geometry
--------
Formula: C9H8O
Atoms
  Index Symbol   x (angstrom)   y (angstrom)   z (angstrom)
      1      H     0.17865053    -1.46418424     1.00625109
      2      C    -0.87153640    -0.30423186    -0.46778260
      3      C     0.21667720    -0.70212942     0.23141263
      4      C     1.53159018    -0.11308166    -0.02383424
      5      O     2.55693612    -0.41883289     0.56544249
      6      H    -0.70912947     0.47002432    -1.22042987
      7      C    -4.94825600    -1.57805158    -0.23597517
      8      C    -3.99911325    -2.14902719     0.61796680
      9      C    -2.66937458    -1.75005773     0.56006297
     10      C    -2.25068833    -0.76501469    -0.35822022
     11      C    -3.22183005    -0.20154290    -1.21018475
     12      C    -4.55393514    -0.60169952    -1.15105730
     13      H    -4.30148193    -2.91012505     1.33325312
     14      H    -1.95103573    -2.20753442     1.23322981
     15      H    -2.92089953     0.55991340    -1.92613897
     16      H    -5.28428171    -0.15205543    -1.81925392
     17      H    -5.98745080    -1.89375703    -0.18583017
     18      H     1.54787176     0.66636566    -0.82393525
 
Total System Charge             0.00000
 
Performing a single point calculation on the final geometry ...

 *** adf ***



 ===========================
 A T T A C H E D   F I L E S
 ===========================
  
 Restart
 /scratch/5292/amstmp_1.achiral_catalyst.H_Ph_ZnCl2.Rsub_kid0.514343396/GOStep11
 .rkf*** GOStep11 ***



 ===============================
 M O D E L   P A R A M E T E R S
 ===============================
  
 DENSITY FUNCTIONAL POTENTIAL (scf)
    LDA:                               Exchange only                           == Not Default ==
    Gradient Corrections:              OPTX LYP                                == Not Default ==

 SPIN  (restricted / unrestr.)
    Molecule:                          Restricted                               
    Fragments:                         Restricted                               

 OTHER ASPECTS
    Relativistic Corrections:          scalar (ZORA,MAPA)                       

    Nuclear Charge Density Model:      Point Charge Nuclei                      
    Core Treatment:                    Frozen Orbital(s)                        

    Hyperfine or Zeeman Interaction:   ---                                      



 ===============
 G E O M E T R Y  ***  3D  Molecule  ***
 ===============
  

 ATOMS
 =====                            X Y Z                    CHARGE
                                (Angstrom)             Nucl     +Core       At.Mass
                       --------------------------    ----------------       -------
    1  H               0.1787   -1.4642    1.0063      1.00      1.00        1.0078
    2  C              -0.8715   -0.3042   -0.4678      6.00      6.00       12.0000
    3  C               0.2167   -0.7021    0.2314      6.00      6.00       12.0000
    4  C               1.5316   -0.1131   -0.0238      6.00      6.00       12.0000
    5  O               2.5569   -0.4188    0.5654      8.00      8.00       15.9949
    6  H              -0.7091    0.4700   -1.2204      1.00      1.00        1.0078
    7  C              -4.9483   -1.5781   -0.2360      6.00      6.00       12.0000
    8  C              -3.9991   -2.1490    0.6180      6.00      6.00       12.0000
    9  C              -2.6694   -1.7501    0.5601      6.00      6.00       12.0000
   10  C              -2.2507   -0.7650   -0.3582      6.00      6.00       12.0000
   11  C              -3.2218   -0.2015   -1.2102      6.00      6.00       12.0000
   12  C              -4.5539   -0.6017   -1.1511      6.00      6.00       12.0000
   13  H              -4.3015   -2.9101    1.3333      1.00      1.00        1.0078
   14  H              -1.9510   -2.2075    1.2332      1.00      1.00        1.0078
   15  H              -2.9209    0.5599   -1.9261      1.00      1.00        1.0078
   16  H              -5.2843   -0.1521   -1.8193      1.00      1.00        1.0078
   17  H              -5.9875   -1.8938   -0.1858      1.00      1.00        1.0078
   18  H               1.5479    0.6664   -0.8239      1.00      1.00        1.0078


 FRAGMENTS
 =========                                     Atoms in this Fragment     Cart. coord.s (Angstrom)
                                               -------------------------------------------------------
    1  H                                                 1  H            0.1787   -1.4642    1.0063
    2  H                                                 6  H           -0.7091    0.4700   -1.2204
    3  H                                                13  H           -4.3015   -2.9101    1.3333
    4  H                                                14  H           -1.9510   -2.2075    1.2332
    5  H                                                15  H           -2.9209    0.5599   -1.9261
    6  H                                                16  H           -5.2843   -0.1521   -1.8193
    7  H                                                17  H           -5.9875   -1.8938   -0.1858
    8  H                                                18  H            1.5479    0.6664   -0.8239
    9  C                                                 2  C           -0.8715   -0.3042   -0.4678
   10  C                                                 3  C            0.2167   -0.7021    0.2314
   11  C                                                 4  C            1.5316   -0.1131   -0.0238
   12  C                                                 7  C           -4.9483   -1.5781   -0.2360
   13  C                                                 8  C           -3.9991   -2.1490    0.6180
   14  C                                                 9  C           -2.6694   -1.7501    0.5601
   15  C                                                10  C           -2.2507   -0.7650   -0.3582
   16  C                                                11  C           -3.2218   -0.2015   -1.2102
   17  C                                                12  C           -4.5539   -0.6017   -1.1511
   18  O                                                 5  O            2.5569   -0.4188    0.5654


 Interatomic Distance Matrix (Angstrom)
 --------------------------------------

   1)     0.000
   2)     2.150   0.000
   3)     1.087   1.353   0.000
   4)     2.172   2.451   1.463   0.000
   5)     2.635   3.583   2.381   1.222   0.000
   6)     3.080   1.092   2.083   2.606   3.827   0.000
   7)     5.276   4.277   5.259   6.647   7.636   4.810   0.000
   8)     4.251   3.790   4.474   5.928   6.781   4.589   1.399   0.000
   9)     2.897   2.526   3.088   4.546   5.393   3.456   2.420   1.390   0.000
  10)     2.873   1.458   2.538   3.853   4.908   2.155   2.820   2.434   1.410   0.000
  11)     4.251   2.467   3.762   4.900   6.049   2.601   2.413   2.782   2.416   1.409
          0.000
  12)     5.272   3.757   4.968   6.208   7.317   3.992   1.395   2.415   2.793   2.441
          1.392   0.000
  13)     4.719   4.669   5.148   6.610   7.337   5.554   2.158   1.087   2.146   3.416
          3.869   3.401   0.000
  14)     2.267   2.772   2.823   4.254   4.896   3.838   3.397   2.139   1.086   2.169
          3.407   3.878   2.455   0.000
  15)     4.723   2.660   4.012   4.888   6.097   2.323   3.397   3.870   3.403   2.159
          1.088   2.149   4.957   4.311   0.000
  16)     6.289   4.618   5.896   7.048   8.200   4.656   2.157   3.403   3.880   3.422
          2.151   1.087   4.302   4.965   2.471   0.000
  17)     6.295   5.365   6.331   7.729   8.703   5.875   1.087   2.160   3.404   3.907
          3.400   2.158   2.487   4.290   4.296   2.489   0.000
  18)     3.125   2.631   2.181   1.117   2.031   2.300   6.898   6.385   5.054   4.086
          4.863   6.241   7.187   4.973   4.604   6.953   7.984   0.000

 Min. Distance =    1.0856
 Max. Distance =    8.7032



 =====================================
 S Y M M E T R Y ,   E L E C T R O N S
 =====================================
  
 Symmetry: NOSYM

 Irreducible Representations, including subspecies
 -------------------------------------------------
 A


 Configuration of Valence Electrons
 ==================================
 ( determined in the SCF procedure )

 Total:   70

 Net Charge: 0 (Nuclei minus Electrons)

 Aufbau principle for MO occupations will be applied through SCF cycle no.      49
 Thereafter, the program will assign electrons to MOs that are spatially
 similar to the occupied MOs in a "reference" cycle ("KeepOrbitals").
 The reference cycle is always the PREVIOUS cycle: it will evolve with
 the SCF procedure.
1
 ***************************************************************************************************



                                      ****************************************
                                      *  B U I L D : (Fragments, Functions)  *
                                      ****************************************
  



 =======
 S F O s  ***  (Symmetrized Fragment Orbitals)  ***
 =======
  
 SFOs are linear combinations of (valence) Fragment Orbitals (FOs), such that the SFOs transform as the
 irreducible representations of the (molecular) symmetry group. Each SFO is therefore characterized by
 an irrep of the molecule and by a few (or only one) generating FOs.
 The SFOs constitute a symmetry-adapted basis for the Fock matrix. The MO eigenvector coefficients in
 this basis provide a direct interpretation of the MOs in terms of Frontier Orbital Theory.

 The SFOs are combined with auxiliary Core Functions (CFs) to ensure orthogonalization on the (frozen)
 Core Orbitals (COs). The Core-orthogonalized SFOs (CSFOs) constitute the true Fock basis.

 The FOs, and hence also the (C)SFOs are combinations of the elementary basis functions (BAS). The basis
 functions that participate in the description of the SFOs depend on the irrep. The indices of the
 involved functions are printed below for each irrep.
 (The complete list of primitive basis functions is printed in another section)

 Total nr. of (C)SFOs (summation over all irreps) :   348

 NOTE: a (C)SFO that is defined as a combination of more than one FO is usually NOT normalized.



                                       === A ===
 Nr. of SFOs :  348
 Cartesian basis functions that participate in this irrep (total number =   396) :
      1     2     3     4     5     6     7     8     9    10
     11    12    13    14    15    16    17    18    19    20
     21    22    23    24    25    26    27    28    29    30
     31    32    33    34    35    36    37    38    39    40
     41    42    43    44    45    46    47    48    49    50
     51    52    53    54    55    56    57    58    59    60
     61    62    63    64    65    66    67    68    69    70
     71    72    73    74    75    76    77    78    79    80
     81    82    83    84    85    86    87    88    89    90
     91    92    93    94    95    96    97    98    99   100
    101   102   105   108   103   106   109   104   107   110
    111   112   113   114   115   116   117   118   119   120
    121   122   123   124   125   126   127   128   129   130
    131   132   135   138   133   136   139   134   137   140
    141   142   143   144   145   146   147   148   149   150
    151   152   153   154   155   156   157   158   159   160
    161   162   165   168   163   166   169   164   167   170
    171   172   173   174   175   176   177   178   179   180
    181   182   183   184   185   186   187   188   189   190
    191   192   195   198   193   196   199   194   197   200
    201   202   203   204   205   206   207   208   209   210
    211   212   213   214   215   216   217   218   219   220
    221   222   225   228   223   226   229   224   227   230
    231   232   233   234   235   236   237   238   239   240
    241   242   243   244   245   246   247   248   249   250
    251   252   255   258   253   256   259   254   257   260
    261   262   263   264   265   266   267   268   269   270
    271   272   273   274   275   276   277   278   279   280
    281   282   285   288   283   286   289   284   287   290
    291   292   293   294   295   296   297   298   299   300
    301   302   303   304   305   306   307   308   309   310
    311   312   315   318   313   316   319   314   317   320
    321   322   323   324   325   326   327   328   329   330
    331   332   333   334   335   336   337   338   339   340
    341   342   345   348   343   346   349   344   347   350
    351   352   353   354   355   356   357   358   359   360
    361   362   363   364   365   366   367   368   369   370
    371   372   375   378   373   376   379   374   377   380
    381   382   383   384   385   386   387   388   389   390
    391   392   393   394   395   396

    SFO  (index         Fragment          Generating    Expansion in Fragment Orbitals
  indx  incl.CFs)   Occup   Orb.Energy   FragmentType  Coeff.   Orbital     on Fragment
 --------------------------------------------------------------------------------------
     1       1      1.000      -0.238 au  H             1.00      1 S               1
                        (      -6.484 eV)
     2       2       --         0.077 au  H             1.00      2 S               1
                        (       2.096 eV)
     3       3       --         1.521 au  H             1.00      3 S               1
                        (      41.380 eV)
     4       4       --         0.410 au  H             1.00      1 P:x             1
                        (      11.162 eV)
     5       5       --         0.410 au  H             1.00      1 P:y             1
                        (      11.162 eV)
     6       6       --         0.410 au  H             1.00      1 P:z             1
                        (      11.162 eV)
     7       7       --         2.567 au  H             1.00      1 D:z2            1
                        (      69.838 eV)
     8       8       --         2.567 au  H             1.00      1 D:x2-y2         1
                        (      69.838 eV)
     9       9       --         2.567 au  H             1.00      1 D:xy            1
                        (      69.838 eV)
    10      10       --         2.567 au  H             1.00      1 D:xz            1
                        (      69.838 eV)
    11      11       --         2.567 au  H             1.00      1 D:yz            1
                        (      69.838 eV)
    12      12      1.000      -0.238 au  H             1.00      1 S               2
                        (      -6.484 eV)
    13      13       --         0.077 au  H             1.00      2 S               2
                        (       2.096 eV)
    14      14       --         1.521 au  H             1.00      3 S               2
                        (      41.380 eV)
    15      15       --         0.410 au  H             1.00      1 P:x             2
                        (      11.162 eV)
    16      16       --         0.410 au  H             1.00      1 P:y             2
                        (      11.162 eV)
    17      17       --         0.410 au  H             1.00      1 P:z             2
                        (      11.162 eV)
    18      18       --         2.567 au  H             1.00      1 D:z2            2
                        (      69.838 eV)
    19      19       --         2.567 au  H             1.00      1 D:x2-y2         2
                        (      69.838 eV)
    20      20       --         2.567 au  H             1.00      1 D:xy            2
                        (      69.838 eV)
    21      21       --         2.567 au  H             1.00      1 D:xz            2
                        (      69.838 eV)
    22      22       --         2.567 au  H             1.00      1 D:yz            2
                        (      69.838 eV)
    23      23      1.000      -0.238 au  H             1.00      1 S               3
                        (      -6.484 eV)
    24      24       --         0.077 au  H             1.00      2 S               3
                        (       2.096 eV)
    25      25       --         1.521 au  H             1.00      3 S               3
                        (      41.380 eV)
    26      26       --         0.410 au  H             1.00      1 P:x             3
                        (      11.162 eV)
    27      27       --         0.410 au  H             1.00      1 P:y             3
                        (      11.162 eV)
    28      28       --         0.410 au  H             1.00      1 P:z             3
                        (      11.162 eV)
    29      29       --         2.567 au  H             1.00      1 D:z2            3
                        (      69.838 eV)
    30      30       --         2.567 au  H             1.00      1 D:x2-y2         3
                        (      69.838 eV)
    31      31       --         2.567 au  H             1.00      1 D:xy            3
                        (      69.838 eV)
    32      32       --         2.567 au  H             1.00      1 D:xz            3
                        (      69.838 eV)
    33      33       --         2.567 au  H             1.00      1 D:yz            3
                        (      69.838 eV)
    34      34      1.000      -0.238 au  H             1.00      1 S               4
                        (      -6.484 eV)
    35      35       --         0.077 au  H             1.00      2 S               4
                        (       2.096 eV)
    36      36       --         1.521 au  H             1.00      3 S               4
                        (      41.380 eV)
    37      37       --         0.410 au  H             1.00      1 P:x             4
                        (      11.162 eV)
    38      38       --         0.410 au  H             1.00      1 P:y             4
                        (      11.162 eV)
    39      39       --         0.410 au  H             1.00      1 P:z             4
                        (      11.162 eV)
    40      40       --         2.567 au  H             1.00      1 D:z2            4
                        (      69.838 eV)
    41      41       --         2.567 au  H             1.00      1 D:x2-y2         4
                        (      69.838 eV)
    42      42       --         2.567 au  H             1.00      1 D:xy            4
                        (      69.838 eV)
    43      43       --         2.567 au  H             1.00      1 D:xz            4
                        (      69.838 eV)
    44      44       --         2.567 au  H             1.00      1 D:yz            4
                        (      69.838 eV)
    45      45      1.000      -0.238 au  H             1.00      1 S               5
                        (      -6.484 eV)
    46      46       --         0.077 au  H             1.00      2 S               5
                        (       2.096 eV)
    47      47       --         1.521 au  H             1.00      3 S               5
                        (      41.380 eV)
    48      48       --         0.410 au  H             1.00      1 P:x             5
                        (      11.162 eV)
    49      49       --         0.410 au  H             1.00      1 P:y             5
                        (      11.162 eV)
    50      50       --         0.410 au  H             1.00      1 P:z             5
                        (      11.162 eV)
    51      51       --         2.567 au  H             1.00      1 D:z2            5
                        (      69.838 eV)
    52      52       --         2.567 au  H             1.00      1 D:x2-y2         5
                        (      69.838 eV)
    53      53       --         2.567 au  H             1.00      1 D:xy            5
                        (      69.838 eV)
    54      54       --         2.567 au  H             1.00      1 D:xz            5
                        (      69.838 eV)
    55      55       --         2.567 au  H             1.00      1 D:yz            5
                        (      69.838 eV)
    56      56      1.000      -0.238 au  H             1.00      1 S               6
                        (      -6.484 eV)
    57      57       --         0.077 au  H             1.00      2 S               6
                        (       2.096 eV)
    58      58       --         1.521 au  H             1.00      3 S               6
                        (      41.380 eV)
    59      59       --         0.410 au  H             1.00      1 P:x             6
                        (      11.162 eV)
    60      60       --         0.410 au  H             1.00      1 P:y             6
                        (      11.162 eV)
    61      61       --         0.410 au  H             1.00      1 P:z             6
                        (      11.162 eV)
    62      62       --         2.567 au  H             1.00      1 D:z2            6
                        (      69.838 eV)
    63      63       --         2.567 au  H             1.00      1 D:x2-y2         6
                        (      69.838 eV)
    64      64       --         2.567 au  H             1.00      1 D:xy            6
                        (      69.838 eV)
    65      65       --         2.567 au  H             1.00      1 D:xz            6
                        (      69.838 eV)
    66      66       --         2.567 au  H             1.00      1 D:yz            6
                        (      69.838 eV)
    67      67      1.000      -0.238 au  H             1.00      1 S               7
                        (      -6.484 eV)
    68      68       --         0.077 au  H             1.00      2 S               7
                        (       2.096 eV)
    69      69       --         1.521 au  H             1.00      3 S               7
                        (      41.380 eV)
    70      70       --         0.410 au  H             1.00      1 P:x             7
                        (      11.162 eV)
    71      71       --         0.410 au  H             1.00      1 P:y             7
                        (      11.162 eV)
    72      72       --         0.410 au  H             1.00      1 P:z             7
                        (      11.162 eV)
    73      73       --         2.567 au  H             1.00      1 D:z2            7
                        (      69.838 eV)
    74      74       --         2.567 au  H             1.00      1 D:x2-y2         7
                        (      69.838 eV)
    75      75       --         2.567 au  H             1.00      1 D:xy            7
                        (      69.838 eV)
    76      76       --         2.567 au  H             1.00      1 D:xz            7
                        (      69.838 eV)
    77      77       --         2.567 au  H             1.00      1 D:yz            7
                        (      69.838 eV)
    78      78      1.000      -0.238 au  H             1.00      1 S               8
                        (      -6.484 eV)
    79      79       --         0.077 au  H             1.00      2 S               8
                        (       2.096 eV)
    80      80       --         1.521 au  H             1.00      3 S               8
                        (      41.380 eV)
    81      81       --         0.410 au  H             1.00      1 P:x             8
                        (      11.162 eV)
    82      82       --         0.410 au  H             1.00      1 P:y             8
                        (      11.162 eV)
    83      83       --         0.410 au  H             1.00      1 P:z             8
                        (      11.162 eV)
    84      84       --         2.567 au  H             1.00      1 D:z2            8
                        (      69.838 eV)
    85      85       --         2.567 au  H             1.00      1 D:x2-y2         8
                        (      69.838 eV)
    86      86       --         2.567 au  H             1.00      1 D:xy            8
                        (      69.838 eV)
    87      87       --         2.567 au  H             1.00      1 D:xz            8
                        (      69.838 eV)
    88      88       --         2.567 au  H             1.00      1 D:yz            8
                        (      69.838 eV)
    89      89      2.000     -10.064 au  C             1.00      1 S               9
                        (    -273.865 eV)
    90      90      2.000      -0.507 au  C             1.00      2 S               9
                        (     -13.802 eV)
    91      91       --         0.384 au  C             1.00      3 S               9
                        (      10.456 eV)
    92      92       --         5.458 au  C             1.00      4 S               9
                        (     148.511 eV)
    93      93       --        49.970 au  C             1.00      5 S               9
                        (    1359.766 eV)
    94      94      0.667      -0.189 au  C             1.00      1 P:x             9
                        (      -5.135 eV)
    95      95       --         0.168 au  C             1.00      2 P:x             9
                        (       4.559 eV)
    96      96       --         2.056 au  C             1.00      3 P:x             9
                        (      55.959 eV)
    97      97      0.667      -0.189 au  C             1.00      1 P:y             9
                        (      -5.135 eV)
    98      98       --         0.168 au  C             1.00      2 P:y             9
                        (       4.559 eV)
    99      99       --         2.056 au  C             1.00      3 P:y             9
                        (      55.959 eV)
   100     100      0.667      -0.189 au  C             1.00      1 P:z             9
                        (      -5.135 eV)
   101     101       --         0.168 au  C             1.00      2 P:z             9
                        (       4.559 eV)
   102     102       --         2.056 au  C             1.00      3 P:z             9
                        (      55.959 eV)
   103     103       --         1.235 au  C             1.00      1 D:z2            9
                        (      33.605 eV)
   104     104       --         1.235 au  C             1.00      1 D:x2-y2         9
                        (      33.605 eV)
   105     105       --         1.235 au  C             1.00      1 D:xy            9
                        (      33.605 eV)
   106     106       --         1.235 au  C             1.00      1 D:xz            9
                        (      33.605 eV)
   107     107       --         1.235 au  C             1.00      1 D:yz            9
                        (      33.605 eV)
   108     108       --         4.005 au  C             1.00      1 F:z3            9
                        (     108.969 eV)
   109     109       --         4.005 au  C             1.00      1 F:z             9
                        (     108.969 eV)
   110     110       --         4.005 au  C             1.00      1 F:xyz           9
                        (     108.969 eV)
   111     111       --         4.005 au  C             1.00      1 F:z2x           9
                        (     108.969 eV)
   112     112       --         4.005 au  C             1.00      1 F:z2y           9
                        (     108.969 eV)
   113     113       --         4.005 au  C             1.00      1 F:x             9
                        (     108.969 eV)
   114     114       --         4.005 au  C             1.00      1 F:y             9
                        (     108.969 eV)
   115     115      2.000     -10.064 au  C             1.00      1 S              10
                        (    -273.865 eV)
   116     116      2.000      -0.507 au  C             1.00      2 S              10
                        (     -13.802 eV)
   117     117       --         0.384 au  C             1.00      3 S              10
                        (      10.456 eV)
   118     118       --         5.458 au  C             1.00      4 S              10
                        (     148.511 eV)
   119     119       --        49.970 au  C             1.00      5 S              10
                        (    1359.766 eV)
   120     120      0.667      -0.189 au  C             1.00      1 P:x            10
                        (      -5.135 eV)
   121     121       --         0.168 au  C             1.00      2 P:x            10
                        (       4.559 eV)
   122     122       --         2.056 au  C             1.00      3 P:x            10
                        (      55.959 eV)
   123     123      0.667      -0.189 au  C             1.00      1 P:y            10
                        (      -5.135 eV)
   124     124       --         0.168 au  C             1.00      2 P:y            10
                        (       4.559 eV)
   125     125       --         2.056 au  C             1.00      3 P:y            10
                        (      55.959 eV)
   126     126      0.667      -0.189 au  C             1.00      1 P:z            10
                        (      -5.135 eV)
   127     127       --         0.168 au  C             1.00      2 P:z            10
                        (       4.559 eV)
   128     128       --         2.056 au  C             1.00      3 P:z            10
                        (      55.959 eV)
   129     129       --         1.235 au  C             1.00      1 D:z2           10
                        (      33.605 eV)
   130     130       --         1.235 au  C             1.00      1 D:x2-y2        10
                        (      33.605 eV)
   131     131       --         1.235 au  C             1.00      1 D:xy           10
                        (      33.605 eV)
   132     132       --         1.235 au  C             1.00      1 D:xz           10
                        (      33.605 eV)
   133     133       --         1.235 au  C             1.00      1 D:yz           10
                        (      33.605 eV)
   134     134       --         4.005 au  C             1.00      1 F:z3           10
                        (     108.969 eV)
   135     135       --         4.005 au  C             1.00      1 F:z            10
                        (     108.969 eV)
   136     136       --         4.005 au  C             1.00      1 F:xyz          10
                        (     108.969 eV)
   137     137       --         4.005 au  C             1.00      1 F:z2x          10
                        (     108.969 eV)
   138     138       --         4.005 au  C             1.00      1 F:z2y          10
                        (     108.969 eV)
   139     139       --         4.005 au  C             1.00      1 F:x            10
                        (     108.969 eV)
   140     140       --         4.005 au  C             1.00      1 F:y            10
                        (     108.969 eV)
   141     141      2.000     -10.064 au  C             1.00      1 S              11
                        (    -273.865 eV)
   142     142      2.000      -0.507 au  C             1.00      2 S              11
                        (     -13.802 eV)
   143     143       --         0.384 au  C             1.00      3 S              11
                        (      10.456 eV)
   144     144       --         5.458 au  C             1.00      4 S              11
                        (     148.511 eV)
   145     145       --        49.970 au  C             1.00      5 S              11
                        (    1359.766 eV)
   146     146      0.667      -0.189 au  C             1.00      1 P:x            11
                        (      -5.135 eV)
   147     147       --         0.168 au  C             1.00      2 P:x            11
                        (       4.559 eV)
   148     148       --         2.056 au  C             1.00      3 P:x            11
                        (      55.959 eV)
   149     149      0.667      -0.189 au  C             1.00      1 P:y            11
                        (      -5.135 eV)
   150     150       --         0.168 au  C             1.00      2 P:y            11
                        (       4.559 eV)
   151     151       --         2.056 au  C             1.00      3 P:y            11
                        (      55.959 eV)
   152     152      0.667      -0.189 au  C             1.00      1 P:z            11
                        (      -5.135 eV)
   153     153       --         0.168 au  C             1.00      2 P:z            11
                        (       4.559 eV)
   154     154       --         2.056 au  C             1.00      3 P:z            11
                        (      55.959 eV)
   155     155       --         1.235 au  C             1.00      1 D:z2           11
                        (      33.605 eV)
   156     156       --         1.235 au  C             1.00      1 D:x2-y2        11
                        (      33.605 eV)
   157     157       --         1.235 au  C             1.00      1 D:xy           11
                        (      33.605 eV)
   158     158       --         1.235 au  C             1.00      1 D:xz           11
                        (      33.605 eV)
   159     159       --         1.235 au  C             1.00      1 D:yz           11
                        (      33.605 eV)
   160     160       --         4.005 au  C             1.00      1 F:z3           11
                        (     108.969 eV)
   161     161       --         4.005 au  C             1.00      1 F:z            11
                        (     108.969 eV)
   162     162       --         4.005 au  C             1.00      1 F:xyz          11
                        (     108.969 eV)
   163     163       --         4.005 au  C             1.00      1 F:z2x          11
                        (     108.969 eV)
   164     164       --         4.005 au  C             1.00      1 F:z2y          11
                        (     108.969 eV)
   165     165       --         4.005 au  C             1.00      1 F:x            11
                        (     108.969 eV)
   166     166       --         4.005 au  C             1.00      1 F:y            11
                        (     108.969 eV)
   167     167      2.000     -10.064 au  C             1.00      1 S              12
                        (    -273.865 eV)
   168     168      2.000      -0.507 au  C             1.00      2 S              12
                        (     -13.802 eV)
   169     169       --         0.384 au  C             1.00      3 S              12
                        (      10.456 eV)
   170     170       --         5.458 au  C             1.00      4 S              12
                        (     148.511 eV)
   171     171       --        49.970 au  C             1.00      5 S              12
                        (    1359.766 eV)
   172     172      0.667      -0.189 au  C             1.00      1 P:x            12
                        (      -5.135 eV)
   173     173       --         0.168 au  C             1.00      2 P:x            12
                        (       4.559 eV)
   174     174       --         2.056 au  C             1.00      3 P:x            12
                        (      55.959 eV)
   175     175      0.667      -0.189 au  C             1.00      1 P:y            12
                        (      -5.135 eV)
   176     176       --         0.168 au  C             1.00      2 P:y            12
                        (       4.559 eV)
   177     177       --         2.056 au  C             1.00      3 P:y            12
                        (      55.959 eV)
   178     178      0.667      -0.189 au  C             1.00      1 P:z            12
                        (      -5.135 eV)
   179     179       --         0.168 au  C             1.00      2 P:z            12
                        (       4.559 eV)
   180     180       --         2.056 au  C             1.00      3 P:z            12
                        (      55.959 eV)
   181     181       --         1.235 au  C             1.00      1 D:z2           12
                        (      33.605 eV)
   182     182       --         1.235 au  C             1.00      1 D:x2-y2        12
                        (      33.605 eV)
   183     183       --         1.235 au  C             1.00      1 D:xy           12
                        (      33.605 eV)
   184     184       --         1.235 au  C             1.00      1 D:xz           12
                        (      33.605 eV)
   185     185       --         1.235 au  C             1.00      1 D:yz           12
                        (      33.605 eV)
   186     186       --         4.005 au  C             1.00      1 F:z3           12
                        (     108.969 eV)
   187     187       --         4.005 au  C             1.00      1 F:z            12
                        (     108.969 eV)
   188     188       --         4.005 au  C             1.00      1 F:xyz          12
                        (     108.969 eV)
   189     189       --         4.005 au  C             1.00      1 F:z2x          12
                        (     108.969 eV)
   190     190       --         4.005 au  C             1.00      1 F:z2y          12
                        (     108.969 eV)
   191     191       --         4.005 au  C             1.00      1 F:x            12
                        (     108.969 eV)
   192     192       --         4.005 au  C             1.00      1 F:y            12
                        (     108.969 eV)
   193     193      2.000     -10.064 au  C             1.00      1 S              13
                        (    -273.865 eV)
   194     194      2.000      -0.507 au  C             1.00      2 S              13
                        (     -13.802 eV)
   195     195       --         0.384 au  C             1.00      3 S              13
                        (      10.456 eV)
   196     196       --         5.458 au  C             1.00      4 S              13
                        (     148.511 eV)
   197     197       --        49.970 au  C             1.00      5 S              13
                        (    1359.766 eV)
   198     198      0.667      -0.189 au  C             1.00      1 P:x            13
                        (      -5.135 eV)
   199     199       --         0.168 au  C             1.00      2 P:x            13
                        (       4.559 eV)
   200     200       --         2.056 au  C             1.00      3 P:x            13
                        (      55.959 eV)
   201     201      0.667      -0.189 au  C             1.00      1 P:y            13
                        (      -5.135 eV)
   202     202       --         0.168 au  C             1.00      2 P:y            13
                        (       4.559 eV)
   203     203       --         2.056 au  C             1.00      3 P:y            13
                        (      55.959 eV)
   204     204      0.667      -0.189 au  C             1.00      1 P:z            13
                        (      -5.135 eV)
   205     205       --         0.168 au  C             1.00      2 P:z            13
                        (       4.559 eV)
   206     206       --         2.056 au  C             1.00      3 P:z            13
                        (      55.959 eV)
   207     207       --         1.235 au  C             1.00      1 D:z2           13
                        (      33.605 eV)
   208     208       --         1.235 au  C             1.00      1 D:x2-y2        13
                        (      33.605 eV)
   209     209       --         1.235 au  C             1.00      1 D:xy           13
                        (      33.605 eV)
   210     210       --         1.235 au  C             1.00      1 D:xz           13
                        (      33.605 eV)
   211     211       --         1.235 au  C             1.00      1 D:yz           13
                        (      33.605 eV)
   212     212       --         4.005 au  C             1.00      1 F:z3           13
                        (     108.969 eV)
[...]
     8     C       0.046234   0.003527   0.008800
     9     C      -0.026198  -0.011984   0.005452
    10     C      -0.028217   0.008797  -0.016677
    11     C       0.015244   0.007377  -0.003617
    12     C      -0.030885  -0.028788   0.021789
    13     H      -0.069129   0.012912  -0.032186
    14     H       0.001074   0.010342  -0.010494
    15     H       0.053567   0.006074   0.008166
    16     H       0.092920   0.069465  -0.047580
    17     H      -0.011866   0.038815  -0.043794
    18     H       0.898228   0.048045   0.190674
 
 Mode:    41      Frequency (cm-1):     1445.8137     Intensity (km/mol):       11.4309
 Index  Atom      ---- Displacements (x/y/z) ----
     1     H       0.114856   0.022341   0.007255
     2     C       0.021061   0.015726  -0.010865
     3     C      -0.058815   0.003398  -0.019123
     4     C       0.010217   0.011892  -0.009476
     5     O       0.013952  -0.007987   0.011956
     6     H       0.171479   0.016789   0.028171
     7     C       0.038397  -0.063051   0.076370
     8     C       0.133218   0.047130  -0.013298
     9     C      -0.116001  -0.005135  -0.026006
    10     C       0.035271  -0.098839   0.112797
    11     C       0.071775   0.068566  -0.052359
    12     C      -0.155279  -0.060817   0.021735
    13     H      -0.287550   0.089408  -0.171415
    14     H       0.108711   0.184218  -0.163402
    15     H      -0.101897   0.093087  -0.125036
    16     H       0.290083   0.305583  -0.241550
    17     H      -0.119392   0.384326  -0.434436
    18     H      -0.157732  -0.003007  -0.039188
 
 Mode:    42      Frequency (cm-1):     1489.9561     Intensity (km/mol):        1.4302
 Index  Atom      ---- Displacements (x/y/z) ----
     1     H      -0.002178  -0.006512   0.005632
     2     C       0.012436   0.021456  -0.018862
     3     C       0.028864  -0.001259   0.009013
     4     C       0.001871  -0.005741   0.006438
     5     O      -0.008870   0.002601  -0.005056
     6     H       0.099281   0.023929   0.001406
     7     C      -0.091631  -0.041346   0.018516
     8     C       0.139676  -0.029588   0.068726
     9     C       0.032655   0.082071  -0.077143
    10     C      -0.136728  -0.058106   0.023820
    11     C       0.103723  -0.032976   0.062582
    12     C       0.061703   0.095443  -0.083233
    13     H      -0.479271   0.010299  -0.140430
    14     H      -0.365333  -0.215964   0.127773
    15     H      -0.467614   0.000307  -0.126742
    16     H      -0.341963  -0.213669   0.131315
    17     H      -0.130782   0.008275  -0.043973
    18     H       0.012014  -0.004611   0.007898
 
 Mode:    43      Frequency (cm-1):     1574.2110     Intensity (km/mol):        9.3477
 Index  Atom      ---- Displacements (x/y/z) ----
     1     H       0.158844   0.039938   0.000370
     2     C       0.083514   0.007435   0.014361
     3     C      -0.093374   0.009095  -0.034160
     4     C       0.005054   0.005559  -0.004317
     5     O       0.012878  -0.003925   0.007480
     6     H       0.033539   0.000386   0.008111
     7     C      -0.084000   0.230551  -0.263951
     8     C       0.102519  -0.112007   0.144959
     9     C       0.061464   0.138907  -0.128844
    10     C       0.029373  -0.168816   0.184533
    11     C      -0.146919   0.075898  -0.119088
    12     C       0.004023  -0.140992   0.148643
    13     H      -0.199073  -0.103282   0.054157
    14     H      -0.303370  -0.142429   0.067485
    15     H       0.304750   0.045022   0.035239
    16     H       0.219945   0.012520   0.046093
    17     H       0.118591  -0.333187   0.380645
    18     H      -0.081029   0.000017  -0.021825
 
 Mode:    44      Frequency (cm-1):     1599.6725     Intensity (km/mol):       40.0353
 Index  Atom      ---- Displacements (x/y/z) ----
     1     H      -0.137893  -0.043323   0.008376
     2     C      -0.118733   0.005959  -0.037749
     3     C       0.079502  -0.015748   0.037335
     4     C      -0.028541   0.007967  -0.015867
     5     O       0.009031  -0.003769   0.006303
     6     H       0.168853   0.017084   0.028555
     7     C      -0.129523  -0.032212  -0.001256
     8     C       0.280658   0.030983   0.043460
     9     C      -0.256953  -0.118005   0.054172
    10     C       0.208675   0.039451   0.014943
    11     C      -0.283672  -0.025864  -0.049629
    12     C       0.231456   0.111583  -0.054255
    13     H      -0.298635   0.079383  -0.163919
    14     H       0.218920   0.260685  -0.214454
    15     H       0.324127  -0.072710   0.163787
    16     H      -0.156282  -0.203256   0.170524
    17     H      -0.138905  -0.044947   0.009318
    18     H       0.080478   0.017915   0.003125
 
 Mode:    45      Frequency (cm-1):     1625.2433     Intensity (km/mol):      121.0702
 Index  Atom      ---- Displacements (x/y/z) ----
     1     H      -0.404072  -0.166136   0.063774
     2     C      -0.379758   0.067408  -0.170564
     3     C       0.340545  -0.060954   0.153428
     4     C      -0.028224  -0.002334  -0.005125
     5     O      -0.028022   0.003158  -0.010754
     6     H       0.577227   0.105415   0.045984
     7     C       0.030638   0.045610  -0.039466
     8     C      -0.062550  -0.026517   0.010887
     9     C       0.063819   0.064322  -0.049967
    10     C       0.056261  -0.062550   0.080259
    11     C       0.071811   0.037467  -0.019841
    12     C      -0.091952  -0.068295   0.046679
    13     H       0.022812  -0.034144   0.041824
    14     H      -0.052493  -0.021735   0.007836
    15     H      -0.054949   0.048408  -0.065727
    16     H       0.100104   0.085263  -0.062290
    17     H       0.057924  -0.014270   0.030480
    18     H       0.191151   0.016658   0.033910
 
 Mode:    46      Frequency (cm-1):     1696.8986     Intensity (km/mol):      427.4810
 Index  Atom      ---- Displacements (x/y/z) ----
     1     H       0.237528   0.015402   0.047530
     2     C      -0.071403  -0.002102  -0.016834
     3     C      -0.030013   0.008043  -0.016355
     4     C       0.602815  -0.144619   0.310296
     5     O      -0.387188   0.110681  -0.217618
     6     H       0.027955   0.012493  -0.005613
     7     C      -0.003855   0.000561  -0.001625
     8     C       0.012134  -0.000121   0.003419
     9     C      -0.015174  -0.008500   0.004775
    10     C       0.045560   0.007875   0.004033
    11     C      -0.021622   0.002588  -0.008534
    12     C       0.009979   0.003623  -0.001099
    13     H      -0.009327   0.000874  -0.003436
    14     H       0.005013   0.006972  -0.005934
    15     H       0.026553   0.000544   0.006525
    16     H       0.000910  -0.003198   0.003577
    17     H      -0.002917  -0.003887   0.003255
    18     H      -0.432565  -0.206315   0.096853
 
 Mode:    47      Frequency (cm-1):     2810.3919     Intensity (km/mol):      128.2712
 Index  Atom      ---- Displacements (x/y/z) ----
     1     H      -0.000789  -0.005472   0.005438
     2     C       0.000324   0.000959  -0.000901
     3     C       0.002309   0.000065   0.000550
     4     C      -0.008171  -0.057836   0.057493
     5     O       0.002718  -0.000484   0.001227
     6     H      -0.009804  -0.011300   0.009019
     7     C      -0.000039  -0.000040   0.000032
     8     C      -0.000084   0.000038  -0.000063
     9     C       0.000140   0.000032   0.000005
    10     C      -0.000486   0.000301  -0.000440
    11     C       0.000018  -0.000053   0.000058
    12     C      -0.000050   0.000036  -0.000051
    13     H       0.000214   0.000322  -0.000268
    14     H       0.000322   0.000146  -0.000060
    15     H      -0.000491  -0.001035   0.000943
    16     H       0.000310  -0.000383   0.000478
    17     H      -0.000151  -0.000010  -0.000027
    18     H       0.039167   0.698126  -0.709918
 
 Mode:    48      Frequency (cm-1):     3084.0986     Intensity (km/mol):        9.8619
 Index  Atom      ---- Displacements (x/y/z) ----
     1     H      -0.002886  -0.027699   0.027762
     2     C      -0.010559  -0.059748   0.058638
     3     C      -0.002373   0.002684  -0.003397
     4     C      -0.001590  -0.000883   0.000486
     5     O       0.000582  -0.000027   0.000182
     6     H       0.141940   0.703913  -0.686080
     7     C      -0.000129   0.000028  -0.000064
     8     C       0.000101   0.000007   0.000019
     9     C       0.000856  -0.000091   0.000324
    10     C       0.001760  -0.000405   0.000891
    11     C       0.001861   0.004176  -0.003863
    12     C       0.000203  -0.000384   0.000459
    13     H      -0.000889  -0.001208   0.000999
    14     H      -0.007816   0.005124  -0.007486
    15     H      -0.021009  -0.046081   0.042557
    16     H      -0.007807   0.004600  -0.006916
    17     H       0.001662   0.000713  -0.000308
    18     H       0.005070   0.011360  -0.010346
 
 Mode:    49      Frequency (cm-1):     3125.6140     Intensity (km/mol):        3.3035
 Index  Atom      ---- Displacements (x/y/z) ----
     1     H      -0.000624  -0.018152   0.018526
     2     C       0.000920   0.002862  -0.002697
     3     C      -0.000059   0.001523  -0.001584
     4     C      -0.000010   0.000083  -0.000088
     5     O      -0.000010  -0.000007   0.000005
     6     H      -0.008949  -0.035188   0.033805
     7     C      -0.035637  -0.010812   0.001702
     8     C       0.008839   0.021331  -0.019947
     9     C       0.006170  -0.004994   0.006899
    10     C       0.001585   0.000072   0.000353
    11     C       0.012837   0.035129  -0.033309
    12     C       0.030058  -0.019078   0.028096
    13     H      -0.100929  -0.253862   0.238526
    14     H      -0.084314   0.054382  -0.079741
    15     H      -0.162176  -0.412376   0.387898
    16     H      -0.364213   0.225185  -0.334195
    17     H       0.427438   0.129982  -0.020701
    18     H      -0.000210  -0.000821   0.000795
 
 Mode:    50      Frequency (cm-1):     3132.6206     Intensity (km/mol):        0.2837
 Index  Atom      ---- Displacements (x/y/z) ----
     1     H      -0.010150  -0.165649   0.167923
     2     C       0.000655  -0.001848   0.002074
     3     C       0.000353   0.014503  -0.014843
     4     C      -0.000764  -0.000026  -0.000178
     5     O       0.000200  -0.000050   0.000105
     6     H       0.005687   0.017984  -0.016999
     7     C      -0.029267  -0.009765   0.002324
     8     C       0.015035   0.036583  -0.034244
     9     C       0.014089  -0.009758   0.014026
    10     C      -0.001012   0.000408  -0.000700
    11     C      -0.013389  -0.034694   0.032704
    12     C      -0.007672   0.006655  -0.009040
    13     H      -0.171204  -0.429720   0.403681
    14     H      -0.178502   0.112644  -0.166186
    15     H       0.158516   0.401506  -0.377523
    16     H       0.105580  -0.066905   0.098563
    17     H       0.348396   0.106621  -0.017580
    18     H       0.000142  -0.000196   0.000237
 
 Mode:    51      Frequency (cm-1):     3138.6862     Intensity (km/mol):        7.2994
 Index  Atom      ---- Displacements (x/y/z) ----
     1     H       0.037140   0.618448  -0.627114
     2     C      -0.004570  -0.002057   0.000897
     3     C      -0.000706  -0.053371   0.054777
     4     C       0.002166  -0.000390   0.000983
     5     O      -0.000469   0.000188  -0.000319
     6     H       0.007474   0.039163  -0.038254
     7     C      -0.024270  -0.007327   0.001121
     8     C       0.002500   0.003361  -0.002843
     9     C      -0.013342   0.008773  -0.012793
    10     C      -0.001118  -0.000616   0.000340
    11     C      -0.005635  -0.015072   0.014257
    12     C       0.006110  -0.002462   0.004230
    13     H      -0.016903  -0.039407   0.036686
    14     H       0.153324  -0.097253   0.143299
    15     H       0.067756   0.172652  -0.162439
    16     H      -0.060975   0.036220  -0.054405
    17     H       0.281604   0.085578  -0.013591
    18     H       0.000784   0.005106  -0.005065
 
 Mode:    52      Frequency (cm-1):     3142.9993     Intensity (km/mol):        9.8538
 Index  Atom      ---- Displacements (x/y/z) ----
     1     H       0.013683   0.220445  -0.223427
     2     C      -0.001034   0.001129  -0.001436
     3     C      -0.000413  -0.019077   0.019536
     4     C       0.000879   0.000004   0.000232
     5     O      -0.000223   0.000062  -0.000124
     6     H      -0.003530  -0.008041   0.007341
     7     C       0.032385   0.007849   0.000522
     8     C       0.011735   0.032082  -0.030420
     9     C       0.008997  -0.007630   0.010424
    10     C       0.001498  -0.000479   0.000905
    11     C       0.011211   0.025920  -0.024107
    12     C      -0.032078   0.017311  -0.026793
    13     H      -0.143585  -0.364114   0.342450
    14     H      -0.126288   0.081890  -0.119874
    15     H      -0.116013  -0.291113   0.273418
    16     H       0.349475  -0.212209   0.316636
    17     H      -0.365513  -0.108741   0.015200
    18     H       0.000238   0.000923  -0.000895
 
 Mode:    53      Frequency (cm-1):     3152.9826     Intensity (km/mol):       17.6264
 Index  Atom      ---- Displacements (x/y/z) ----
     1     H       0.006254   0.101199  -0.102574
     2     C      -0.000743  -0.000776   0.000602
     3     C      -0.000007  -0.008574   0.008826
     4     C       0.000231  -0.000115   0.000180
     5     O      -0.000025   0.000028  -0.000036
     6     H       0.002059   0.010133  -0.009877
     7     C       0.051998   0.017000  -0.003762
     8     C       0.001595   0.010942  -0.011026
     9     C       0.019140  -0.012713   0.018487
    10     C      -0.000458   0.000855  -0.001018
    11     C      -0.009140  -0.017358   0.015703
    12     C       0.036471  -0.023472   0.034429
    13     H      -0.043838  -0.118606   0.112358
    14     H      -0.229568   0.145258  -0.214131
    15     H       0.078622   0.191444  -0.179183
    16     H      -0.411063   0.254362  -0.377400
    17     H      -0.582270  -0.178318   0.029520
    18     H       0.000388   0.001425  -0.001374
 
 Mode:    54      Frequency (cm-1):     3160.8401     Intensity (km/mol):        8.2753
 Index  Atom      ---- Displacements (x/y/z) ----
     1     H      -0.009092  -0.136711   0.138420
     2     C       0.000301  -0.000206   0.000290
     3     C       0.000372   0.011616  -0.011860
     4     C      -0.000609  -0.000031  -0.000131
     5     O       0.000192  -0.000048   0.000100
     6     H       0.002481   0.002165  -0.001577
     7     C       0.021077   0.005509  -0.000078
     8     C       0.012268   0.027362  -0.025330
     9     C      -0.049675   0.029920  -0.044762
    10     C      -0.001322  -0.001536   0.001251
    11     C      -0.001076  -0.002907   0.002754
    12     C       0.008192  -0.005861   0.008350
    13     H      -0.119071  -0.297319   0.279136
    14     H       0.556267  -0.348582   0.515351
    15     H       0.011347   0.029345  -0.027651
    16     H      -0.094845   0.059348  -0.087765
    17     H      -0.224964  -0.067107   0.009534
    18     H      -0.000464  -0.000808   0.000703

PES point character: Geometry corresponds to a local minimum on the PES.




 ============================
 Statistical Thermal Analysis  ***  ideal gas assumed  ***
 ============================
  
 Pressure:                  1.000000 atm.
 Temperature:             298.150000 K



 Moments of Inertia [amu*bohr^2] and principal axis
 ==================================================

         368.4366       3153.6776       3522.1086
 ------------------------------------------------
           0.9827          0.0323          0.1824
           0.1544         -0.6868         -0.7103
           0.1024          0.7261         -0.6799


 The rotational contribution to the molecular entropy includes
 a term, dependent on the symmetry number sigma. The results 
 reported below were computed using sigma = 1, determined from
 the point group symmetry of the input geometry (NOSYM). 
 If this is not the correct symmetry, try symmetrizing the molecule before
 running the calculation (note: linear molecules should be aligned along one
 of the Cartesian axes).
 Contributions from frequencies below 20 1/cm are not included in vibrational sums.
 Their contributions, if any, are reported separately.


     Temp                                                        Transl      Rotat     Vibrat     Total
     ----                                                        ------      -----     ------     -----

     298.15   Entropy (cal/mol-K):                               40.547     29.794     23.007     93.348
              Nuclear Internal Energy (kcal/mol):                 0.889      0.889     91.582     93.360
              Constant Volume Heat Capacity (cal/mol-K):          2.981      2.981     26.912     32.874
          (c) Constant Volume Heat Capacity (cal/mol-K):          2.981      2.981     25.105     31.067

       Summary of energy terms
                                                   hartree              eV         kcal/mol           kJ/mol
                                      --------------------     -----------       ----------      -----------
      Energy from Engine:               -4.118612776840942       -112.0732         -2584.47        -10813.42
      Nuclear Internal Energy:           0.148778250669465          4.0485            93.36           390.62
  (c) Nuclear Internal Energy:           0.147842523851888          4.0230            92.77           388.16
      Internal Energy U:                -3.969834526171477       -108.0247         -2491.11        -10422.80
      pV/n = RT:                         0.000944186013486          0.0257             0.59             2.48
      Enthalpy H:                       -3.968890340157991       -107.9990         -2490.52        -10420.32
      -T*S:                             -0.044352474019197         -1.2069           -27.83          -116.45
  (c) -T*S:                             -0.043601058192237         -1.1864           -27.36          -114.47
      Gibbs free energy:                -4.013242814177187       -109.2059         -2518.35        -10536.77
 
 
 
  (c) The properties marked with this symbol have been corrected using 'low vibrational frequency free rotor
      interpolation corrections'. For those terms all positive frequencies are used (also ones below 20 1/cm),
      but the contribution to the partition function of small vibrational frequencies is modified as described
      in the following paper:
      S. Grimme, 'Supramolecular Binding Thermodynamics by Dispersion-Corrected Density Functional Theory'
      (Chem. Eur. J. 2012, 18, 9955-9964)
      Configuration: Dampener Frequency          :   100.000 1/cm
                     Dampener Alpha              :     4.000
                     Averaging Moment of Inertia : 1.000E-44 kg m2

--------------
Atomic charges
--------------
  Index   Atom    Charge
      1      H   -0.2103
      2      C    0.2822
      3      C    0.2044
      4      C    0.6300
      5      O   -0.4964
      6      H   -0.2203
      7      C    0.2542
      8      C    0.2439
      9      C    0.2908
     10      C   -0.0017
     11      C    0.2990
     12      C    0.2411
     13      H   -0.2436
     14      H   -0.2506
     15      H   -0.2497
     16      H   -0.2452
     17      H   -0.2404
     18      H   -0.2873


Dipole moment vector    (Debye):    -4.65042120   -0.03395449   -1.20238583
              magnitude (Debye):     4.80346770


Final PES point is a local minimum. Geometry optimization successful!


AMS application finished. Exiting.
NORMAL TERMINATION
     Total cpu time:   16062.19
  Total system time:      55.44
 Total elapsed time:   32349.44
 WARNING: total elapsed time is much higher than the (CPU+system) time. 
 Make sure the machine is not oversubscribed and has enough memory, SCM_TMPDIR p
 oints to a fast file system, and the network is fast enough.
