

 Parallel Execution: Process Information
 ==============================================================================
 Rank   Node Name                              NodeID   MyNodeRank  NodeMaster
    0   node117                                   0          0          0
    1   node117                                   0          1         -1
    2   node117                                   0          2         -1
    3   node117                                   0          3         -1
 ==============================================================================


May use up to 122928MB of RAM as shared memory on node 0

 *******************************************************************************
 *                                                                             *
 *  --------------------------------                                           *
 *   Amsterdam Modeling Suite (AMS)              2021.102                      *
 *  --------------------------------                                           *
 *                                               r95042 2021-06-07             *
 *                                                                             *
 *                                                                             *
 *                              =================                              *
 *                              |               |                              *
 *                              |     A M S     |                              *
 *                              |               |                              *
 *                              =================                              *
 *                                                                             *
 *                                                                             *
 *   Online information and documentation:  https://www.scm.com/support/       *
 *   E-mail:  support@scm.com   info@scm.com                                   *
 *                                                                             *
 *   Scientific publications using AMS results must be properly referenced     *
 *   See the User Manuals (or the web site) for recommended citations          *
 *   The terms and conditions of the End User License Agreement apply to       *
 *   the use of AMS, https://www.scm.com/license-terms/                        *
 *                                                                             *
 **********************  x86_64_linux_intel / intelmpi  ************************
 
 Licensed to: VU/FEW (+ SARA) / ALGEMEEN / Amsterdam / THE NETHERLANDS
 SCM User ID: u7668
  
 AMS 2021.102  RunTime: Jan27-2022 12:37:38  ShM Nodes: 1  Procs: 4

 AMS jobname: 19.achiral_catalyst.H_Ph_I2.TS
 AMS jobid  : 923280990

 Start   directory: /scistor/tc/yhk800/MasterProject/calculations/achiral_catalyst_H_Ph_I2/19.achiral_catalyst.H_Ph_I2.TS/
 Results directory: /scistor/tc/yhk800/MasterProject/calculations/achiral_catalyst_H_Ph_I2/19.achiral_catalyst.H_Ph_I2.TS/
 Scratch directory: /scratch/5297/amstmp_19.achiral_catalyst.H_Ph_I2.TS_kid0.923280990/


 Communication costs MPI_COMM_WORLD:      1.931 usec per message,   0.0066 usec per 8-byte item
 Communication costs for intra-node:     -0.650 usec per message,   0.0092 usec per 8-byte item

 RNG seed: -602667556 515484007 438098242 -490774683 -1783030213 -229948542 842115446 -536474644



                      ************************************************************************
                      *  ADF 2021.102  RunTime: Jan27-2022 12:37:40  ShM Nodes: 1  Procs: 4  *
                      ************************************************************************
  
       *****************************
       *  TRANSITION STATE SEARCH  *
       *****************************

Optimization Method                    Quasi Newton
Optimization Coordinates               Delocalized Coordinates
Optimize lattice                       F
 
 ------------------------------------------------------
 Convergence criteria (Hartree,Angstrom)
 ------------------------------------------------------
 Maximum gradient               0.001000000000
 Maximum rms gradient           0.000666666667
 Maximum step allowed           0.010000000000
 Maximum rms step allowed       0.006666666667
 Maximum energy change allowe   0.000240000000
 Maximum stress energy allowe   0.000500000000
 
Initial model Hessian                  Automatic Hessian
 
------------------------------------
Quasi-Newton Optimizer Parameters
------------------------------------
Hessian Update Method                  Bofill
Maximum number of steps                  250
First GDIIS cycle                          0
Maximum GDIIS vectors                      0
Trust radius (bohr)                        0.200000
Trust radius varies                        F
Constraints converged at all steps         T
Use projector                              T
 
 Rigid motions settings for: old optimizer
 Atomic rotations (x,y,z):     T T T
 Atomic translations (x,y,z):  T T T
 Tolerance:                   1.000000000000000E-006
 
           1  TSRC entries:
    i   type      a1    a2    a3    a4    coef
    1 Distance     2    10               -1.000
 
--------
Geometry
--------
Formula: C10H11I2O
Atoms
  Index Symbol   x (angstrom)   y (angstrom)   z (angstrom)
      1      H     0.19369716    -1.85361092    -0.24516176
      2      C    -0.92057816    -0.12292898     0.28183759
      3      C     0.21368396    -0.77846351    -0.06958517
      4      C     1.52168394    -0.13059856    -0.22805405
      5      O     2.57084417    -0.68022178    -0.54313771
      6      H    -0.93117356     0.95749943     0.37346659
      7      H    -1.16677948    -1.14795174     3.01281369
      8      H    -2.10496465     0.45730942     2.86041604
      9      H    -0.24714630     0.47546451     3.02589233
     10      C    -1.16197426    -0.07675120     2.85297480
     11      C    -4.74611209    -2.17290540     0.36190353
     12      C    -4.64303884    -0.90540134    -0.22468614
     13      C    -3.40885292    -0.24404214    -0.25051686
     14      C    -2.27774025    -0.85018701     0.31024211
     15      C    -2.38081349    -2.11769108     0.89683179
     16      C    -3.61499942    -2.77905027     0.92266250
     17      H    -5.50859650    -0.44156308    -0.65379390
     18      H    -3.32997851     0.72588585    -0.69939096
     19      H    -1.51525584    -2.58152934     1.32593954
     20      H    -3.69387383    -3.74897827     1.37153661
     21      H    -5.69054416    -2.67899514     0.38166988
     22      H     1.51741535     0.92352060    -0.04443873
     23      I     3.93691787     0.31396217    -0.73139533
     24      I     6.16201085     1.93331237    -1.03803377
 
Total System Charge             0.00000
 
 
----------------
ADF Engine Input
----------------
 
 NumericalQuality VeryGood
 SCF
 Converge 1.0e-6
 Iterations 99
 End
 SYMMETRY NOSYM
 SpinPolarization 1.0
 Unrestricted Yes
 XC
 GGA OLYP
 End
 basis
 core None
 type TZ2P
 End
 

 Title: *** (NO TITLE) ***

Bad geometry: could not add a dihedral for atom   24
 Using automatic Hessian for delocalized coordinates.
 *** GOStep1 ***

 Energy gradients wrt nuclear displacements
 ==========================================

     Atom      Cartesian (a.u./angstrom)
                 X         Y         Z
 ----------------------------------------
     1 H     0.001277 -0.001337  0.000732
     2 C     0.082309  0.020180 -0.021716
     3 C    -0.113337  0.006515  0.019707
     4 C     0.282644  0.012371 -0.061134
     5 O     0.330997  0.355666 -0.027963
     6 H     0.002130 -0.004071  0.005920
     7 H    -0.001109 -0.006169 -0.002953
     8 H    -0.001253  0.001281 -0.001757
     9 H    -0.000749 -0.000848 -0.003142
    10 C    -0.007191 -0.005749  0.000826
    11 C    -0.020534 -0.013582  0.001488
    12 C    -0.023978  0.012583 -0.011286
    13 C     0.011751  0.021464 -0.012581
    14 C    -0.054826 -0.032431  0.005567
    15 C     0.033700  0.007169  0.018537
    16 C    -0.008669 -0.026589  0.013221
    17 H     0.015889 -0.009076  0.008713
    18 H    -0.001269 -0.018222  0.008571
    19 H    -0.012109  0.009111 -0.006773
    20 H     0.001045  0.018232 -0.009066
    21 H     0.017957  0.009324 -0.000702
    22 H    -0.009142 -0.035910 -0.003024
    23 I    -0.481736 -0.286754  0.072630
    24 I    -0.043798 -0.033157  0.006184
 ----------------------------------------
 Mulliken charges used for AMS results%charges...
           Primitive Internal Coordinates (atoms in internal order)
-------------------------------------------------------------------------------
    index    type      i       j       k       l   value(A,deg)     TSRC Vect
-------------------------------------------------------------------------------
       1     bnd       1       3       0       0     1.08957265     0.00000000
       2     bnd       2       6       0       0     1.08435865     0.00000000
       3     bnd       2      14       0       0     1.54000000     0.00370254
       4     bnd       2       3       0       0     1.35638270     0.00000000
       5     bnd       3       4       0       0     1.46823204     0.00000000
       6     bnd       4      22       0       0     1.07000000    -0.00000000
       7     bnd       4       5       0       0     1.22560213     0.00000000
       8     bnd       5      23       0       0     1.70000000     0.00000000
       9     bnd       8      10       0       0     1.08374674     0.00000000
      10     bnd       7      10       0       0     1.08307071    -0.00000000
      11     bnd       9      10       0       0     1.08247534     0.00000000
      12     bnd      11      21       0       0     1.07166668    -0.00000000
      13     bnd      11      12       0       0     1.40045638    -0.00176246
      14     bnd      12      13       0       0     1.40045639     0.00308292
      15     bnd      13      14       0       0     1.40045639     0.00484538
      16     bnd      14      15       0       0     1.40045639    -0.00774887
      17     bnd      15      19       0       0     1.07166666    -0.00000000
      18     bnd      11      16       0       0     1.40045639    -0.00484538
      19     bnd      15      16       0       0     1.40045639    -0.00308292
      20     bnd      16      20       0       0     1.07166668     0.00000000
      21     bnd      12      17       0       0     1.07166668     0.00000000
      22     bnd      13      18       0       0     1.07166666     0.00000000
      23     bnd      23      24       0       0     2.76900000     0.00000000
      24     bnd       2      10       0       0     2.58285714    -0.46850046
      25     bnd      10      14       0       0     2.88246877    -0.17165346
      26     bnd      10      15       0       0     3.07855488    -0.03699203
      27     ang       6       2      14       0   117.41061246     0.00855328
      28     ang       6       2       3       0   120.77103538     0.01284013
      29     ang       6       2      10       0    84.09702452    -0.03102288
      30     ang      14       2       3       0   120.89733876    -0.02498808
      31     ang      14       2      10       0    84.70507562     0.08602895
      32     ang       3       2      10       0   110.16403203    -0.03328956
      33     ang       1       3       2       0   120.21909900     0.00000000
      34     ang       1       3       4       0   115.74474309     0.00000000
      35     ang       2       3       4       0   124.03410402    -0.00000000
      36     ang       3       4      22       0   114.37019779    -0.00000000
      37     ang       3       4       5       0   126.33327002     0.00000000
      38     ang      22       4       5       0   119.29637471    -0.00000000
      39     ang       4       5      23       0   117.00680806    -0.00000000
      40     ang       8      10       7       0   118.84988012    -0.00146834
      41     ang       8      10       9       0   118.87311123    -0.00024377
      42     ang       8      10       2       0    95.56458342     0.00909663
      43     ang       8      10      14       0    78.54912471    -0.00567121
      44     ang       8      10      15       0    89.23041841     0.00006763
      45     ang       7      10       9       0   118.99448321     0.00257304
      46     ang       7      10       2       0    97.44889075     0.00885824
      47     ang       7      10      14       0    82.13060339    -0.00242205
      48     ang       7      10      15       0    55.68992698    -0.00719646
      49     ang       9      10       2       0    95.11483796    -0.02038856
      50     ang       9      10      14       0   127.22419637     0.00509499
      51     ang       9      10      15       0   140.74147852     0.00345464
      52     ang       2      10      15       0    52.59994653     0.02406216
      53     ang      21      11      12       0   120.00000003     0.00262141
      54     ang      21      11      16       0   119.99999998     0.00262141
      55     ang      12      11      16       0   119.99999999    -0.00524282
      56     ang      11      12      13       0   120.00000045     0.00283320
      57     ang      11      12      17       0   119.99999992    -0.00141660
      58     ang      13      12      17       0   119.99999963    -0.00141660
      59     ang      12      13      14       0   119.99999956     0.00956415
      60     ang      12      13      18       0   120.00000060    -0.00478207
      61     ang      14      13      18       0   119.99999984    -0.00478207
      62     ang       2      14      13       0   120.00000008     0.05233565
      63     ang       2      14      15       0   119.99999944    -0.02667342
      64     ang       2      14      10       0    63.15528843    -0.11163583
      65     ang      13      14      15       0   120.00000047    -0.02566222
      66     ang      13      14      10       0   123.34795653     0.02510012
      67     ang      15      14      10       0    84.36745140     0.04820738
      68     ang      14      15      19       0   120.00000056    -0.02292897
      69     ang      14      15      16       0   119.99999929     0.02509558
      70     ang      14      15      10       0    68.71481583    -0.05236308
      71     ang      19      15      16       0   120.00000015    -0.00216660
      72     ang      19      15      10       0    73.30633988    -0.00817627
      73     ang      16      15      10       0   130.56157217     0.05252240
      74     ang      11      16      15       0   120.00000024    -0.00658788
      75     ang      11      16      20       0   119.99999995     0.00329394
      76     ang      15      16      20       0   119.99999981     0.00329394
      77     anY       5      23      24       0   179.99999915     0.00000000
      78     anZ       5      23      24       0   179.99999915     0.00000000
      79     dih       6       2      14      13    34.24865644    -0.03986035
      80     dih       6       2      14      15   214.24865620    -0.00290824
      81     dih       6       2      14      10   -80.53711813    -0.00962326
      82     dih       3       2      14      13   225.14946408    -0.02037423
      83     dih       3       2      14      15    45.14946384     0.01657788
      84     dih       3       2      14      10   110.36368951     0.00986287
      85     dih      10       2      14      13   114.78577457    -0.03023709
      86     dih      10       2      14      15   -65.21422568     0.00671501
      87     dih       6       2       3       1   185.43025046    -0.01107025
      88     dih       6       2       3       4     5.97435318    -0.01107025
      89     dih      14       2       3       1    -5.83693582    -0.03186770
      90     dih      14       2       3       4   174.70716690    -0.03186770
      91     dih      10       2       3       1    90.20089317     0.04293795
      92     dih      10       2       3       4   -89.25500411     0.04293795
      93     dih       1       3       4      22   180.37552847    -0.00000000
      94     dih       1       3       4       5     0.52197473     0.00000000
      95     dih       2       3       4      22    -0.14644617     0.00000000
      96     dih       2       3       4       5   180.00000148     0.00000000
      97     dih       3       4       5      23   177.13092032    -0.00000000
      98     dih      22       4       5      23    -2.71611828    -0.00000000
      99     dih      21      11      12      13   180.00000000    -0.00260094
     100     dih      21      11      12      17    -0.00000085    -0.00130719
     101     dih      16      11      12      13     0.00000085    -0.00341256
     102     dih      16      11      12      17   179.99999915    -0.00211880
     103     dih      11      12      13      14    -0.00000171    -0.00126139
     104     dih      11      12      13      18   179.99999915     0.00042291
     105     dih      17      12      13      14   180.00000148    -0.00255514
     106     dih      17      12      13      18     0.00000171    -0.00087085
     107     dih      12      13      14       2   180.00000171     0.04828459
     108     dih      12      13      14      15     0.00000171     0.01133248
     109     dih      12      13      14      10   255.86129775    -0.05501212
     110     dih      18      13      14       2     0.00000000     0.04660029
     111     dih      18      13      14      15   180.00000085     0.00964819
     112     dih      18      13      14      10    75.86129736    -0.05669642
     113     dih       2      14      15      19    -0.00000171    -0.04697536
     114     dih       2      14      15      16   179.99999852    -0.05368174
     115     dih       2      14      15      10    54.48589834    -0.09017666
     116     dih      13      14      15      19   179.99999852    -0.01002325
     117     dih      13      14      15      16    -0.00000148    -0.01672964
     118     dih      13      14      15      10   234.48589810    -0.05322455
     119     dih      10      14      15      19   -54.48589835     0.04320130
     120     dih      10      14      15      16   125.51410150     0.03649492
     121     dih      21      11      16      15   179.99999915    -0.00279621
     122     dih      21      11      16      20     0.00000000    -0.00111191
     123     dih      12      11      16      15    -0.00000085    -0.00198460
     124     dih      12      11      16      20   180.00000000    -0.00030030
     125     dih      14      15      16      11     0.00000191     0.01205569
     126     dih      14      15      16      20   180.00000171     0.01037139
     127     dih      19      15      16      11   180.00000226     0.00534931
     128     dih      19      15      16      20     0.00000191     0.00366501
     129     dih      10      15      16      11    86.69956322    -0.01376432
     130     dih      10      15      16      20   266.69956323    -0.01544862
     131     dih       6       2      10       8    60.32627910     0.00089318
     132     dih       6       2      10       7   180.43650753     0.00294483
     133     dih       6       2      10       9   -59.39742086     0.00302683
     134     dih       6       2      10      14   118.31924202    -0.00069755
     135     dih       6       2      10      15   145.07776256    -0.00204241
     136     dih      14       2      10       8   -57.99296292     0.00159073
     137     dih      14       2      10       7    62.11726551     0.00364238
     138     dih      14       2      10       9   182.28333712     0.00372438
     139     dih      14       2      10      15    26.75852053    -0.00134486
     140     dih       3       2      10       8   180.98682002     0.00004114
     141     dih       3       2      10       7   -58.90295155     0.00209280
     142     dih       3       2      10       9    61.26312006     0.00217480
     143     dih       3       2      10      14   238.97978294    -0.00154958
     144     dih       3       2      10      15   265.73830347    -0.00289445
     145     dih       8      10      14       2   120.55659496     0.00123949
     146     dih       8      10      14      13    10.81460513     0.00197560
     147     dih       8      10      14      15   248.36518556    -0.00848411
     148     dih       7      10      14       2   242.22438904     0.00209558
     149     dih       7      10      14      13   132.48239922     0.00283169
     150     dih       7      10      14      15    10.03297964    -0.00762802
     151     dih       9      10      14       2     2.85653387     0.00494493
     152     dih       9      10      14      13   253.11454404     0.00568104
     153     dih       9      10      14      15   130.66512447    -0.00477867
     154     dih       2      10      14      13   250.25801017     0.00073611
     155     dih       2      10      14      15   127.80859060    -0.00972360
     156     dih      15      10      14       2   232.19140940     0.00972360
     157     dih      15      10      14      13   122.44941957     0.01045971
     158     dih       8      10      15      14    65.66230388    -0.00998150
     159     dih       8      10      15      19   198.27580797     0.00647661
     160     dih       8      10      15      16   -46.23027986     0.00102270
     161     dih       7      10      15      14   192.05953883    -0.00823366
     162     dih       7      10      15      19   -35.32695708     0.00822445
     163     dih       7      10      15      16    80.16695508     0.00277054
     164     dih       9      10      15      14   -72.64127535    -0.01427282
     165     dih       9      10      15      19    59.97222874     0.00218529
     166     dih       9      10      15      16   175.46614091    -0.00326862
     167     dih       2      10      15      14   -31.94269627    -0.01864577
     168     dih       2      10      15      19   100.67080782    -0.00218766
     169     dih       2      10      15      16   216.16471998    -0.00764157
     170     dih      14      10      15      19   132.61350409     0.01645811
     171     dih      14      10      15      16   248.10741625     0.01100420
Hessian eigenvector     1(     0.001) has overlap with TSRC:    0.48781E+00
Hessian eigenvector     2(     0.006) has overlap with TSRC:    0.26266E-01
Hessian eigenvector     3(     0.010) has overlap with TSRC:    0.19355E-01
Hessian eigenvector     4(     0.010) has overlap with TSRC:    0.37439E-02
Hessian eigenvector     5(     0.010) has overlap with TSRC:    0.87683E-02
Hessian eigenvector     6(     0.011) has overlap with TSRC:    0.31538E-02
Hessian eigenvector     7(     0.011) has overlap with TSRC:    0.70097E-02
Hessian eigenvector     8(     0.012) has overlap with TSRC:    0.31371E-04
Hessian eigenvector     9(     0.012) has overlap with TSRC:    0.37726E-03
Hessian eigenvector    10(     0.012) has overlap with TSRC:    0.78500E-03
Hessian eigenvector    11(     0.012) has overlap with TSRC:    0.22917E-01
Hessian eigenvector    12(     0.012) has overlap with TSRC:    0.98976E-02
Hessian eigenvector    13(     0.013) has overlap with TSRC:    0.32245E-04
Hessian eigenvector    14(     0.013) has overlap with TSRC:    0.90972E-04
Hessian eigenvector    15(     0.016) has overlap with TSRC:    0.19029E-02
Hessian eigenvector    16(     0.020) has overlap with TSRC:    0.47236E-01
Hessian eigenvector    17(     0.021) has overlap with TSRC:    0.18743E+00
Hessian eigenvector    18(     0.022) has overlap with TSRC:    0.14055E+00
Hessian eigenvector    19(     0.029) has overlap with TSRC:    0.81207E-02
Hessian eigenvector    20(     0.031) has overlap with TSRC:    0.17463E-01
Hessian eigenvector    21(     0.040) has overlap with TSRC:    0.11416E-01
Hessian eigenvector    22(     0.044) has overlap with TSRC:    0.60891E-01
Hessian eigenvector    23(     0.051) has overlap with TSRC:    0.43258E-01
Hessian eigenvector    24(     0.060) has overlap with TSRC:    0.38966E-14
Hessian eigenvector    25(     0.067) has overlap with TSRC:    0.44498E-01
Hessian eigenvector    26(     0.085) has overlap with TSRC:    0.51898E-01
Hessian eigenvector    27(     0.087) has overlap with TSRC:    0.11876E-01
Hessian eigenvector    28(     0.090) has overlap with TSRC:    0.25171E-01
Hessian eigenvector    29(     0.100) has overlap with TSRC:    0.14398E-02
Hessian eigenvector    30(     0.121) has overlap with TSRC:    0.11800E+00
Hessian eigenvector    31(     0.123) has overlap with TSRC:    0.11570E-01
Hessian eigenvector    32(     0.147) has overlap with TSRC:    0.42283E-13
Hessian eigenvector    33(     0.170) has overlap with TSRC:    0.93153E-01
Hessian eigenvector    34(     0.216) has overlap with TSRC:    0.15729E-07
Hessian eigenvector    35(     0.223) has overlap with TSRC:    0.27708E-10
Hessian eigenvector    36(     0.223) has overlap with TSRC:    0.21767E-10
Hessian eigenvector    37(     0.223) has overlap with TSRC:    0.67243E-10
Hessian eigenvector    38(     0.223) has overlap with TSRC:    0.21565E-10
Hessian eigenvector    39(     0.225) has overlap with TSRC:    0.65322E-12
Hessian eigenvector    40(     0.231) has overlap with TSRC:    0.10880E-07
Hessian eigenvector    41(     0.234) has overlap with TSRC:    0.70935E-10
Hessian eigenvector    42(     0.248) has overlap with TSRC:    0.43081E-12
Hessian eigenvector    43(     0.248) has overlap with TSRC:    0.39952E-13
Hessian eigenvector    44(     0.354) has overlap with TSRC:    0.38860E-15
Hessian eigenvector    45(     0.383) has overlap with TSRC:    0.41860E-02
Hessian eigenvector    46(     0.429) has overlap with TSRC:    0.44727E-02
Hessian eigenvector    47(     0.485) has overlap with TSRC:    0.61093E-02
Hessian eigenvector    48(     0.500) has overlap with TSRC:    0.12554E-14
Hessian eigenvector    49(     0.503) has overlap with TSRC:    0.41537E-14
Hessian eigenvector    50(     0.503) has overlap with TSRC:    0.39976E-14
Hessian eigenvector    51(     0.503) has overlap with TSRC:    0.68256E-14
Hessian eigenvector    52(     0.503) has overlap with TSRC:    0.51903E-14
Hessian eigenvector    53(     0.508) has overlap with TSRC:    0.48218E-02
Hessian eigenvector    54(     0.508) has overlap with TSRC:    0.10476E-13
Hessian eigenvector    55(     0.508) has overlap with TSRC:    0.47822E-14
Hessian eigenvector    56(     0.508) has overlap with TSRC:    0.40777E-14
Hessian eigenvector    57(     0.508) has overlap with TSRC:    0.12337E-13
Hessian eigenvector    58(     0.508) has overlap with TSRC:    0.15891E-14
Hessian eigenvector    59(     0.509) has overlap with TSRC:    0.11830E-14
Hessian eigenvector    60(     0.517) has overlap with TSRC:    0.45520E-14
Hessian eigenvector    61(     0.524) has overlap with TSRC:    0.10903E-14
Hessian eigenvector    62(     0.547) has overlap with TSRC:    0.35784E-11
Hessian eigenvector    63(     0.547) has overlap with TSRC:    0.20430E-14
Hessian eigenvector    64(     0.547) has overlap with TSRC:    0.97128E-10
Hessian eigenvector    65(     0.563) has overlap with TSRC:    0.11329E-13
Hessian eigenvector    66(     0.600) has overlap with TSRC:    0.22806E-14
Hessian eigenvector     1 has the largest overlap with TSRC:  0.48781
           Primitive Internal Coordinates (atoms in internal order)
-------------------------------------------------------------------------------
    index    type      i       j       k       l   value(A,deg)     Max Ovl Vect
-------------------------------------------------------------------------------
       1     bnd       1       3       0       0     1.08957265    -0.00000000
       2     bnd       2       6       0       0     1.08435865    -0.00000000
       3     bnd       2      14       0       0     1.54000000    -0.00504006
       4     bnd       2       3       0       0     1.35638270     0.00000000
       5     bnd       3       4       0       0     1.46823204     0.00000000
       6     bnd       4      22       0       0     1.07000000    -0.00000000
       7     bnd       4       5       0       0     1.22560213     0.00000000
       8     bnd       5      23       0       0     1.70000000     0.00000000
       9     bnd       8      10       0       0     1.08374674    -0.00000000
      10     bnd       7      10       0       0     1.08307071     0.00000000
      11     bnd       9      10       0       0     1.08247534    -0.00000000
      12     bnd      11      21       0       0     1.07166668    -0.00000000
      13     bnd      11      12       0       0     1.40045638    -0.00071411
      14     bnd      12      13       0       0     1.40045639    -0.00000697
      15     bnd      13      14       0       0     1.40045639     0.00070715
      16     bnd      14      15       0       0     1.40045639     0.00346221
      17     bnd      15      19       0       0     1.07166666    -0.00000000
      18     bnd      11      16       0       0     1.40045639    -0.00070715
      19     bnd      15      16       0       0     1.40045639     0.00000697
      20     bnd      16      20       0       0     1.07166668     0.00000000
      21     bnd      12      17       0       0     1.07166668     0.00000000
      22     bnd      13      18       0       0     1.07166666    -0.00000000
      23     bnd      23      24       0       0     2.76900000    -0.00000000
      24     bnd       2      10       0       0     2.58285714     0.68987268
      25     bnd      10      14       0       0     2.88246877     0.09175027
      26     bnd      10      15       0       0     3.07855488    -0.00948378
      27     ang       6       2      14       0   117.41061246     0.00105755
      28     ang       6       2       3       0   120.77103538     0.00679440
      29     ang       6       2      10       0    84.09702452     0.02688514
      30     ang      14       2       3       0   120.89733876     0.01515325
      31     ang      14       2      10       0    84.70507562    -0.18875992
      32     ang       3       2      10       0   110.16403203     0.04133659
      33     ang       1       3       2       0   120.21909900    -0.00000020
      34     ang       1       3       4       0   115.74474309    -0.00000026
      35     ang       2       3       4       0   124.03410402    -0.00000021
      36     ang       3       4      22       0   114.37019779     0.00000000
      37     ang       3       4       5       0   126.33327002     0.00000000
      38     ang      22       4       5       0   119.29637471     0.00000000
      39     ang       4       5      23       0   117.00680806    -0.00000000
      40     ang       8      10       7       0   118.84988012    -0.00127906
      41     ang       8      10       9       0   118.87311123    -0.00070838
      42     ang       8      10       2       0    95.56458342     0.00053574
      43     ang       8      10      14       0    78.54912471    -0.00128165
      44     ang       8      10      15       0    89.23041841     0.00754319
      45     ang       7      10       9       0   118.99448321     0.00187079
      46     ang       7      10       2       0    97.44889075    -0.01484469
      47     ang       7      10      14       0    82.13060339     0.00925549
      48     ang       7      10      15       0    55.68992698     0.00718280
      49     ang       9      10       2       0    95.11483796     0.01468474
      50     ang       9      10      14       0   127.22419637    -0.00867527
      51     ang       9      10      15       0   140.74147852    -0.01524780
      52     ang       2      10      15       0    52.59994653    -0.03297696
      53     ang      21      11      12       0   120.00000003     0.00066754
      54     ang      21      11      16       0   119.99999998     0.00066754
      55     ang      12      11      16       0   119.99999999    -0.00133507
      56     ang      11      12      13       0   120.00000045     0.00033897
      57     ang      11      12      17       0   119.99999992    -0.00016948
      58     ang      13      12      17       0   119.99999963    -0.00016948
      59     ang      12      13      14       0   119.99999956     0.00373703
      60     ang      12      13      18       0   120.00000060    -0.00186852
      61     ang      14      13      18       0   119.99999984    -0.00186852
      62     ang       2      14      13       0   120.00000008    -0.01864000
      63     ang       2      14      15       0   119.99999944     0.02484829
      64     ang       2      14      10       0    63.15528843     0.21142118
      65     ang      13      14      15       0   120.00000047    -0.00620829
      66     ang      13      14      10       0   123.34795653    -0.02665727
      67     ang      15      14      10       0    84.36745140    -0.03753134
      68     ang      14      15      19       0   120.00000056    -0.00246217
      69     ang      14      15      16       0   119.99999929     0.00307841
      70     ang      14      15      10       0    68.71481583     0.03791878
      71     ang      19      15      16       0   120.00000015    -0.00061624
      72     ang      19      15      10       0    73.30633988     0.01855344
      73     ang      16      15      10       0   130.56157217    -0.05093854
      74     ang      11      16      15       0   120.00000024     0.00038895
      75     ang      11      16      20       0   119.99999995    -0.00019448
      76     ang      15      16      20       0   119.99999981    -0.00019448
      77     anY       5      23      24       0   179.99999915     0.00000000
      78     anZ       5      23      24       0   179.99999915     0.00000000
      79     dih       6       2      14      13    34.24865644     0.13039208
      80     dih       6       2      14      15   214.24865620    -0.03846705
      81     dih       6       2      14      10   -80.53711813     0.07167408
      82     dih       3       2      14      13   225.14946408    -0.00496807
      83     dih       3       2      14      15    45.14946384    -0.17382720
      84     dih       3       2      14      10   110.36368951    -0.06368608
      85     dih      10       2      14      13   114.78577457     0.05871800
      86     dih      10       2      14      15   -65.21422568    -0.11014112
      87     dih       6       2       3       1   185.43025046    -0.04589106
      88     dih       6       2       3       4     5.97435318    -0.04580129
      89     dih      14       2       3       1    -5.83693582     0.09343934
      90     dih      14       2       3       4   174.70716690     0.09352911
      91     dih      10       2       3       1    90.20089317    -0.10816721
      92     dih      10       2       3       4   -89.25500411    -0.10807744
      93     dih       1       3       4      22   180.37552847     0.00004597
      94     dih       1       3       4       5     0.52197473     0.00004593
      95     dih       2       3       4      22    -0.14644617    -0.00004015
      96     dih       2       3       4       5   180.00000148    -0.00004019
      97     dih       3       4       5      23   177.13092032     0.00000002
      98     dih      22       4       5      23    -2.71611828    -0.00000002
      99     dih      21      11      12      13   180.00000000     0.01606104
     100     dih      21      11      12      17    -0.00000085    -0.00766696
     101     dih      16      11      12      13     0.00000085     0.01014813
     102     dih      16      11      12      17   179.99999915    -0.01357987
     103     dih      11      12      13      14    -0.00000171    -0.02646762
     104     dih      11      12      13      18   179.99999915    -0.04318598
     105     dih      17      12      13      14   180.00000148    -0.00273962
     106     dih      17      12      13      18     0.00000171    -0.01945798
     107     dih      12      13      14       2   180.00000171    -0.15484532
     108     dih      12      13      14      15     0.00000171     0.01401381
     109     dih      12      13      14      10   255.86129775     0.09266213
     110     dih      18      13      14       2     0.00000000    -0.13812696
     111     dih      18      13      14      15   180.00000085     0.03073217
     112     dih      18      13      14      10    75.86129736     0.10938049
     113     dih       2      14      15      19    -0.00000171     0.15969932
     114     dih       2      14      15      16   179.99999852     0.18361861
     115     dih       2      14      15      10    54.48589834     0.22638700
     116     dih      13      14      15      19   179.99999852    -0.00915981
     117     dih      13      14      15      16    -0.00000148     0.01475948
     118     dih      13      14      15      10   234.48589810     0.05752787
     119     dih      10      14      15      19   -54.48589835    -0.06668768
     120     dih      10      14      15      16   125.51410150    -0.04276839
     121     dih      21      11      16      15   179.99999915     0.01271225
     122     dih      21      11      16      20     0.00000000    -0.00402446
     123     dih      12      11      16      15    -0.00000085     0.01862517
     124     dih      12      11      16      20   180.00000000     0.00188845
     125     dih      14      15      16      11     0.00000191    -0.03107897
     126     dih      14      15      16      20   180.00000171    -0.01434226
     127     dih      19      15      16      11   180.00000226    -0.00715968
     128     dih      19      15      16      20     0.00000191     0.00957703
     129     dih      10      15      16      11    86.69956322    -0.00169453
     130     dih      10      15      16      20   266.69956323     0.01504218
     131     dih       6       2      10       8    60.32627910     0.05732965
     132     dih       6       2      10       7   180.43650753     0.05333120
     133     dih       6       2      10       9   -59.39742086     0.05556730
     134     dih       6       2      10      14   118.31924202     0.02834511
     135     dih       6       2      10      15   145.07776256     0.06095063
     136     dih      14       2      10       8   -57.99296292     0.02898454
     137     dih      14       2      10       7    62.11726551     0.02498609
     138     dih      14       2      10       9   182.28333712     0.02722219
     139     dih      14       2      10      15    26.75852053     0.03260552
     140     dih       3       2      10       8   180.98682002     0.07845744
     141     dih       3       2      10       7   -58.90295155     0.07445899
     142     dih       3       2      10       9    61.26312006     0.07669508
     143     dih       3       2      10      14   238.97978294     0.04947290
     144     dih       3       2      10      15   265.73830347     0.08207842
     145     dih       8      10      14       2   120.55659496     0.03033504
     146     dih       8      10      14      13    10.81460513    -0.06411059
     147     dih       8      10      14      15   248.36518556    -0.02149315
     148     dih       7      10      14       2   242.22438904     0.02635564
     149     dih       7      10      14      13   132.48239922    -0.06808999
     150     dih       7      10      14      15    10.03297964    -0.02547254
     151     dih       9      10      14       2     2.85653387     0.03367166
     152     dih       9      10      14      13   253.11454404    -0.06077397
     153     dih       9      10      14      15   130.66512447    -0.01815653
     154     dih       2      10      14      13   250.25801017    -0.09444563
     155     dih       2      10      14      15   127.80859060    -0.05182818
     156     dih      15      10      14       2   232.19140940     0.05182818
     157     dih      15      10      14      13   122.44941957    -0.04261745
     158     dih       8      10      15      14    65.66230388    -0.01964536
     159     dih       8      10      15      19   198.27580797    -0.06687464
     160     dih       8      10      15      16   -46.23027986    -0.05661321
     161     dih       7      10      15      14   192.05953883    -0.03153362
     162     dih       7      10      15      19   -35.32695708    -0.07876290
     163     dih       7      10      15      16    80.16695508    -0.06850146
     164     dih       9      10      15      14   -72.64127535    -0.01129854
     165     dih       9      10      15      19    59.97222874    -0.05852782
     166     dih       9      10      15      16   175.46614091    -0.04826638
     167     dih       2      10      15      14   -31.94269627    -0.01830390
     168     dih       2      10      15      19   100.67080782    -0.06553318
     169     dih       2      10      15      16   216.16471998    -0.05527175
     170     dih      14      10      15      19   132.61350409    -0.04722928
     171     dih      14      10      15      16   248.10741625    -0.03696785
 
----------------------------------------------------------------------
Geometry Convergence after Step   1       (Hartree/Angstrom,Angstrom)
----------------------------------------------------------------------
current energy                               -4.68636649 Hartree
energy change                      -4.68636649     0.00024000    F
constrained gradient max            0.48172192     0.00100000    F
constrained gradient rms            0.09693136     0.00066667    F
gradient max                        0.48172192
gradient rms                        0.09693136
cart. step max                      0.10699508     0.01000000    F
cart. step rms                      0.02178777     0.00666667    F
 
 
--------
Geometry
--------
Formula: C10H11I2O
Atoms
  Index Symbol   x (angstrom)   y (angstrom)   z (angstrom)
      1      H     0.20166965    -1.84111623    -0.23420721
      2      C    -0.93048910    -0.11665983     0.28657976
      3      C     0.21164998    -0.76570069    -0.05989816
      4      C     1.50610301    -0.10365862    -0.22607450
      5      O     2.56693646    -0.65258210    -0.54499426
      6      H    -0.94821312     0.96431934     0.37323934
      7      H    -1.18561611    -1.14852338     3.03085563
      8      H    -2.13420980     0.44946757     2.87768066
      9      H    -0.27790291     0.48095068     3.05504247
     10      C    -1.18730365    -0.07741664     2.87284697
     11      C    -4.74224500    -2.18469717     0.35353131
     12      C    -4.64565372    -0.91268171    -0.22312281
     13      C    -3.41620651    -0.24334801    -0.24085514
     14      C    -2.28176605    -0.84625468     0.31691079
     15      C    -2.37944263    -2.11798009     0.89520326
     16      C    -3.60825896    -2.78808044     0.91067091
     17      H    -5.51369740    -0.45110612    -0.65291390
     18      H    -3.34210901     0.73015997    -0.68588681
     19      H    -1.51163775    -2.58004763     1.32433473
     20      H    -3.68237422    -3.76187666     1.35510254
     21      H    -5.68504643    -2.69670716     0.36913522
     22      H     1.49360728     0.95481049    -0.05479766
     23      I     3.99703109     0.31443048    -0.75610217
     24      I     6.26900593     1.87038322    -1.09228836
 
Total System Charge             0.00000
 
 *** GOStep2 ***

 Energy gradients wrt nuclear displacements
 ==========================================

     Atom      Cartesian (a.u./angstrom)
                 X         Y         Z
 ----------------------------------------
     1 H     0.001082 -0.001428  0.000184
     2 C     0.076262  0.021873 -0.017625
     3 C    -0.101238  0.003941  0.018021
     4 C     0.225844  0.015716 -0.048400
     5 O     0.294231  0.283695 -0.030653
     6 H     0.001476 -0.003889  0.005255
     7 H    -0.001124 -0.005467 -0.002724
     8 H    -0.001122  0.001120 -0.001444
     9 H    -0.000783 -0.000794 -0.002649
    10 C    -0.006833 -0.006350 -0.001873
    11 C    -0.018624 -0.012409  0.001376
    12 C    -0.022077  0.011190 -0.010256
    13 C     0.011108  0.019524 -0.011081
    14 C    -0.053826 -0.030913  0.005594
    15 C     0.031477  0.008349  0.018297
    16 C    -0.007825 -0.024854  0.010692
    17 H     0.014515 -0.008344  0.007801
    18 H    -0.001047 -0.016761  0.007611
    19 H    -0.011085  0.008433 -0.006138
    20 H     0.000811  0.016779 -0.008028
    21 H     0.016277  0.008685 -0.000413
    22 H    -0.009930 -0.033628 -0.002546
    23 I    -0.397881 -0.226871  0.062999
    24 I    -0.039687 -0.027596  0.006000
 ----------------------------------------
 Mulliken charges used for AMS results%charges...
Hessian eigenvector     1(    -0.027) has overlap with TSRC:    0.41949E+00
Hessian eigenvector     1 has the largest overlap with TSRC:  0.41949
           Primitive Internal Coordinates (atoms in internal order)
-------------------------------------------------------------------------------
    index    type      i       j       k       l   value(A,deg)     Max Ovl Vect
-------------------------------------------------------------------------------
       1     bnd       1       3       0       0     1.08949614     0.00079834
       2     bnd       2       6       0       0     1.08459208    -0.00107074
       3     bnd       2      14       0       0     1.53596160     0.02466558
       4     bnd       2       3       0       0     1.35859584     0.00033676
       5     bnd       3       4       0       0     1.46339432     0.01355171
       6     bnd       4      22       0       0     1.07231000    -0.00778004
       7     bnd       4       5       0       0     1.23628249     0.02887075
       8     bnd       5      23       0       0     1.73920975     0.00032441
       9     bnd       8      10       0       0     1.08363351     0.00017794
      10     bnd       7      10       0       0     1.08269998     0.00070206
      11     bnd       9      10       0       0     1.08257978    -0.00042028
      12     bnd      11      21       0       0     1.07297355    -0.00351683
      13     bnd      11      12       0       0     1.39995828     0.00205022
      14     bnd      12      13       0       0     1.39995088     0.00235844
      15     bnd      13      14       0       0     1.40055504    -0.00163969
      16     bnd      14      15       0       0     1.40044579    -0.00249781
      17     bnd      15      19       0       0     1.07272809    -0.00298365
      18     bnd      11      16       0       0     1.40014293     0.00101532
      19     bnd      15      16       0       0     1.39973688     0.00176036
      20     bnd      16      20       0       0     1.07298258    -0.00358654
      21     bnd      12      17       0       0     1.07297355    -0.00353803
      22     bnd      13      18       0       0     1.07296851    -0.00362740
      23     bnd      23      24       0       0     2.77414486    -0.01293702
      24     bnd       2      10       0       0     2.59928294    -0.59377759
      25     bnd      10      14       0       0     2.88474776    -0.07645599
      26     bnd      10      15       0       0     3.08158549    -0.02902876
      27     ang       6       2      14       0   117.22407877     0.03021816
      28     ang       6       2       3       0   120.68065674     0.00600275
      29     ang       6       2      10       0    84.48176684    -0.09046529
      30     ang      14       2       3       0   121.17833440    -0.04493288
      31     ang      14       2      10       0    84.29544181     0.15989981
      32     ang       3       2      10       0   110.12214411    -0.01609927
      33     ang       1       3       2       0   120.30850815    -0.00510222
      34     ang       1       3       4       0   115.88014588    -0.00749644
      35     ang       2       3       4       0   123.81123649     0.01138810
      36     ang       3       4      22       0   114.71573880    -0.02249262
      37     ang       3       4       5       0   125.97584398     0.01456744
      38     ang      22       4       5       0   119.30666210     0.00809282
      39     ang       4       5      23       0   119.34140858     0.03108242
      40     ang       8      10       7       0   118.79810085     0.00972022
      41     ang       8      10       9       0   118.84943784     0.00318442
      42     ang       8      10       2       0    95.63062407    -0.01380367
      43     ang       8      10      14       0    78.58071699    -0.00180066
      44     ang       8      10      15       0    89.24256042    -0.00430573
      45     ang       7      10       9       0   118.97195359    -0.00329230
      46     ang       7      10       2       0    97.47644909     0.00598300
      47     ang       7      10      14       0    82.31259956    -0.02478023
      48     ang       7      10      15       0    55.88692422    -0.02480633
      49     ang       9      10       2       0    95.29277208    -0.01905391
      50     ang       9      10      14       0   127.24917722     0.00561770
      51     ang       9      10      15       0   140.76118005     0.00803972
      52     ang       2      10      15       0    52.38713155     0.03869364
      53     ang      21      11      12       0   120.01277235    -0.00091791
      54     ang      21      11      16       0   120.01469535    -0.00112381
      55     ang      12      11      16       0   119.97251881     0.00204172
      56     ang      11      12      13       0   120.01504676     0.00023796
      57     ang      11      12      17       0   120.00297462    -0.00092276
      58     ang      13      12      17       0   119.98191926     0.00068480
      59     ang      12      13      14       0   120.03186760    -0.00436762
      60     ang      12      13      18       0   119.97976414     0.00229346
      61     ang      14      13      18       0   119.98780656     0.00207416
      62     ang       2      14      13       0   120.01687533     0.01008182
      63     ang       2      14      15       0   120.05713662    -0.01562549
      64     ang       2      14      10       0    63.71224939    -0.18335347
      65     ang      13      14      15       0   119.92496390     0.00554367
      66     ang      13      14      10       0   123.05416316     0.07201711
      67     ang      15      14      10       0    84.41145589     0.01624142
      68     ang      14      15      19       0   119.99443167     0.00022206
      69     ang      14      15      16       0   120.03467583    -0.00056993
      70     ang      14      15      10       0    68.69744447    -0.01910889
      71     ang      19      15      16       0   119.97070398     0.00034787
      72     ang      19      15      10       0    73.47352324    -0.03348858
      73     ang      16      15      10       0   130.50659792     0.03195993
      74     ang      11      16      15       0   120.02024754    -0.00288580
      75     ang      11      16      20       0   119.99879588     0.00102093
      76     ang      15      16      20       0   119.97986639     0.00186487
      77     anY       5      23      24       0   180.01977986    -0.00033612
      78     anZ       5      23      24       0   180.33905599     0.00289276
      79     dih       6       2      14      13    33.86850943     0.03119422
      80     dih       6       2      14      15   213.50011139     0.14565460
      81     dih       6       2      14      10   -80.78894325     0.02212013
      82     dih       3       2      14      13   224.75731120     0.08123540
      83     dih       3       2      14      15    44.38891317     0.19569578
      84     dih       3       2      14      10   110.09985852     0.07216130
      85     dih      10       2      14      13   114.65745267     0.00907410
      86     dih      10       2      14      15   -65.71094536     0.12353447
      87     dih       6       2       3       1   185.61086091    -0.02523712
      88     dih       6       2       3       4     5.48542448     0.13514756
      89     dih      14       2       3       1    -5.65239233    -0.07459372
      90     dih      14       2       3       4   174.22217124     0.08579096
      91     dih      10       2       3       1    89.96987940     0.09442333
      92     dih      10       2       3       4   -90.15555703     0.25480802
      93     dih       1       3       4      22   179.71461855     0.15300901
      94     dih       1       3       4       5     0.20305469     0.07505717
      95     dih       2       3       4      22    -0.16501826    -0.00084677
      96     dih       2       3       4       5   180.32341788    -0.07879861
      97     dih       3       4       5      23   177.55719762    -0.09242930
      98     dih      22       4       5      23    -1.93398780    -0.17380977
      99     dih      21      11      12      13   179.85812075     0.02772689
     100     dih      21      11      12      17    -0.23051916     0.05200812
     101     dih      16      11      12      13    -0.09961743     0.01959439
     102     dih      16      11      12      17   179.81174266     0.04387562
     103     dih      11      12      13      14     0.06871392    -0.01259469
     104     dih      11      12      13      18   179.79605835     0.05382154
     105     dih      17      12      13      14   180.15733503    -0.03687592
     106     dih      17      12      13      18    -0.11532054     0.02954031
     107     dih      12      13      14       2   179.47845694     0.15174935
     108     dih      12      13      14      15    -0.15363519     0.03728897
     109     dih      12      13      14      10   255.92942176    -0.04513571
     110     dih      18      13      14       2    -0.24886541     0.08533312
     111     dih      18      13      14      15   180.11904247    -0.02912725
     112     dih      18      13      14      10    76.20209941    -0.11155194
     113     dih       2      14      15      19     0.47980360    -0.14430511
     114     dih       2      14      15      16   180.63778846    -0.18344333
     115     dih       2      14      15      10    55.19710046    -0.21220573
     116     dih      13      14      15      19   180.11174621    -0.02984473
     117     dih      13      14      15      16     0.26973107    -0.06898296
     118     dih      13      14      15      10   234.82904307    -0.09774535
     119     dih      10      14      15      19   -54.71729686     0.06790062
     120     dih      10      14      15      16   125.44068800     0.02876239
     121     dih      21      11      16      15   180.25796929    -0.05942088
     122     dih      21      11      16      20    -0.12191176     0.02873821
     123     dih      12      11      16      15     0.21570665    -0.05128838
     124     dih      12      11      16      20   179.83582560     0.03687071
     125     dih      14      15      16      11    -0.30094343     0.07598266
     126     dih      14      15      16      20   180.07886519    -0.01217642
     127     dih      19      15      16      11   179.85700369     0.03684443
     128     dih      19      15      16      20     0.23681231    -0.05131465
     129     dih      10      15      16      11    86.37343198     0.06531034
     130     dih      10      15      16      20   266.75324061    -0.02284875
     131     dih       6       2      10       8    60.36534471    -0.03028296
     132     dih       6       2      10       7   180.44140365    -0.02204906
     133     dih       6       2      10       9   -59.37422651    -0.02822020
     134     dih       6       2      10      14   118.13429470     0.01856486
     135     dih       6       2      10      15   145.04471542    -0.01852612
     136     dih      14       2      10       8   -57.76895000    -0.04884782
     137     dih      14       2      10       7    62.30710895    -0.04061392
     138     dih      14       2      10       9   182.49147878    -0.04678506
     139     dih      14       2      10      15    26.91042072    -0.03709099
     140     dih       3       2      10       8   181.06620482    -0.05850536
     141     dih       3       2      10       7   -58.85773624    -0.05027146
     142     dih       3       2      10       9    61.32663360    -0.05644260
     143     dih       3       2      10      14   238.83515481    -0.00965754
     144     dih       3       2      10      15   265.74557553    -0.04674852
     145     dih       8      10      14       2   120.81524554    -0.05461167
     146     dih       8      10      14      13    10.67926262     0.04955134
     147     dih       8      10      14      15   248.37864143     0.00934358
     148     dih       7      10      14       2   242.36066893    -0.03578057
     149     dih       7      10      14      13   132.22468601     0.06838244
     150     dih       7      10      14      15     9.92406482     0.02817469
     151     dih       9      10      14       2     3.11716677    -0.05824921
     152     dih       9      10      14      13   252.98118385     0.04591380
     153     dih       9      10      14      15   130.68056266     0.00570604
     154     dih       2      10      14      13   249.86401708     0.10416301
     155     dih       2      10      14      15   127.56339589     0.06395526
     156     dih      15      10      14       2   232.43660411    -0.06395526
     157     dih      15      10      14      13   122.30062119     0.04020775
     158     dih       8      10      15      14    65.68788483     0.00751488
     159     dih       8      10      15      19   198.17307644     0.04941074
     160     dih       8      10      15      16   -46.24130065     0.02532802
     161     dih       7      10      15      14   191.90500831     0.03690757
     162     dih       7      10      15      19   -35.60980008     0.07880344
     163     dih       7      10      15      16    79.97582283     0.05472072
     164     dih       9      10      15      14   -72.61526098    -0.00213508
     165     dih       9      10      15      19    59.86993063     0.03976078
     166     dih       9      10      15      16   175.45555354     0.01567806
     167     dih       2      10      15      14   -32.01610939     0.02610931
     168     dih       2      10      15      19   100.46908222     0.06800518
     169     dih       2      10      15      16   216.05470513     0.04392245
     170     dih      14      10      15      19   132.48519161     0.04189586
     171     dih      14      10      15      16   248.07081452     0.01781314
 
----------------------------------------------------------------------
Geometry Convergence after Step   2       (Hartree/Angstrom,Angstrom)
----------------------------------------------------------------------
current energy                               -4.71464885 Hartree
energy change                      -0.02828237     0.00024000    F
constrained gradient max            0.39788511     0.00100000    F
constrained gradient rms            0.08043729     0.00066667    F
gradient max                        0.39788511
gradient rms                        0.08043729
cart. step max                      0.10596253     0.01000000    F
cart. step rms                      0.02067921     0.00666667    F
 
 
--------
Geometry
--------
Formula: C10H11I2O
Atoms
  Index Symbol   x (angstrom)   y (angstrom)   z (angstrom)
      1      H     0.22570367    -1.85256868    -0.20801265
      2      C    -0.93988911    -0.13459449     0.28827610
      3      C     0.21558645    -0.77586324    -0.04532274
      4      C     1.47736501    -0.08794001    -0.21827494
      5      O     2.54903642    -0.63561867    -0.53761341
      6      H    -0.96344668     0.94850068     0.35727021
      7      H    -1.19910272    -1.14798150     3.05454427
      8      H    -2.15054955     0.44478557     2.88728740
      9      H    -0.29566544     0.48198171     3.07541491
     10      C    -1.20246310    -0.07936816     2.88713747
     11      C    -4.74440123    -2.18384305     0.34569199
     12      C    -4.64215235    -0.91022138    -0.22295787
     13      C    -3.41280863    -0.24452076    -0.23341491
     14      C    -2.27879422    -0.85352383     0.32018255
     15      C    -2.38495020    -2.12759684     0.89299365
     16      C    -3.61412184    -2.79191300     0.90330880
     17      H    -5.51047617    -0.44140215    -0.65485460
     18      H    -3.33568233     0.73478130    -0.67544390
     19      H    -1.51830704    -2.59759645     1.32453096
     20      H    -3.69240542    -3.77052331     1.34671871
     21      H    -5.69248235    -2.69503793     0.35632828
     22      H     1.46248890     0.98137640    -0.06421954
     23      I     4.04638051     0.36375905    -0.77752561
     24      I     6.37496845     1.85101331    -1.15205253
 
Total System Charge             0.00000
 
 *** GOStep3 ***

 Energy gradients wrt nuclear displacements
 ==========================================

     Atom      Cartesian (a.u./angstrom)
                 X         Y         Z
 ----------------------------------------
     1 H     0.000826 -0.001365  0.000040
     2 C     0.062874  0.020183 -0.012505
     3 C    -0.074097 -0.000409  0.012052
     4 C     0.159436  0.013715 -0.034583
     5 O     0.208652  0.197208 -0.025349
     6 H     0.000403 -0.002986  0.004679
     7 H    -0.001051 -0.003590 -0.002286
     8 H    -0.000745  0.000779 -0.001101
     9 H    -0.000494 -0.000695 -0.001939
    10 C    -0.006805 -0.007735 -0.004448
    11 C    -0.012572 -0.008601  0.000736
    12 C    -0.015398  0.007617 -0.006888
    13 C     0.009392  0.013346 -0.008092
    14 C    -0.045919 -0.025589  0.004803
    15 C     0.024762  0.009841  0.016059
    16 C    -0.006020 -0.017404  0.007376
    17 H     0.010073 -0.005896  0.005452
    18 H    -0.000804 -0.011770  0.005139
    19 H    -0.007709  0.006212 -0.004320
    20 H     0.000599  0.011706 -0.005549
    21 H     0.011341  0.006008 -0.000280
    22 H    -0.006427 -0.023627 -0.001533
    23 I    -0.281151 -0.156603  0.047842
    24 I    -0.029167 -0.020346  0.004697
 ----------------------------------------
 Mulliken charges used for AMS results%charges...
Hessian eigenvector     1(    -0.024) has overlap with TSRC:    0.42238E+00
Hessian eigenvector     1 has the largest overlap with TSRC:  0.42238
           Primitive Internal Coordinates (atoms in internal order)
-------------------------------------------------------------------------------
    index    type      i       j       k       l   value(A,deg)     Max Ovl Vect
-------------------------------------------------------------------------------
       1     bnd       1       3       0       0     1.08897428     0.00088170
       2     bnd       2       6       0       0     1.08554608    -0.00107576
       3     bnd       2      14       0       0     1.52004747     0.02482069
       4     bnd       2       3       0       0     1.36295179    -0.00012657
       5     bnd       3       4       0       0     1.44749298     0.01285813
       6     bnd       4      22       0       0     1.08045914    -0.00715107
       7     bnd       4       5       0       0     1.24515405     0.02700429
       8     bnd       5      23       0       0     1.81613684     0.00111858
       9     bnd       8      10       0       0     1.08333055     0.00014392
      10     bnd       7      10       0       0     1.08165188     0.00051773
      11     bnd       9      10       0       0     1.08297926    -0.00040235
      12     bnd      11      21       0       0     1.07716811    -0.00317551
      13     bnd      11      12       0       0     1.39854555     0.00160343
      14     bnd      12      13       0       0     1.39805316     0.00204656
      15     bnd      13      14       0       0     1.40119363    -0.00191108
      16     bnd      14      15       0       0     1.40094385    -0.00298667
      17     bnd      15      19       0       0     1.07619443    -0.00276207
      18     bnd      11      16       0       0     1.39936310     0.00076042
      19     bnd      15      16       0       0     1.39724202     0.00185926
      20     bnd      16      20       0       0     1.07722737    -0.00324515
      21     bnd      12      17       0       0     1.07717804    -0.00320811
      22     bnd      13      18       0       0     1.07720500    -0.00329478
      23     bnd      23      24       0       0     2.78828217    -0.01176645
      24     bnd       2      10       0       0     2.61267592    -0.59969181
      25     bnd      10      14       0       0     2.88912845    -0.07736147
      26     bnd      10      15       0       0     3.09356203    -0.02481468
      27     ang       6       2      14       0   116.83663010     0.02338682
      28     ang       6       2       3       0   120.22464673     0.00323858
      29     ang       6       2      10       0    85.03816927    -0.08136367
      30     ang      14       2       3       0   121.96179424    -0.03714786
      31     ang      14       2      10       0    84.29506047     0.16145277
      32     ang       3       2      10       0   109.79248679    -0.01899468
      33     ang       1       3       2       0   120.64000194    -0.00392654
      34     ang       1       3       4       0   116.35604800    -0.00587487
      35     ang       2       3       4       0   123.00031116     0.00864634
      36     ang       3       4      22       0   116.18762277    -0.01769194
      37     ang       3       4       5       0   124.87958770     0.01130679
      38     ang      22       4       5       0   118.92927521     0.00654939
      39     ang       4       5      23       0   120.09516233     0.02894051
      40     ang       8      10       7       0   118.73117017     0.00830346
      41     ang       8      10       9       0   118.81423920     0.00258356
      42     ang       8      10       2       0    95.64234460    -0.01116706
      43     ang       8      10      14       0    78.68123119    -0.00061091
      44     ang       8      10      15       0    89.19278204    -0.00504562
      45     ang       7      10       9       0   118.85418069    -0.00273256
      46     ang       7      10       2       0    97.62887822     0.00792515
      47     ang       7      10      14       0    82.75822907    -0.02236816
      48     ang       7      10      15       0    56.41598159    -0.02192178
      49     ang       9      10       2       0    95.72409831    -0.01957003
      50     ang       9      10      14       0   127.25005842     0.00526260
      51     ang       9      10      15       0   140.83338900     0.00935588
      52     ang       2      10      15       0    51.91844575     0.03879175
      53     ang      21      11      12       0   120.03615451    -0.00078745
      54     ang      21      11      16       0   120.05043028    -0.00092610
      55     ang      12      11      16       0   119.91327499     0.00171355
      56     ang      11      12      13       0   120.06348643    -0.00005756
      57     ang      11      12      17       0   120.02942540    -0.00064135
      58     ang      13      12      17       0   119.90702816     0.00069891
      59     ang      12      13      14       0   120.11554405    -0.00395512
      60     ang      12      13      18       0   119.92816003     0.00201004
      61     ang      14      13      18       0   119.95422096     0.00194508
      62     ang       2      14      13       0   119.93490752     0.00867215
      63     ang       2      14      15       0   120.36189198    -0.01448367
      64     ang       2      14      10       0    64.13622575    -0.18513478
      65     ang      13      14      15       0   119.70189946     0.00581152
      66     ang      13      14      10       0   122.41713882     0.06422045
      67     ang      15      14      10       0    84.75800308     0.01834970
      68     ang      14      15      19       0   120.00701428     0.00124452
      69     ang      14      15      16       0   120.13701428    -0.00152912
      70     ang      14      15      10       0    68.43645567    -0.02086119
      71     ang      19      15      16       0   119.85585533     0.00028460
      72     ang      19      15      10       0    73.91041382    -0.03029641
      73     ang      16      15      10       0   130.26284225     0.02928636
      74     ang      11      16      15       0   120.06703041    -0.00198328
      75     ang      11      16      20       0   120.00517471     0.00064890
      76     ang      15      16      20       0   119.92665518     0.00133438
      77     anY       5      23      24       0   180.03426698     0.00073721
      78     anZ       5      23      24       0   178.84563439    -0.02774735
      79     dih       6       2      14      13    32.60702127     0.00914763
      80     dih       6       2      14      15   212.19086252     0.13269774
      81     dih       6       2      14      10   -81.49139910     0.00966404
      82     dih       3       2      14      13   223.90069957     0.07014930
      83     dih       3       2      14      15    43.48454083     0.19369941
      84     dih       3       2      14      10   109.80227920     0.07066571
      85     dih      10       2      14      13   114.09842037    -0.00051640
      86     dih      10       2      14      15   -66.31773838     0.12303370
      87     dih       6       2       3       1   185.77691367    -0.02064997
      88     dih       6       2       3       4     5.05732286     0.13237678
      89     dih      14       2       3       1    -5.89096554    -0.08172283
      90     dih      14       2       3       4   173.38944364     0.07130392
      91     dih      10       2       3       1    89.84914979     0.09073734
      92     dih      10       2       3       4   -90.87044103     0.24376409
      93     dih       1       3       4      22   179.51024371     0.15529352
      94     dih       1       3       4       5     0.20218753     0.07892280
      95     dih       2       3       4      22     0.20119077     0.00849553
      96     dih       2       3       4       5   180.89313459    -0.06787518
      97     dih       3       4       5      23   177.79611932    -0.09185423
      98     dih      22       4       5      23    -1.49443513    -0.17159136
      99     dih      21      11      12      13   179.80440993     0.02846756
     100     dih      21      11      12      17    -0.28478048     0.05392059
     101     dih      16      11      12      13    -0.05944936     0.02219315
     102     dih      16      11      12      17   179.85136023     0.04764618
     103     dih      11      12      13      14     0.28395250    -0.00745931
     104     dih      11      12      13      18   179.75973512     0.05607564
     105     dih      17      12      13      14   180.37303311    -0.03291233
     106     dih      17      12      13      18    -0.15118427     0.03062262
     107     dih      12      13      14       2   179.09967241     0.15236682
     108     dih      12      13      14      15    -0.48693096     0.02881671
     109     dih      12      13      14      10   255.76521781    -0.05088503
     110     dih      18      13      14       2    -0.37597286     0.08883187
     111     dih      18      13      14      15   180.03742377    -0.03471824
     112     dih      18      13      14      10    76.28957255    -0.11441998
     113     dih       2      14      15      19     0.75877537    -0.14755006
     114     dih       2      14      15      16   180.88289974    -0.18845807
     115     dih       2      14      15      10    55.84451088    -0.21343633
     116     dih      13      14      15      19   180.34358549    -0.02399995
     117     dih      13      14      15      16     0.46770987    -0.06490796
     118     dih      13      14      15      10   235.42932100    -0.08988623
     119     dih      10      14      15      19   -55.08573551     0.06588627
     120     dih      10      14      15      16   125.03838887     0.02497827
     121     dih      21      11      16      15   180.17629009    -0.06455881
     122     dih      21      11      16      20    -0.21232919     0.02871676
     123     dih      12      11      16      15     0.04012976    -0.05828440
     124     dih      12      11      16      20   179.65151048     0.03499118
     125     dih      14      15      16      11    -0.24536407     0.07964180
     126     dih      14      15      16      20   180.14294827    -0.01363377
     127     dih      19      15      16      11   179.87857191     0.03873380
     128     dih      19      15      16      20     0.26688424    -0.05454178
     129     dih      10      15      16      11    86.01457508     0.06427906
     130     dih      10      15      16      20   266.40288742    -0.02899652
     131     dih       6       2      10       8    60.16487796    -0.03670442
     132     dih       6       2      10       7   180.20376531    -0.02901062
     133     dih       6       2      10       9   -59.61361777    -0.03436462
     134     dih       6       2      10      14   117.65036982     0.00988435
     135     dih       6       2      10      15   144.69049948    -0.02791865
     136     dih      14       2      10       8   -57.48549186    -0.04658877
     137     dih      14       2      10       7    62.55339548    -0.03889497
     138     dih      14       2      10       9   182.73601241    -0.04424897
     139     dih      14       2      10      15    27.04012966    -0.03780300
     140     dih       3       2      10       8   180.54706499    -0.06483852
     141     dih       3       2      10       7   -59.41404767    -0.05714472
     142     dih       3       2      10       9    60.76856926    -0.06249872
     143     dih       3       2      10      14   238.03255685    -0.01824976
     144     dih       3       2      10      15   265.07268651    -0.05605276
     145     dih       8      10      14       2   121.15010539    -0.05137667
     146     dih       8      10      14      13    10.71941376     0.05309738
     147     dih       8      10      14      15   248.63577956     0.01339816
     148     dih       7      10      14       2   242.45632861    -0.03516890
     149     dih       7      10      14      13   132.02563698     0.06930514
     150     dih       7      10      14      15     9.94200277     0.02960593
     151     dih       9      10      14       2     3.42078895    -0.05508668
     152     dih       9      10      14      13   252.99009731     0.04938737
     153     dih       9      10      14      15   130.90646311     0.00968816
     154     dih       2      10      14      13   249.56930836     0.10447405
     155     dih       2      10      14      15   127.48567416     0.06477483
     156     dih      15      10      14       2   232.51432584    -0.06477483
     157     dih      15      10      14      13   122.08363420     0.03969922
     158     dih       8      10      15      14    65.95996771     0.01162513
     159     dih       8      10      15      19   198.30961782     0.05364062
     160     dih       8      10      15      16   -45.92550739     0.03184210
     161     dih       7      10      15      14   191.86417920     0.03828657
     162     dih       7      10      15      19   -35.78617069     0.08030207
     163     dih       7      10      15      16    79.97870409     0.05850355
     164     dih       9      10      15      14   -72.27673040     0.00279394
     165     dih       9      10      15      19    60.07291971     0.04480944
     166     dih       9      10      15      16   175.83779450     0.02301092
     167     dih       2      10      15      14   -31.85414245     0.02632596
     168     dih       2      10      15      19   100.49550766     0.06834146
     169     dih       2      10      15      16   216.26038245     0.04654293
     170     dih      14      10      15      19   132.34965011     0.04201550
     171     dih      14      10      15      16   248.11452490     0.02021698
 
----------------------------------------------------------------------
Geometry Convergence after Step   3       (Hartree/Angstrom,Angstrom)
----------------------------------------------------------------------
current energy                               -4.75366363 Hartree
energy change                      -0.03901477     0.00024000    F
constrained gradient max            0.28115797     0.00100000    F
constrained gradient rms            0.05698378     0.00066667    F
gradient max                        0.28115797
gradient rms                        0.05698378
cart. step max                      0.09543199     0.01000000    F
cart. step rms                      0.01974834     0.00666667    F
 
 
--------
Geometry
--------
Formula: C10H11I2O
Atoms
  Index Symbol   x (angstrom)   y (angstrom)   z (angstrom)
      1      H     0.24928915    -1.88365494    -0.17843317
      2      C    -0.94633072    -0.16643907     0.27584619
      3      C     0.22257701    -0.80507086    -0.03703893
      4      C     1.45545674    -0.10106199    -0.21641618
      5      O     2.53883931    -0.65348037    -0.52215749
      6      H    -0.96840907     0.91918781     0.31847046
      7      H    -1.19984283    -1.14217122     3.07346166
      8      H    -2.14738518     0.44909373     2.88604861
      9      H    -0.29310822     0.48384916     3.07782177
     10      C    -1.20070370    -0.07704540     2.88956057
     11      C    -4.75423729    -2.16948356     0.34784008
     12      C    -4.64010559    -0.89624110    -0.21633948
     13      C    -3.40618169    -0.24311463    -0.22749240
     14      C    -2.27230061    -0.86414876     0.31708553
     15      C    -2.39437535    -2.13997499     0.88624475
     16      C    -3.62815612    -2.79008246     0.89877740
     17      H    -5.50756147    -0.41445898    -0.64587365
     18      H    -3.32195661     0.74080161    -0.66800576
     19      H    -1.53052863    -2.62346883     1.31716042
     20      H    -3.71519043    -3.77159637     1.34409148
     21      H    -5.71132399    -2.67226717     0.36135511
     22      H     1.43992910     0.97964355    -0.08736120
     23      I     4.10829127     0.37082410    -0.78497732
     24      I     6.39714598     1.94644530    -1.15967582
 
Total System Charge             0.00000
 
 *** GOStep4 ***

 Energy gradients wrt nuclear displacements
 ==========================================

     Atom      Cartesian (a.u./angstrom)
                 X         Y         Z
 ----------------------------------------
     1 H     0.000656 -0.000792  0.000025
     2 C     0.043337  0.015047 -0.007535
     3 C    -0.044485 -0.001233  0.005877
     4 C     0.097061  0.008586 -0.021099
     5 O     0.153952  0.138551 -0.021366
     6 H    -0.000389 -0.002047  0.004105
     7 H    -0.000894 -0.001878 -0.001645
     8 H    -0.000405  0.000501 -0.000728
     9 H    -0.000206 -0.000635 -0.001116
    10 C    -0.006747 -0.008841 -0.007168
    11 C    -0.007225 -0.004912  0.000524
    12 C    -0.009256  0.004281 -0.003876
    13 C     0.007103  0.007434 -0.005630
    14 C    -0.032444 -0.016819  0.004445
    15 C     0.017756  0.010690  0.013788
    16 C    -0.003921 -0.010720  0.003978
    17 H     0.005874 -0.003586  0.003180
    18 H    -0.000615 -0.007031  0.002923
    19 H    -0.004512  0.004005 -0.002535
    20 H     0.000352  0.006937 -0.003153
    21 H     0.006686  0.003490 -0.000168
    22 H    -0.003904 -0.014081 -0.000522
    23 I    -0.197833 -0.114351  0.034253
[...]
     6     H      -0.005855  -0.013077   0.003167
     7     H       0.000707  -0.000254   0.000468
     8     H       0.000035   0.000712   0.000184
     9     H      -0.002445  -0.001392   0.001555
    10     C       0.000182   0.000138  -0.000085
    11     C       0.000010  -0.000021   0.000005
    12     C      -0.000031   0.000026  -0.000006
    13     C       0.000037  -0.000025  -0.000011
    14     C      -0.000425   0.000311  -0.000101
    15     C       0.000136   0.000030   0.000018
    16     C      -0.000059   0.000051  -0.000020
    17     H       0.000116  -0.000195   0.000082
    18     H      -0.000244  -0.001083   0.000271
    19     H       0.000069   0.000029  -0.000089
    20     H       0.000100  -0.000003   0.000026
    21     H      -0.000117  -0.000027  -0.000020
    22     H      -0.067622   0.991329  -0.073785
    23     I      -0.000099  -0.000042   0.000022
    24     I       0.000041   0.000027  -0.000010
 
 Mode:    63      Frequency (cm-1):     3062.0886     Intensity (km/mol):        0.2846
 Index  Atom      ---- Displacements (x/y/z) ----
     1     H       0.000145  -0.001260   0.000131
     2     C      -0.000057  -0.002068   0.000552
     3     C       0.000025   0.000093  -0.000095
     4     C      -0.000159   0.000037  -0.000004
     5     O       0.000069  -0.000014  -0.000005
     6     H      -0.000531   0.025272  -0.005508
     7     H      -0.080878   0.516085  -0.214737
     8     H       0.530941  -0.221706  -0.010565
     9     H      -0.461851  -0.366514   0.034916
    10     C       0.001093   0.006169   0.016229
    11     C       0.000022  -0.000021   0.000014
    12     C      -0.000059   0.000065  -0.000020
    13     C       0.000027   0.000015  -0.000063
    14     C       0.000031  -0.000093  -0.000111
    15     C      -0.000019   0.000112  -0.000047
    16     C      -0.000040  -0.000066   0.000017
    17     H       0.000690  -0.000560   0.000193
    18     H      -0.000178  -0.000864  -0.000011
    19     H       0.000377  -0.000426  -0.000082
    20     H       0.000023   0.000714  -0.000181
    21     H      -0.000254  -0.000119  -0.000029
    22     H       0.000214  -0.000873  -0.000192
    23     I      -0.000001  -0.000001   0.000000
    24     I       0.000000   0.000000  -0.000000
 
 Mode:    64      Frequency (cm-1):     3106.0986     Intensity (km/mol):        4.4900
 Index  Atom      ---- Displacements (x/y/z) ----
     1     H      -0.005332   0.081877  -0.006004
     2     C      -0.002257   0.082075  -0.016322
     3     C       0.002520  -0.007369   0.000044
     4     C       0.001239   0.000861  -0.000219
     5     O      -0.000485   0.000069   0.000091
     6     H       0.016207  -0.963404   0.192969
     7     H      -0.003465   0.021430  -0.008316
     8     H       0.013312  -0.005628  -0.000312
     9     H      -0.007925  -0.006606   0.000340
    10     C      -0.000196  -0.000933   0.001222
    11     C       0.000840   0.000286   0.000050
    12     C      -0.001723   0.001748  -0.000655
    13     C      -0.001498  -0.011113   0.002409
    14     C      -0.001909   0.000363  -0.000229
    15     C      -0.002072   0.001034  -0.000513
    16     C      -0.000120  -0.000753   0.000154
    17     H       0.027569  -0.019804   0.008644
    18     H       0.017559   0.126310  -0.027168
    19     H       0.022641  -0.016982   0.007374
    20     H       0.001640   0.010764  -0.002377
    21     H      -0.010294  -0.004911  -0.000289
    22     H      -0.002887  -0.012632   0.001156
    23     I       0.000004   0.000003  -0.000001
    24     I      -0.000001  -0.000001   0.000000
 
 Mode:    65      Frequency (cm-1):     3124.6428     Intensity (km/mol):        4.9847
 Index  Atom      ---- Displacements (x/y/z) ----
     1     H       0.000288   0.003258  -0.000489
     2     C      -0.000010   0.010148  -0.001971
     3     C       0.000067  -0.000416   0.000004
     4     C       0.000127   0.000205  -0.000018
     5     O      -0.000058  -0.000000   0.000011
     6     H      -0.000392  -0.120286   0.023957
     7     H      -0.000375   0.003754  -0.001516
     8     H       0.000724  -0.000236  -0.000288
     9     H      -0.001186  -0.001106   0.000068
    10     C       0.000073  -0.000242   0.000165
    11     C      -0.026004  -0.011585  -0.000918
    12     C       0.033415  -0.025341   0.010776
    13     C       0.005955   0.059089  -0.012938
    14     C       0.001863   0.000023   0.000212
    15     C       0.005899  -0.005676   0.002213
    16     C       0.002852   0.021959  -0.004795
    17     H      -0.407906   0.295464  -0.128686
    18     H      -0.081226  -0.690891   0.150381
    19     H      -0.078862   0.059592  -0.025529
    20     H      -0.031596  -0.261477   0.057443
    21     H       0.313152   0.140655   0.010863
    22     H      -0.000288  -0.002212   0.000174
    23     I       0.000000   0.000000  -0.000000
    24     I       0.000000  -0.000000   0.000000
 
 Mode:    66      Frequency (cm-1):     3132.0404     Intensity (km/mol):        0.0154
 Index  Atom      ---- Displacements (x/y/z) ----
     1     H      -0.008230   0.108527  -0.007035
     2     C      -0.000405   0.003152  -0.000525
     3     C       0.000819  -0.009586   0.000606
     4     C       0.000413  -0.000003  -0.000068
     5     O      -0.000100   0.000026   0.000018
     6     H      -0.001043  -0.034460   0.006934
     7     H      -0.000041   0.001844  -0.000780
     8     H      -0.001809   0.000751  -0.000144
     9     H       0.000308  -0.000011  -0.000133
    10     C       0.000114  -0.000243   0.000109
    11     C       0.033962   0.016336   0.000919
    12     C      -0.000400  -0.002012   0.000391
    13     C       0.004923   0.041624  -0.009003
    14     C       0.000915  -0.000626   0.000242
    15     C      -0.019305   0.015404  -0.006432
    16     C      -0.007119  -0.054728   0.011969
    17     H      -0.008464   0.008245  -0.003108
    18     H      -0.057111  -0.479376   0.104228
    19     H       0.240802  -0.177661   0.076437
    20     H       0.078554   0.643899  -0.141388
    21     H      -0.406907  -0.183438  -0.013913
    22     H      -0.000283   0.000222  -0.000012
    23     I       0.000002   0.000001  -0.000000
    24     I      -0.000001  -0.000001   0.000000
 
 Mode:    67      Frequency (cm-1):     3141.5122     Intensity (km/mol):       11.5000
 Index  Atom      ---- Displacements (x/y/z) ----
     1     H      -0.020141   0.255077  -0.016368
     2     C      -0.000950  -0.005133   0.001059
     3     C       0.002107  -0.021893   0.001382
     4     C       0.000585  -0.000385  -0.000068
     5     O      -0.000039   0.000054   0.000005
     6     H       0.000112   0.065055  -0.012598
     7     H       0.000088  -0.000484   0.000097
     8     H      -0.000663   0.000189   0.000128
     9     H       0.000514   0.000375   0.000056
    10     C       0.000015   0.000049   0.000074
    11     C      -0.037151  -0.014243  -0.001842
    12     C       0.036993  -0.023669   0.010940
    13     C      -0.004697  -0.033897   0.007238
    14     C      -0.001784  -0.000245  -0.000170
    15     C      -0.024457   0.020066  -0.008284
    16     C      -0.002192  -0.032003   0.007278
    17     H      -0.409872   0.291720  -0.128226
    18     H       0.045677   0.380221  -0.082533
    19     H       0.297924  -0.221685   0.095274
    20     H       0.042493   0.364401  -0.080250
    21     H       0.420168   0.185842   0.015064
    22     H      -0.000149   0.004309  -0.000368
    23     I      -0.000001   0.000000   0.000000
    24     I       0.000000  -0.000000   0.000000
 
 Mode:    68      Frequency (cm-1):     3146.7449     Intensity (km/mol):        2.6703
 Index  Atom      ---- Displacements (x/y/z) ----
     1     H      -0.062690   0.806051  -0.052655
     2     C      -0.002688  -0.004163   0.001240
     3     C       0.006488  -0.069405   0.004301
     4     C       0.002040  -0.000654  -0.000282
     5     O      -0.000273   0.000153   0.000046
     6     H      -0.002610   0.065237  -0.012385
     7     H       0.000442  -0.001123  -0.000097
     8     H      -0.000885   0.000455  -0.000110
     9     H      -0.000023  -0.000057  -0.000103
    10     C       0.000015   0.000144   0.000207
    11     C      -0.005244  -0.004505   0.000310
    12     C      -0.024457   0.017049  -0.007547
    13     C       0.002892   0.012879  -0.002588
    14     C       0.000325  -0.001659   0.000347
    15     C      -0.020747   0.014258  -0.006306
    16     C       0.004446   0.027169  -0.005778
    17     H       0.273509  -0.196181   0.085828
    18     H      -0.018550  -0.141305   0.030478
    19     H       0.226333  -0.165571   0.071961
    20     H      -0.038490  -0.306867   0.067251
    21     H       0.067362   0.032907   0.001683
    22     H      -0.000262   0.009726  -0.000943
    23     I       0.000000   0.000002  -0.000000
    24     I      -0.000001  -0.000001   0.000000
 
 Mode:    69      Frequency (cm-1):     3152.9879     Intensity (km/mol):       16.5553
 Index  Atom      ---- Displacements (x/y/z) ----
     1     H       0.030607  -0.394141   0.025995
     2     C       0.001144   0.002662  -0.000727
     3     C      -0.003251   0.033703  -0.002054
     4     C      -0.000878   0.000321   0.000124
     5     O       0.000079  -0.000067  -0.000014
     6     H       0.001425  -0.036462   0.007034
     7     H      -0.000341   0.002499  -0.000690
     8     H      -0.001421   0.000474   0.000067
     9     H       0.001414   0.000902   0.000016
    10     C       0.000044  -0.000376  -0.000031
    11     C      -0.047632  -0.022947  -0.001286
    12     C      -0.037452   0.028322  -0.012092
    13     C       0.004291   0.018477  -0.003697
    14     C       0.000409  -0.001073   0.000329
    15     C      -0.023974   0.018398  -0.007854
    16     C       0.001201  -0.012912   0.003213
    17     H       0.420912  -0.304828   0.132844
    18     H      -0.026798  -0.202746   0.043698
    19     H       0.285508  -0.210667   0.090385
    20     H       0.013700   0.139538  -0.031164
    21     H       0.536974   0.242792   0.018218
    22     H      -0.000128  -0.005204   0.000518
    23     I       0.000002   0.000000  -0.000000
    24     I      -0.000000  -0.000000   0.000000
 
 Mode:    70      Frequency (cm-1):     3159.0145     Intensity (km/mol):        9.0593
 Index  Atom      ---- Displacements (x/y/z) ----
     1     H      -0.023657   0.310091  -0.020840
     2     C      -0.000604  -0.000200   0.000323
     3     C       0.002397  -0.026500   0.001584
     4     C       0.000853  -0.000138  -0.000131
     5     O      -0.000179   0.000068   0.000032
     6     H      -0.002430   0.005092  -0.001114
     7     H       0.000413  -0.003075   0.000987
     8     H       0.001909  -0.000566  -0.000098
     9     H      -0.001290  -0.000744  -0.000068
    10     C      -0.000109   0.000386  -0.000049
    11     C      -0.028163  -0.011448  -0.001264
    12     C      -0.014157   0.011457  -0.004729
    13     C       0.000954   0.005774  -0.001222
    14     C       0.001010   0.001853  -0.000347
    15     C       0.050527  -0.035389   0.015696
    16     C      -0.005805  -0.041308   0.008937
    17     H       0.160526  -0.117106   0.050874
    18     H      -0.007293  -0.059678   0.012854
    19     H      -0.565916   0.413822  -0.178632
    20     H       0.055008   0.450339  -0.098796
    21     H       0.303073   0.134350   0.010924
    22     H       0.000219   0.003529  -0.000399
    23     I       0.000002   0.000002  -0.000000
    24     I      -0.000001  -0.000001   0.000000
 
 Mode:    71      Frequency (cm-1):     3237.1538     Intensity (km/mol):        1.7748
 Index  Atom      ---- Displacements (x/y/z) ----
     1     H       0.000181  -0.001168   0.000186
     2     C      -0.000044   0.000463  -0.000148
     3     C      -0.000119   0.000052  -0.000009
     4     C       0.000004   0.000236  -0.000031
     5     O      -0.000013  -0.000007   0.000002
     6     H       0.000262  -0.007149   0.002462
     7     H       0.068125  -0.321010   0.141525
     8     H      -0.429524   0.197609   0.013828
     9     H      -0.622880  -0.499626   0.031581
    10     C       0.082873   0.052534  -0.015818
    11     C      -0.000061  -0.000000  -0.000016
    12     C      -0.000030  -0.000015   0.000010
    13     C      -0.000051   0.000031   0.000042
    14     C       0.000008   0.000010   0.000016
    15     C      -0.000155  -0.000026  -0.000006
    16     C       0.000037   0.000025   0.000007
    17     H       0.000196  -0.000117   0.000055
    18     H       0.000164   0.000422  -0.000130
    19     H       0.001243  -0.000827   0.000358
    20     H      -0.000006  -0.000203   0.000035
    21     H       0.000445   0.000198  -0.000005
    22     H       0.000182  -0.002764   0.000019
    23     I      -0.000000  -0.000000   0.000000
    24     I       0.000000   0.000000  -0.000000
 
 Mode:    72      Frequency (cm-1):     3241.8985     Intensity (km/mol):        1.2453
 Index  Atom      ---- Displacements (x/y/z) ----
     1     H      -0.000244   0.001767  -0.000070
     2     C       0.000041  -0.000603  -0.000053
     3     C      -0.000118  -0.000001  -0.000013
     4     C      -0.000034  -0.000062   0.000034
     5     O       0.000001   0.000011  -0.000004
     6     H       0.000015   0.007557  -0.002939
     7     H      -0.098438   0.670820  -0.296119
     8     H      -0.613058   0.248970   0.027504
     9     H       0.058733   0.024902   0.001140
    10     C       0.054923  -0.079643   0.022624
    11     C      -0.000004   0.000039  -0.000015
    12     C      -0.000062  -0.000006   0.000004
    13     C      -0.000034  -0.000154   0.000128
    14     C       0.000089   0.000106   0.000076
    15     C       0.000277  -0.000295   0.000098
    16     C       0.000038   0.000007  -0.000011
    17     H       0.000251  -0.000166   0.000089
    18     H       0.000273   0.002549  -0.000632
    19     H      -0.003736   0.002794  -0.001236
    20     H       0.000008  -0.000025   0.000005
    21     H      -0.000064  -0.000006  -0.000023
    22     H       0.000053   0.000517  -0.000001
    23     I      -0.000001  -0.000000   0.000000
    24     I       0.000000   0.000000  -0.000000

PES point character: Geometry corresponds to a transition state.
                     (Hint: Very small negative frequencies do not count towards being a
                     transition state, as they usually indicate noise on a very flat PES. See
                     the PESPointCharacter%NegativeFrequenciesTolerance keyword documentation.)




 ============================
 Statistical Thermal Analysis  ***  ideal gas assumed  ***
 ============================
  
 Pressure:                  1.000000 atm.
 Temperature:             298.150000 K



 Moments of Inertia [amu*bohr^2] and principal axis
 ==================================================

        1064.7136      26545.8726      26789.2711
 ------------------------------------------------
          -0.9277          0.3248          0.1838
          -0.3340         -0.9423         -0.0208
           0.1665         -0.0807          0.9827


 The rotational contribution to the molecular entropy includes
 a term, dependent on the symmetry number sigma. The results 
 reported below were computed using sigma = 1, determined from
 the point group symmetry of the input geometry (NOSYM). 
 If this is not the correct symmetry, try symmetrizing the molecule before
 running the calculation (note: linear molecules should be aligned along one
 of the Cartesian axes).
 Contributions from frequencies below 20 1/cm are not included in vibrational sums.
 Their contributions, if any, are reported separately.


     Temp                                                        Transl      Rotat     Vibrat     Total
     ----                                                        ------      -----     ------     -----

     298.15   Entropy (cal/mol-K):                               43.857     34.981     49.442    128.280
              Nuclear Internal Energy (kcal/mol):                 0.889      0.889    116.236    118.014
              Constant Volume Heat Capacity (cal/mol-K):          2.981      2.981     43.772     49.733
          (c) Constant Volume Heat Capacity (cal/mol-K):          2.981      2.981     40.242     46.204

 Contributions from frequencies below 20 1/cm
 Frequency (1/cm):                                   10.617    17.381
 Entropy (cal/mol-K):                                 7.892     6.913
 Nuclear Internal Energy (kcal/mol):                  0.593     0.593
 Constant Volume Heat Capacity (cal/mol-K):           1.987     1.986

       Summary of energy terms
                                                   hartree              eV         kcal/mol           kJ/mol
                                      --------------------     -----------       ----------      -----------
      Energy from Engine:               -4.844654369150096       -131.8298         -3040.07        -12719.64
      Nuclear Internal Energy:           0.188067108778599          5.1176           118.01           493.77
  (c) Nuclear Internal Energy:           0.186236410288122          5.0678           116.87           488.96
      Internal Energy U:                -4.656587260371497       -126.7122         -2922.05        -12225.87
      pV/n = RT:                         0.000944186013486          0.0257             0.59             2.48
      Enthalpy H:                       -4.655643074358011       -126.6865         -2921.46        -12223.39
      -T*S:                             -0.060949826776530         -1.6585           -38.25          -160.02
  (c) -T*S:                             -0.062855800726093         -1.7104           -39.44          -165.03
      Gibbs free energy:                -4.716592901134541       -128.3450         -2959.71        -12383.41
 
 
 
  (c) The properties marked with this symbol have been corrected using 'low vibrational frequency free rotor
      interpolation corrections'. For those terms all positive frequencies are used (also ones below 20 1/cm),
      but the contribution to the partition function of small vibrational frequencies is modified as described
      in the following paper:
      S. Grimme, 'Supramolecular Binding Thermodynamics by Dispersion-Corrected Density Functional Theory'
      (Chem. Eur. J. 2012, 18, 9955-9964)
      Configuration: Dampener Frequency          :   100.000 1/cm
                     Dampener Alpha              :     4.000
                     Averaging Moment of Inertia : 1.000E-44 kg m2

--------------
Atomic charges
--------------
  Index   Atom    Charge
      1      H   -0.2082
      2      C    0.2062
      3      C    0.2316
      4      C    0.6645
      5      O   -0.5136
      6      H   -0.1883
      7      H   -0.1509
      8      H   -0.1632
      9      H   -0.1707
     10      C    0.5581
     11      C    0.2493
     12      C    0.2449
     13      C    0.2980
     14      C    0.0232
     15      C    0.2965
     16      C    0.2461
     17      H   -0.2429
     18      H   -0.2588
     19      H   -0.2572
     20      H   -0.2422
     21      H   -0.2390
     22      H   -0.2875
     23      I    0.0298
     24      I   -0.1256


Dipole moment vector    (Debye):    -8.69230693   -1.23679146    2.18161064
              magnitude (Debye):     9.04683801


Final PES point is a transition state. Transition state search successful!


AMS application finished. Exiting.
NORMAL TERMINATION
     Total cpu time:  112680.45
  Total system time:     856.88
 Total elapsed time:  228145.71
 WARNING: total elapsed time is much higher than the (CPU+system) time. 
 Make sure the machine is not oversubscribed and has enough memory, SCM_TMPDIR p
 oints to a fast file system, and the network is fast enough.
