

 Parallel Execution: Process Information
 ==============================================================================
 Rank   Node Name                              NodeID   MyNodeRank  NodeMaster
    0   node115                                   0          0          0
    1   node115                                   0          1         -1
    2   node115                                   0          2         -1
    3   node115                                   0          3         -1
 ==============================================================================


May use up to 122928MB of RAM as shared memory on node 0

 *******************************************************************************
 *                                                                             *
 *  --------------------------------                                           *
 *   Amsterdam Modeling Suite (AMS)              2021.102                      *
 *  --------------------------------                                           *
 *                                               r95042 2021-06-07             *
 *                                                                             *
 *                                                                             *
 *                              =================                              *
 *                              |               |                              *
 *                              |     A M S     |                              *
 *                              |               |                              *
 *                              =================                              *
 *                                                                             *
 *                                                                             *
 *   Online information and documentation:  https://www.scm.com/support/       *
 *   E-mail:  support@scm.com   info@scm.com                                   *
 *                                                                             *
 *   Scientific publications using AMS results must be properly referenced     *
 *   See the User Manuals (or the web site) for recommended citations          *
 *   The terms and conditions of the End User License Agreement apply to       *
 *   the use of AMS, https://www.scm.com/license-terms/                        *
 *                                                                             *
 **********************  x86_64_linux_intel / intelmpi  ************************
 
 Licensed to: VU/FEW (+ SARA) / ALGEMEEN / Amsterdam / THE NETHERLANDS
 SCM User ID: u7668
  
 AMS 2021.102  RunTime: Jan23-2022 03:22:42  ShM Nodes: 1  Procs: 4

 AMS jobname: 42.no_catalyst.H_H.P2
 AMS jobid  : 575504420

 Start   directory: /scistor/tc/yhk800/MasterProject/calculations/no_catalyst_H_H/42.no_catalyst.H_H.P2/
 Results directory: /scistor/tc/yhk800/MasterProject/calculations/no_catalyst_H_H/42.no_catalyst.H_H.P2/
 Scratch directory: /scratch/3982/amstmp_42.no_catalyst.H_H.P2_kid0.575504420/


 Communication costs MPI_COMM_WORLD:      0.914 usec per message,   0.0069 usec per 8-byte item
 Communication costs for intra-node:      0.892 usec per message,   0.0166 usec per 8-byte item

 RNG seed: -762600224 1769317934 -241776687 -629687380 -1650843439 1523551195 587225182 249179536



                      ************************************************************************
                      *  ADF 2021.102  RunTime: Jan23-2022 03:22:43  ShM Nodes: 1  Procs: 4  *
                      ************************************************************************
  
       ***************************
       *  GEOMETRY OPTIMIZATION  *
       ***************************

Optimization Method                    Quasi Newton
Optimization Coordinates               Delocalized Coordinates
Optimize lattice                       F
 
 ------------------------------------------------------
 Convergence criteria (Hartree,Angstrom)
 ------------------------------------------------------
 Maximum gradient               0.001000000000
 Maximum rms gradient           0.000666666667
 Maximum step allowed           0.010000000000
 Maximum rms step allowed       0.006666666667
 Maximum energy change allowe   0.000130000000
 Maximum stress energy allowe   0.000500000000
 
Initial model Hessian                  Automatic Hessian
 
------------------------------------
Quasi-Newton Optimizer Parameters
------------------------------------
Hessian Update Method                  BFGS
Maximum number of steps                  250
First GDIIS cycle                          0
Maximum GDIIS vectors                      0
Trust radius (bohr)                        0.200000
Trust radius varies                        T
Constraints converged at all steps         T
Use projector                              T
 
 Rigid motions settings for: old optimizer
 Atomic rotations (x,y,z):     T T T
 Atomic translations (x,y,z):  T T T
 Tolerance:                   1.000000000000000E-006
 
--------
Geometry
--------
Formula: C4H8O
Atoms
  Index Symbol   x (angstrom)   y (angstrom)   z (angstrom)
      1      C     0.34014525     0.47537547     0.08649891
      2      C     1.44917050    -0.52141954     0.43843194
      3      H     1.57655236    -1.21513058    -0.39839383
      4      C    -0.98874204    -0.19287684    -0.15337505
      5      H     0.59146769     1.01229411    -0.83472899
      6      H     0.21538809     1.22990327     0.86933387
      7      H     0.94943070    -0.63506481     2.54523508
      8      C     1.12581751    -1.31007000     1.70609085
      9      H     1.96053711    -1.96497403     1.95638596
     10      H     0.23668167    -1.92185618     1.55669255
     11      O    -1.15591356    -1.37849772    -0.20502989
     12      H     2.36674459     0.01275489     0.57115524
     13      H    -1.79198825     0.49962408    -0.29528344
 
Total System Charge             0.00000
 
 
----------------
ADF Engine Input
----------------
 
 NumericalQuality VeryGood
 SCF
 Converge 1.0e-6
 Iterations 99
 End
 SYMMETRY NOSYM
 XC
 GGA OLYP
 End
 basis
 core None
 type TZ2P
 End
 

 Title: *** (NO TITLE) ***

 Using automatic Hessian for delocalized coordinates.
 *** GOStep1 ***

 Energy gradients wrt nuclear displacements
 ==========================================

     Atom      Cartesian (a.u./angstrom)
                 X         Y         Z
 ----------------------------------------
     1 C    -0.014312  0.021108 -0.000482
     2 C     0.030922  0.008708 -0.001249
     3 H    -0.002939  0.000093  0.001197
     4 C    -0.044224 -0.015512 -0.004454
     5 H     0.002003 -0.008727  0.004069
     6 H     0.002606 -0.006676 -0.001704
     7 H    -0.000796 -0.001638 -0.007092
     8 C    -0.005678  0.003184  0.002967
     9 H    -0.003285  0.003999 -0.005708
    10 H    -0.003188  0.002127 -0.005292
    11 O     0.019031  0.041175  0.010069
    12 H    -0.029235 -0.015437 -0.000591
    13 H     0.049094 -0.032404  0.008270
 ----------------------------------------
 Mulliken charges used for AMS results%charges...
 
----------------------------------------------------------------------
Geometry Convergence after Step   1       (Hartree/Angstrom,Angstrom)
----------------------------------------------------------------------
current energy                               -2.55782042 Hartree
energy change                      -2.55782042     0.00013000    F
constrained gradient max            0.04909759     0.00100000    F
constrained gradient rms            0.01683191     0.00066667    F
gradient max                        0.04909759
gradient rms                        0.01683191
cart. step max                      0.18225862     0.01000000    F
cart. step rms                      0.06740693     0.00666667    F
 
 
--------
Geometry
--------
Formula: C4H8O
Atoms
  Index Symbol   x (angstrom)   y (angstrom)   z (angstrom)
      1      C     0.30813369     0.43372972     0.08044541
      2      C     1.43542584    -0.54016059     0.46792349
      3      H     1.58881895    -1.23346564    -0.36572101
      4      C    -1.06135303    -0.13885770    -0.23011136
      5      H     0.58584435     0.97835468    -0.83292530
      6      H     0.17774091     1.19493986     0.86012984
      7      H     1.02317724    -0.66788300     2.60337812
      8      C     1.20327700    -1.33851025     1.75745728
      9      H     2.08384165    -1.94332448     1.98945956
     10      H     0.35034726    -2.00793391     1.66128690
     11      O    -1.33817218    -1.31776623    -0.34651516
     12      H     2.34605126     0.03914774     0.58824885
     13      H    -1.82784132     0.63179193    -0.39004342
 
Total System Charge             0.00000
 
 *** GOStep2 ***

 Energy gradients wrt nuclear displacements
 ==========================================

     Atom      Cartesian (a.u./angstrom)
                 X         Y         Z
 ----------------------------------------
     1 C    -0.004276  0.013714 -0.007372
     2 C     0.018080  0.007442  0.001786
     3 H    -0.003597  0.001078  0.000138
     4 C    -0.018228  0.025497 -0.001026
     5 H    -0.001138 -0.006641  0.000499
     6 H     0.003135 -0.005624  0.000838
     7 H    -0.000034 -0.000167 -0.003312
     8 C     0.000476 -0.005499  0.005096
     9 H    -0.001590  0.000814 -0.001308
    10 H     0.003384  0.002702 -0.001130
    11 O    -0.001681 -0.012391 -0.000941
    12 H    -0.011088 -0.007015  0.004155
    13 H     0.016558 -0.013912  0.002576
 ----------------------------------------
 Mulliken charges used for AMS results%charges...

 dE(predicted):    -0.63262E-02, dE(actual):    -0.48297E-02, Trust radius:    0.400000, all in a.u.
 
----------------------------------------------------------------------
Geometry Convergence after Step   2       (Hartree/Angstrom,Angstrom)
----------------------------------------------------------------------
current energy                               -2.56265010 Hartree
energy change                      -0.00482968     0.00013000    F
constrained gradient max            0.02550594     0.00100000    F
constrained gradient rms            0.00823519     0.00066667    F
gradient max                        0.02550594
gradient rms                        0.00823519
cart. step max                      0.05639617     0.01000000    F
cart. step rms                      0.01885975     0.00666667    F
 
 
--------
Geometry
--------
Formula: C4H8O
Atoms
  Index Symbol   x (angstrom)   y (angstrom)   z (angstrom)
      1      C     0.30733725     0.42780289     0.09015763
      2      C     1.42967518    -0.55328526     0.46056058
      3      H     1.57238959    -1.25705143    -0.36722357
      4      C    -1.05220177    -0.14386429    -0.25614772
      5      H     0.59202300     1.00857059    -0.80151699
      6      H     0.15501066     1.17643394     0.88115327
      7      H     1.05157329    -0.64730935     2.60942833
      8      C     1.20601991    -1.32917798     1.76527321
      9      H     2.08281945    -1.94317503     1.99339392
     10      H     0.34073900    -1.99022997     1.69816841
     11      O    -1.32184003    -1.31538728    -0.40291133
     12      H     2.35280725     0.02633262     0.55039950
     13      H    -1.84106116     0.63040269    -0.37772204
 
Total System Charge             0.00000
 
 *** GOStep3 ***

 Energy gradients wrt nuclear displacements
 ==========================================

     Atom      Cartesian (a.u./angstrom)
                 X         Y         Z
 ----------------------------------------
     1 C    -0.002726  0.007156 -0.000016
     2 C     0.008727  0.000496 -0.001008
     3 H    -0.000785  0.000373 -0.000411
     4 C    -0.006517  0.004045 -0.006936
     5 H    -0.000969 -0.003705 -0.000401
     6 H     0.001469 -0.001554  0.000377
     7 H    -0.000151 -0.000050 -0.000826
     8 C    -0.001430 -0.003272  0.002778
     9 H    -0.000230  0.000739 -0.000739
    10 H     0.001340  0.000948 -0.000149
    11 O    -0.000246  0.001751  0.002467
    12 H    -0.003817 -0.001179  0.002133
    13 H     0.005335 -0.005746  0.002731
 ----------------------------------------
 Mulliken charges used for AMS results%charges...

 dE(predicted):    -0.56984E-03, dE(actual):    -0.76286E-03, Trust radius:    0.400000, all in a.u.
 
----------------------------------------------------------------------
Geometry Convergence after Step   3       (Hartree/Angstrom,Angstrom)
----------------------------------------------------------------------
current energy                               -2.56341295 Hartree
energy change                      -0.00076286     0.00013000    F
constrained gradient max            0.00872715     0.00100000    F
constrained gradient rms            0.00315080     0.00066667    F
gradient max                        0.00872715
gradient rms                        0.00315080
cart. step max                      0.13282638     0.01000000    F
cart. step rms                      0.04221573     0.00666667    F
 
 
--------
Geometry
--------
Formula: C4H8O
Atoms
  Index Symbol   x (angstrom)   y (angstrom)   z (angstrom)
      1      C     0.29607394     0.42031619     0.12409696
      2      C     1.41049071    -0.57447607     0.45156224
      3      H     1.50959232    -1.29885927    -0.36554098
      4      C    -1.04764932    -0.15608517    -0.25986727
      5      H     0.58253600     1.06017789    -0.72988769
      6      H     0.11891045     1.14061175     0.93926372
      7      H     1.13236256    -0.60621984     2.62119586
      8      C     1.22078593    -1.30937858     1.78286028
      9      H     2.08442973    -1.95158731     1.98945118
     10      H     0.32732319    -1.94128000     1.77647934
     11      O    -1.27350331    -1.30914429    -0.53573771
     12      H     2.35670884    -0.01024475     0.47358409
     13      H    -1.84276942     0.62623157    -0.42444683
 
Total System Charge             0.00000
 
 *** GOStep4 ***

 Energy gradients wrt nuclear displacements
 ==========================================

     Atom      Cartesian (a.u./angstrom)
                 X         Y         Z
 ----------------------------------------
     1 C     0.001727 -0.000926 -0.004498
     2 C    -0.005023 -0.006649 -0.003248
     3 H     0.002726 -0.000446 -0.000858
     4 C    -0.001960 -0.020465  0.025270
     5 H     0.002520  0.002223 -0.000134
     6 H    -0.002642  0.002454 -0.001121
     7 H    -0.000031  0.000184  0.001695
     8 C    -0.003251  0.000520 -0.000889
     9 H     0.001358  0.000604 -0.000057
    10 H    -0.001208 -0.000836  0.000736
    11 O     0.004558  0.014474 -0.005766
    12 H     0.003586  0.004061 -0.001647
    13 H    -0.002361  0.004802 -0.009482
 ----------------------------------------
 Mulliken charges used for AMS results%charges...

 dE(predicted):    -0.52897E-03, dE(actual):     0.30865E-03, Trust radius:    0.089856, all in a.u.
 
----------------------------------------------------------------------
Geometry Convergence after Step   4       (Hartree/Angstrom,Angstrom)
----------------------------------------------------------------------
current energy                               -2.56310430 Hartree
energy change                       0.00030865     0.00013000    F
constrained gradient max            0.02526946     0.00100000    F
constrained gradient rms            0.00647046     0.00066667    F
gradient max                        0.02526946
gradient rms                        0.00647046
cart. step max                      0.01697317     0.01000000    F
cart. step rms                      0.00504128     0.00666667    T
 
 
--------
Geometry
--------
Formula: C4H8O
Atoms
  Index Symbol   x (angstrom)   y (angstrom)   z (angstrom)
      1      C     0.29753989     0.42154382     0.11824481
      2      C     1.41185236    -0.57104704     0.45387951
      3      H     1.51064737    -1.29438164    -0.36353416
      4      C    -1.04463597    -0.15292700    -0.27684044
      5      H     0.58613528     1.06023866    -0.73475379
      6      H     0.12004430     1.13837017     0.93552718
      7      H     1.13065629    -0.60737075     2.62041243
      8      C     1.22123294    -1.30952636     1.78231855
      9      H     2.08281980    -1.95363427     1.98964709
     10      H     0.32779197    -1.94020468     1.77059033
     11      O    -1.28021786    -1.31464807    -0.52571926
     12      H     2.35724000    -0.01064403     0.48271314
     13      H    -1.84581474     0.62429330    -0.40947220
 
Total System Charge             0.00000
 
 *** GOStep5 ***

 Energy gradients wrt nuclear displacements
 ==========================================

     Atom      Cartesian (a.u./angstrom)
                 X         Y         Z
 ----------------------------------------
     1 C     0.001137  0.000203 -0.001468
     2 C    -0.003227 -0.003756 -0.001286
     3 H     0.001541  0.000180 -0.000459
     4 C     0.001251 -0.005178  0.011528
     5 H     0.000611  0.000816 -0.000167
     6 H    -0.000559  0.001525 -0.000559
     7 H     0.000016  0.000072  0.000724
     8 C    -0.001431  0.000105 -0.000462
     9 H     0.000770  0.000361  0.000176
    10 H    -0.000518 -0.000360  0.000158
    11 O     0.000682  0.001092 -0.003646
    12 H     0.001682  0.001952 -0.000584
    13 H    -0.001954  0.002988 -0.003955
 ----------------------------------------
 Mulliken charges used for AMS results%charges...

 dE(predicted):    -0.57668E-03, dE(actual):    -0.58778E-03, Trust radius:    0.179712, all in a.u.
 
----------------------------------------------------------------------
Geometry Convergence after Step   5       (Hartree/Angstrom,Angstrom)
----------------------------------------------------------------------
current energy                               -2.56369208 Hartree
energy change                      -0.00058778     0.00013000    F
constrained gradient max            0.01152884     0.00100000    F
constrained gradient rms            0.00254133     0.00066667    F
gradient max                        0.01152884
gradient rms                        0.00254133
cart. step max                      0.02329972     0.01000000    F
cart. step rms                      0.00887265     0.00666667    F
 
 
--------
Geometry
--------
Formula: C4H8O
Atoms
  Index Symbol   x (angstrom)   y (angstrom)   z (angstrom)
      1      C     0.29539259     0.42023238     0.11826458
      2      C     1.40981384    -0.57143537     0.45432858
      3      H     1.49657323    -1.29963042    -0.35977722
      4      C    -1.04075881    -0.15151082    -0.30014016
      5      H     0.59059649     1.07116002    -0.72258834
      6      H     0.10773680     1.12275251     0.94489947
      7      H     1.15020675    -0.59863034     2.62163026
      8      C     1.22551316    -1.30447498     1.78573918
      9      H     2.08023151    -1.95911423     1.98653283
     10      H     0.32509236    -1.92471119     1.78332011
     11      O    -1.27473465    -1.31414674    -0.54260582
     12      H     2.35800911    -0.01936157     0.47607093
     13      H    -1.84838076     0.61893287    -0.40266120
 
Total System Charge             0.00000
 
 *** GOStep6 ***

 Energy gradients wrt nuclear displacements
 ==========================================

     Atom      Cartesian (a.u./angstrom)
                 X         Y         Z
 ----------------------------------------
     1 C    -0.000217 -0.001205  0.000945
     2 C    -0.001664 -0.000831  0.000259
     3 H     0.000557  0.000439 -0.000151
     4 C     0.000807 -0.002711 -0.001130
     5 H    -0.000363 -0.000025 -0.000263
     6 H     0.000473  0.000614 -0.000312
     7 H     0.000003  0.000018  0.000039
     8 C    -0.000150  0.000137 -0.000403
     9 H     0.000229  0.000205  0.000177
    10 H     0.000006 -0.000035 -0.000154
    11 O     0.000768  0.002677  0.000742
    12 H     0.000378  0.000175 -0.000026
    13 H    -0.000826  0.000541  0.000279
 ----------------------------------------
 Mulliken charges used for AMS results%charges...

 dE(predicted):    -0.14868E-03, dE(actual):    -0.15534E-03, Trust radius:    0.179712, all in a.u.
 
----------------------------------------------------------------------
Geometry Convergence after Step   6       (Hartree/Angstrom,Angstrom)
----------------------------------------------------------------------
current energy                               -2.56384742 Hartree
energy change                      -0.00015534     0.00013000    F
constrained gradient max            0.00269755     0.00100000    F
constrained gradient rms            0.00082443     0.00066667    F
gradient max                        0.00269755
gradient rms                        0.00082443
cart. step max                      0.01376653     0.01000000    F
cart. step rms                      0.00530665     0.00666667    T
 
 
--------
Geometry
--------
Formula: C4H8O
Atoms
  Index Symbol   x (angstrom)   y (angstrom)   z (angstrom)
      1      C     0.29399347     0.42024751     0.12062087
      2      C     1.40879682    -0.57191204     0.45391335
      3      H     1.48828088    -1.30313548    -0.35831546
      4      C    -1.03944060    -0.15241046    -0.30625908
      5      H     0.59153676     1.07841829    -0.71375299
      6      H     0.10027789     1.11521784     0.95222908
      7      H     1.16397328    -0.59442769     2.62315370
      8      C     1.22790006    -1.30179354     1.78761438
      9      H     2.07811292    -1.96377859     1.98317199
     10      H     0.32237780    -1.91474003     1.79256053
     11      O    -1.27155851    -1.31570206    -0.55285581
     12      H     2.35871020    -0.02288380     0.46965082
     13      H    -1.84766935     0.61696217    -0.40871819
 
Total System Charge             0.00000
 
 *** GOStep7 ***

 Energy gradients wrt nuclear displacements
 ==========================================

     Atom      Cartesian (a.u./angstrom)
                 X         Y         Z
 ----------------------------------------
     1 C    -0.000158 -0.000890  0.001083
     2 C    -0.001203 -0.000232  0.000246
     3 H     0.000310  0.000226 -0.000113
     4 C     0.001236  0.000050 -0.000890
     5 H    -0.000133  0.000021 -0.000299
     6 H     0.000357  0.000450 -0.000227
     7 H    -0.000047  0.000019  0.000027
     8 C    -0.000083  0.000162 -0.000443
     9 H     0.000120  0.000129  0.000116
    10 H    -0.000009 -0.000083 -0.000037
    11 O    -0.000051 -0.000460  0.000164
    12 H     0.000355  0.000101 -0.000069
    13 H    -0.000693  0.000508  0.000442
 ----------------------------------------
 Mulliken charges used for AMS results%charges...

 dE(predicted):    -0.11023E-04, dE(actual):    -0.16415E-04, Trust radius:    0.179712, all in a.u.
 
----------------------------------------------------------------------
Geometry Convergence after Step   7       (Hartree/Angstrom,Angstrom)
----------------------------------------------------------------------
current energy                               -2.56386384 Hartree
energy change                      -0.00001641     0.00013000    T
constrained gradient max            0.00123912     0.00100000    F
constrained gradient rms            0.00045632     0.00066667    T
gradient max                        0.00123912
gradient rms                        0.00045632
cart. step max                      0.02565934     0.01000000    F
cart. step rms                      0.00927637     0.00666667    F
 
 
--------
Geometry
--------
Formula: C4H8O
Atoms
  Index Symbol   x (angstrom)   y (angstrom)   z (angstrom)
      1      C     0.29073730     0.42004826     0.12465053
      2      C     1.40677125    -0.57290635     0.45369536
      3      H     1.47452857    -1.30879519    -0.35546782
      4      C    -1.03848175    -0.15330949    -0.31610703
      5      H     0.59170669     1.09015881    -0.69859053
      6      H     0.08675757     1.10162939     0.96478538
      7      H     1.18963263    -0.58849208     2.62630093
      8      C     1.23313529    -1.29798974     1.79133888
      9      H     2.07563571    -1.97249442     1.97680481
     10      H     0.31913935    -1.89810970     1.80914565
     11      O    -1.26744501    -1.31626289    -0.56814874
     12      H     2.35865321    -0.02821184     0.45991753
     13      H    -1.84547918     0.61479734    -0.42531175
 
Total System Charge             0.00000
 
 *** GOStep8 ***

 Energy gradients wrt nuclear displacements
 ==========================================

     Atom      Cartesian (a.u./angstrom)
                 X         Y         Z
 ----------------------------------------
     1 C    -0.000135 -0.000223  0.000437
     2 C     0.000064  0.000641  0.000195
     3 H    -0.000158 -0.000063 -0.000021
     4 C     0.000198  0.001026 -0.000185
     5 H     0.000134 -0.000056 -0.000242
     6 H     0.000056 -0.000033 -0.000110
     7 H    -0.000089  0.000013 -0.000028
     8 C     0.000131  0.000006 -0.000195
     9 H    -0.000059  0.000007  0.000023
    10 H     0.000069 -0.000047  0.000048
    11 O    -0.000260 -0.000870 -0.000206
    12 H    -0.000008 -0.000167  0.000021
    13 H     0.000057 -0.000235  0.000262
 ----------------------------------------
 Mulliken charges used for AMS results%charges...

 dE(predicted):    -0.12628E-04, dE(actual):    -0.14487E-04, Trust radius:    0.179712, all in a.u.
 
----------------------------------------------------------------------
Geometry Convergence after Step   8       (Hartree/Angstrom,Angstrom)
----------------------------------------------------------------------
current energy                               -2.56387832 Hartree
energy change                      -0.00001449     0.00013000    T
constrained gradient max            0.00104042     0.00100000    F
constrained gradient rms            0.00028014     0.00066667    T
gradient max                        0.00104042
gradient rms                        0.00028014
cart. step max                      0.00750015     0.01000000    T
cart. step rms                      0.00252447     0.00666667    T
 
 
--------
Geometry
--------
Formula: C4H8O
Atoms
  Index Symbol   x (angstrom)   y (angstrom)   z (angstrom)
      1      C     0.28975199     0.41988007     0.12587389
      2      C     1.40609776    -0.57352135     0.45350244
      3      H     1.47210707    -1.31007248    -0.35518000
      4      C    -1.03840941    -0.15351920    -0.31833246
      5      H     0.59105397     1.09355133    -0.69415904
      6      H     0.08323175     1.09807640     0.96824018
      7      H     1.19664513    -0.58744517     2.62708606
      8      C     1.23451236    -1.29738910     1.79221025
      9      H     2.07519692    -1.97495533     1.97491852
     10      H     0.31831897    -1.89412627     1.81340004
     11      O    -1.26703608    -1.31659497    -0.56932218
     12      H     2.35813009    -0.02897362     0.45758740
     13      H    -1.84430889     0.61515180    -0.43281190
 
Total System Charge             0.00000
 
 *** GOStep9 ***

 Energy gradients wrt nuclear displacements
 ==========================================

     Atom      Cartesian (a.u./angstrom)
                 X         Y         Z
 ----------------------------------------
     1 C     0.000005 -0.000020  0.000210
     2 C     0.000119  0.000352  0.000037
     3 H    -0.000119 -0.000087 -0.000011
     4 C    -0.000012  0.000505  0.000128
     5 H     0.000107 -0.000043 -0.000140
     6 H    -0.000050 -0.000032 -0.000079
     7 H    -0.000057  0.000010  0.000022
     8 C     0.000098  0.000024 -0.000068
     9 H    -0.000027 -0.000009  0.000013
    10 H     0.000022 -0.000044  0.000044
    11 O    -0.000110 -0.000438 -0.000223
    12 H     0.000002 -0.000068 -0.000008
    13 H     0.000022 -0.000151  0.000077
 ----------------------------------------
 Mulliken charges used for AMS results%charges...

 dE(predicted):    -0.15395E-05, dE(actual):    -0.23561E-05, Trust radius:    0.179712, all in a.u.
 
---------------------------------------------------------
Geometry Convergence after Step   9       ** CONVERGED **
---------------------------------------------------------
current energy                               -2.56388068 Hartree
energy change                      -0.00000236     0.00013000    T
constrained gradient max            0.00051849     0.00100000    T
constrained gradient rms            0.00014582     0.00066667    T
gradient max                        0.00051849
gradient rms                        0.00014582
cart. step max                      0.00797378     0.01000000    T
cart. step rms                      0.00190830     0.00666667    T
 
Geometry optimization converged

Optimized geometry:
 
--------
Geometry
--------
Formula: C4H8O
Atoms
  Index Symbol   x (angstrom)   y (angstrom)   z (angstrom)
      1      C     0.28975199     0.41988007     0.12587389
      2      C     1.40609776    -0.57352135     0.45350244
      3      H     1.47210707    -1.31007248    -0.35518000
      4      C    -1.03840941    -0.15351920    -0.31833246
      5      H     0.59105397     1.09355133    -0.69415904
      6      H     0.08323175     1.09807640     0.96824018
      7      H     1.19664513    -0.58744517     2.62708606
      8      C     1.23451236    -1.29738910     1.79221025
      9      H     2.07519692    -1.97495533     1.97491852
     10      H     0.31831897    -1.89412627     1.81340004
     11      O    -1.26703608    -1.31659497    -0.56932218
     12      H     2.35813009    -0.02897362     0.45758740
     13      H    -1.84430889     0.61515180    -0.43281190
 
Total System Charge             0.00000
 
Performing a single point calculation on the final geometry ...

 *** adf ***



 ===========================
 A T T A C H E D   F I L E S
 ===========================
  
 Restart/scratch/3982/amstmp_42.no_catalyst.H_H.P2_kid0.575504420/GOStep9.rkf
 *** GOStep9 ***



 ===============================
 M O D E L   P A R A M E T E R S
 ===============================
  
 DENSITY FUNCTIONAL POTENTIAL (scf)
    LDA:                               Exchange only                           == Not Default ==
    Gradient Corrections:              OPTX LYP                                == Not Default ==

 SPIN  (restricted / unrestr.)
    Molecule:                          Restricted                               
    Fragments:                         Restricted                               

 OTHER ASPECTS
    Relativistic Corrections:          scalar (ZORA,MAPA)                       

    Nuclear Charge Density Model:      Point Charge Nuclei                      
    Core Treatment:                    Frozen Orbital(s)                        

    Hyperfine or Zeeman Interaction:   ---                                      



 ===============
 G E O M E T R Y  ***  3D  Molecule  ***
 ===============
  

 ATOMS
 =====                            X Y Z                    CHARGE
                                (Angstrom)             Nucl     +Core       At.Mass
                       --------------------------    ----------------       -------
    1  C               0.2898    0.4199    0.1259      6.00      6.00       12.0000
    2  C               1.4061   -0.5735    0.4535      6.00      6.00       12.0000
    3  H               1.4721   -1.3101   -0.3552      1.00      1.00        1.0078
    4  C              -1.0384   -0.1535   -0.3183      6.00      6.00       12.0000
    5  H               0.5911    1.0936   -0.6942      1.00      1.00        1.0078
    6  H               0.0832    1.0981    0.9682      1.00      1.00        1.0078
    7  H               1.1966   -0.5874    2.6271      1.00      1.00        1.0078
    8  C               1.2345   -1.2974    1.7922      6.00      6.00       12.0000
    9  H               2.0752   -1.9750    1.9749      1.00      1.00        1.0078
   10  H               0.3183   -1.8941    1.8134      1.00      1.00        1.0078
   11  O              -1.2670   -1.3166   -0.5693      8.00      8.00       15.9949
   12  H               2.3581   -0.0290    0.4576      1.00      1.00        1.0078
   13  H              -1.8443    0.6152   -0.4328      1.00      1.00        1.0078


 FRAGMENTS
 =========                                     Atoms in this Fragment     Cart. coord.s (Angstrom)
                                               -------------------------------------------------------
    1  C                                                 1  C            0.2898    0.4199    0.1259
    2  C                                                 2  C            1.4061   -0.5735    0.4535
    3  C                                                 4  C           -1.0384   -0.1535   -0.3183
    4  C                                                 8  C            1.2345   -1.2974    1.7922
    5  H                                                 3  H            1.4721   -1.3101   -0.3552
    6  H                                                 5  H            0.5911    1.0936   -0.6942
    7  H                                                 6  H            0.0832    1.0981    0.9682
    8  H                                                 7  H            1.1966   -0.5874    2.6271
    9  H                                                 9  H            2.0752   -1.9750    1.9749
   10  H                                                10  H            0.3183   -1.8941    1.8134
   11  H                                                12  H            2.3581   -0.0290    0.4576
   12  H                                                13  H           -1.8443    0.6152   -0.4328
   13  O                                                11  O           -1.2670   -1.3166   -0.5693


 Interatomic Distance Matrix (Angstrom)
 --------------------------------------

   1)     0.000
   2)     1.530   0.000
   3)     2.150   1.096   0.000
   4)     1.513   2.598   2.764   0.000
   5)     1.103   2.182   2.582   2.086   0.000
   6)     1.101   2.193   3.079   2.117   1.738   0.000
   7)     2.845   2.184   3.081   3.723   3.771   2.614   0.000
   8)     2.573   1.532   2.161   3.306   3.509   2.783   1.097   0.000
   9)     3.513   2.174   2.497   4.274   4.329   3.798   1.767   1.095   0.000
  10)     2.864   2.186   2.525   3.068   3.910   3.118   1.772   1.094   1.766   0.000
  11)     2.434   2.957   2.748   1.212   3.046   3.165   4.101   3.440   4.252   2.920
          0.000
  12)     2.142   1.097   1.757   3.486   2.389   2.590   2.523   2.157   2.484   3.079
          3.982   0.000
  13)     2.215   3.573   3.836   1.120   2.496   2.431   4.478   4.253   5.279   4.002
          2.021   4.344   0.000

 Min. Distance =    1.0936
 Max. Distance =    5.2790



 =====================================
 S Y M M E T R Y ,   E L E C T R O N S
 =====================================
  
 Symmetry: NOSYM

 Irreducible Representations, including subspecies
 -------------------------------------------------
 A


 Configuration of Valence Electrons
 ==================================
 ( determined in the SCF procedure )

 Total:   40

 Net Charge: 0 (Nuclei minus Electrons)

 Aufbau principle for MO occupations will be applied through SCF cycle no.      49
 Thereafter, the program will assign electrons to MOs that are spatially
 similar to the occupied MOs in a "reference" cycle ("KeepOrbitals").
 The reference cycle is always the PREVIOUS cycle: it will evolve with
 the SCF procedure.
1
 ***************************************************************************************************



                                      ****************************************
                                      *  B U I L D : (Fragments, Functions)  *
                                      ****************************************
  



 =======
 S F O s  ***  (Symmetrized Fragment Orbitals)  ***
 =======
  
 SFOs are linear combinations of (valence) Fragment Orbitals (FOs), such that the SFOs transform as the
 irreducible representations of the (molecular) symmetry group. Each SFO is therefore characterized by
 an irrep of the molecule and by a few (or only one) generating FOs.
 The SFOs constitute a symmetry-adapted basis for the Fock matrix. The MO eigenvector coefficients in
 this basis provide a direct interpretation of the MOs in terms of Frontier Orbital Theory.

 The SFOs are combined with auxiliary Core Functions (CFs) to ensure orthogonalization on the (frozen)
 Core Orbitals (COs). The Core-orthogonalized SFOs (CSFOs) constitute the true Fock basis.

 The FOs, and hence also the (C)SFOs are combinations of the elementary basis functions (BAS). The basis
 functions that participate in the description of the SFOs depend on the irrep. The indices of the
 involved functions are printed below for each irrep.
 (The complete list of primitive basis functions is printed in another section)

 Total nr. of (C)SFOs (summation over all irreps) :   218

 NOTE: a (C)SFO that is defined as a combination of more than one FO is usually NOT normalized.



                                       === A ===
 Nr. of SFOs :  218
 Cartesian basis functions that participate in this irrep (total number =   246) :
      1     2     3     4     5     6     9    12     7    10
     13     8    11    14    15    16    17    18    19    20
     21    22    23    24    25    26    27    28    29    30
     31    32    33    34    35    36    39    42    37    40
     43    38    41    44    45    46    47    48    49    50
     51    52    53    54    55    56    57    58    59    60
     61    62    63    64    65    66    69    72    67    70
     73    68    71    74    75    76    77    78    79    80
     81    82    83    84    85    86    87    88    89    90
     91    92    93    94    95    96    99   102    97   100
    103    98   101   104   105   106   107   108   109   110
    111   112   113   114   115   116   117   118   119   120
    121   122   123   124   125   126   127   128   129   130
    131   132   133   134   135   136   137   138   139   140
    141   142   143   144   145   146   147   148   149   150
    151   152   153   154   155   156   157   158   159   160
    161   162   163   164   165   166   167   168   169   170
    171   172   173   174   175   176   177   178   179   180
    181   182   183   184   185   186   187   188   189   190
    191   192   193   194   195   196   197   198   199   200
    201   202   203   204   205   206   207   208   209   210
    211   212   213   214   215   216   217   218   219   220
    221   222   225   228   223   226   229   224   227   230
    231   232   233   234   235   236   237   238   239   240
    241   242   243   244   245   246

    SFO  (index         Fragment          Generating    Expansion in Fragment Orbitals
  indx  incl.CFs)   Occup   Orb.Energy   FragmentType  Coeff.   Orbital     on Fragment
 --------------------------------------------------------------------------------------
     1       1      2.000     -10.064 au  C             1.00      1 S               1
                        (    -273.865 eV)
     2       2      2.000      -0.507 au  C             1.00      2 S               1
                        (     -13.802 eV)
     3       3       --         0.384 au  C             1.00      3 S               1
                        (      10.456 eV)
     4       4       --         5.458 au  C             1.00      4 S               1
                        (     148.511 eV)
     5       5       --        49.970 au  C             1.00      5 S               1
                        (    1359.766 eV)
     6       6      0.667      -0.189 au  C             1.00      1 P:x             1
                        (      -5.135 eV)
     7       7       --         0.168 au  C             1.00      2 P:x             1
                        (       4.559 eV)
     8       8       --         2.056 au  C             1.00      3 P:x             1
                        (      55.959 eV)
     9       9      0.667      -0.189 au  C             1.00      1 P:y             1
                        (      -5.135 eV)
    10      10       --         0.168 au  C             1.00      2 P:y             1
                        (       4.559 eV)
    11      11       --         2.056 au  C             1.00      3 P:y             1
                        (      55.959 eV)
    12      12      0.667      -0.189 au  C             1.00      1 P:z             1
                        (      -5.135 eV)
    13      13       --         0.168 au  C             1.00      2 P:z             1
                        (       4.559 eV)
    14      14       --         2.056 au  C             1.00      3 P:z             1
                        (      55.959 eV)
    15      15       --         1.235 au  C             1.00      1 D:z2            1
                        (      33.605 eV)
    16      16       --         1.235 au  C             1.00      1 D:x2-y2         1
                        (      33.605 eV)
    17      17       --         1.235 au  C             1.00      1 D:xy            1
                        (      33.605 eV)
    18      18       --         1.235 au  C             1.00      1 D:xz            1
                        (      33.605 eV)
    19      19       --         1.235 au  C             1.00      1 D:yz            1
                        (      33.605 eV)
    20      20       --         4.005 au  C             1.00      1 F:z3            1
                        (     108.969 eV)
    21      21       --         4.005 au  C             1.00      1 F:z             1
                        (     108.969 eV)
    22      22       --         4.005 au  C             1.00      1 F:xyz           1
                        (     108.969 eV)
    23      23       --         4.005 au  C             1.00      1 F:z2x           1
                        (     108.969 eV)
    24      24       --         4.005 au  C             1.00      1 F:z2y           1
                        (     108.969 eV)
    25      25       --         4.005 au  C             1.00      1 F:x             1
                        (     108.969 eV)
    26      26       --         4.005 au  C             1.00      1 F:y             1
                        (     108.969 eV)
    27      27      2.000     -10.064 au  C             1.00      1 S               2
                        (    -273.865 eV)
    28      28      2.000      -0.507 au  C             1.00      2 S               2
                        (     -13.802 eV)
    29      29       --         0.384 au  C             1.00      3 S               2
                        (      10.456 eV)
    30      30       --         5.458 au  C             1.00      4 S               2
                        (     148.511 eV)
    31      31       --        49.970 au  C             1.00      5 S               2
                        (    1359.766 eV)
    32      32      0.667      -0.189 au  C             1.00      1 P:x             2
                        (      -5.135 eV)
    33      33       --         0.168 au  C             1.00      2 P:x             2
                        (       4.559 eV)
    34      34       --         2.056 au  C             1.00      3 P:x             2
                        (      55.959 eV)
    35      35      0.667      -0.189 au  C             1.00      1 P:y             2
                        (      -5.135 eV)
    36      36       --         0.168 au  C             1.00      2 P:y             2
                        (       4.559 eV)
    37      37       --         2.056 au  C             1.00      3 P:y             2
                        (      55.959 eV)
    38      38      0.667      -0.189 au  C             1.00      1 P:z             2
                        (      -5.135 eV)
    39      39       --         0.168 au  C             1.00      2 P:z             2
                        (       4.559 eV)
    40      40       --         2.056 au  C             1.00      3 P:z             2
                        (      55.959 eV)
    41      41       --         1.235 au  C             1.00      1 D:z2            2
                        (      33.605 eV)
    42      42       --         1.235 au  C             1.00      1 D:x2-y2         2
                        (      33.605 eV)
    43      43       --         1.235 au  C             1.00      1 D:xy            2
                        (      33.605 eV)
    44      44       --         1.235 au  C             1.00      1 D:xz            2
                        (      33.605 eV)
    45      45       --         1.235 au  C             1.00      1 D:yz            2
                        (      33.605 eV)
    46      46       --         4.005 au  C             1.00      1 F:z3            2
                        (     108.969 eV)
    47      47       --         4.005 au  C             1.00      1 F:z             2
                        (     108.969 eV)
    48      48       --         4.005 au  C             1.00      1 F:xyz           2
                        (     108.969 eV)
    49      49       --         4.005 au  C             1.00      1 F:z2x           2
                        (     108.969 eV)
    50      50       --         4.005 au  C             1.00      1 F:z2y           2
                        (     108.969 eV)
    51      51       --         4.005 au  C             1.00      1 F:x             2
                        (     108.969 eV)
    52      52       --         4.005 au  C             1.00      1 F:y             2
                        (     108.969 eV)
    53      53      2.000     -10.064 au  C             1.00      1 S               3
                        (    -273.865 eV)
    54      54      2.000      -0.507 au  C             1.00      2 S               3
                        (     -13.802 eV)
    55      55       --         0.384 au  C             1.00      3 S               3
                        (      10.456 eV)
    56      56       --         5.458 au  C             1.00      4 S               3
                        (     148.511 eV)
    57      57       --        49.970 au  C             1.00      5 S               3
                        (    1359.766 eV)
    58      58      0.667      -0.189 au  C             1.00      1 P:x             3
                        (      -5.135 eV)
    59      59       --         0.168 au  C             1.00      2 P:x             3
                        (       4.559 eV)
    60      60       --         2.056 au  C             1.00      3 P:x             3
                        (      55.959 eV)
    61      61      0.667      -0.189 au  C             1.00      1 P:y             3
                        (      -5.135 eV)
    62      62       --         0.168 au  C             1.00      2 P:y             3
                        (       4.559 eV)
    63      63       --         2.056 au  C             1.00      3 P:y             3
                        (      55.959 eV)
    64      64      0.667      -0.189 au  C             1.00      1 P:z             3
                        (      -5.135 eV)
    65      65       --         0.168 au  C             1.00      2 P:z             3
                        (       4.559 eV)
    66      66       --         2.056 au  C             1.00      3 P:z             3
                        (      55.959 eV)
    67      67       --         1.235 au  C             1.00      1 D:z2            3
                        (      33.605 eV)
    68      68       --         1.235 au  C             1.00      1 D:x2-y2         3
                        (      33.605 eV)
    69      69       --         1.235 au  C             1.00      1 D:xy            3
                        (      33.605 eV)
    70      70       --         1.235 au  C             1.00      1 D:xz            3
                        (      33.605 eV)
    71      71       --         1.235 au  C             1.00      1 D:yz            3
                        (      33.605 eV)
    72      72       --         4.005 au  C             1.00      1 F:z3            3
                        (     108.969 eV)
    73      73       --         4.005 au  C             1.00      1 F:z             3
                        (     108.969 eV)
    74      74       --         4.005 au  C             1.00      1 F:xyz           3
                        (     108.969 eV)
    75      75       --         4.005 au  C             1.00      1 F:z2x           3
                        (     108.969 eV)
    76      76       --         4.005 au  C             1.00      1 F:z2y           3
                        (     108.969 eV)
    77      77       --         4.005 au  C             1.00      1 F:x             3
                        (     108.969 eV)
    78      78       --         4.005 au  C             1.00      1 F:y             3
                        (     108.969 eV)
    79      79      2.000     -10.064 au  C             1.00      1 S               4
                        (    -273.865 eV)
    80      80      2.000      -0.507 au  C             1.00      2 S               4
                        (     -13.802 eV)
    81      81       --         0.384 au  C             1.00      3 S               4
                        (      10.456 eV)
    82      82       --         5.458 au  C             1.00      4 S               4
                        (     148.511 eV)
    83      83       --        49.970 au  C             1.00      5 S               4
                        (    1359.766 eV)
    84      84      0.667      -0.189 au  C             1.00      1 P:x             4
                        (      -5.135 eV)
    85      85       --         0.168 au  C             1.00      2 P:x             4
                        (       4.559 eV)
    86      86       --         2.056 au  C             1.00      3 P:x             4
                        (      55.959 eV)
    87      87      0.667      -0.189 au  C             1.00      1 P:y             4
                        (      -5.135 eV)
    88      88       --         0.168 au  C             1.00      2 P:y             4
                        (       4.559 eV)
    89      89       --         2.056 au  C             1.00      3 P:y             4
                        (      55.959 eV)
    90      90      0.667      -0.189 au  C             1.00      1 P:z             4
                        (      -5.135 eV)
    91      91       --         0.168 au  C             1.00      2 P:z             4
                        (       4.559 eV)
    92      92       --         2.056 au  C             1.00      3 P:z             4
                        (      55.959 eV)
    93      93       --         1.235 au  C             1.00      1 D:z2            4
                        (      33.605 eV)
    94      94       --         1.235 au  C             1.00      1 D:x2-y2         4
                        (      33.605 eV)
    95      95       --         1.235 au  C             1.00      1 D:xy            4
                        (      33.605 eV)
    96      96       --         1.235 au  C             1.00      1 D:xz            4
                        (      33.605 eV)
    97      97       --         1.235 au  C             1.00      1 D:yz            4
                        (      33.605 eV)
    98      98       --         4.005 au  C             1.00      1 F:z3            4
                        (     108.969 eV)
    99      99       --         4.005 au  C             1.00      1 F:z             4
                        (     108.969 eV)
   100     100       --         4.005 au  C             1.00      1 F:xyz           4
                        (     108.969 eV)
   101     101       --         4.005 au  C             1.00      1 F:z2x           4
                        (     108.969 eV)
   102     102       --         4.005 au  C             1.00      1 F:z2y           4
                        (     108.969 eV)
   103     103       --         4.005 au  C             1.00      1 F:x             4
                        (     108.969 eV)
   104     104       --         4.005 au  C             1.00      1 F:y             4
                        (     108.969 eV)
   105     105      1.000      -0.238 au  H             1.00      1 S               5
                        (      -6.484 eV)
   106     106       --         0.077 au  H             1.00      2 S               5
                        (       2.096 eV)
   107     107       --         1.521 au  H             1.00      3 S               5
                        (      41.380 eV)
   108     108       --         0.410 au  H             1.00      1 P:x             5
                        (      11.162 eV)
   109     109       --         0.410 au  H             1.00      1 P:y             5
                        (      11.162 eV)
   110     110       --         0.410 au  H             1.00      1 P:z             5
                        (      11.162 eV)
   111     111       --         2.567 au  H             1.00      1 D:z2            5
                        (      69.838 eV)
   112     112       --         2.567 au  H             1.00      1 D:x2-y2         5
                        (      69.838 eV)
   113     113       --         2.567 au  H             1.00      1 D:xy            5
                        (      69.838 eV)
   114     114       --         2.567 au  H             1.00      1 D:xz            5
                        (      69.838 eV)
   115     115       --         2.567 au  H             1.00      1 D:yz            5
                        (      69.838 eV)
   116     116      1.000      -0.238 au  H             1.00      1 S               6
                        (      -6.484 eV)
   117     117       --         0.077 au  H             1.00      2 S               6
                        (       2.096 eV)
   118     118       --         1.521 au  H             1.00      3 S               6
                        (      41.380 eV)
   119     119       --         0.410 au  H             1.00      1 P:x             6
                        (      11.162 eV)
   120     120       --         0.410 au  H             1.00      1 P:y             6
                        (      11.162 eV)
   121     121       --         0.410 au  H             1.00      1 P:z             6
                        (      11.162 eV)
   122     122       --         2.567 au  H             1.00      1 D:z2            6
                        (      69.838 eV)
   123     123       --         2.567 au  H             1.00      1 D:x2-y2         6
                        (      69.838 eV)
   124     124       --         2.567 au  H             1.00      1 D:xy            6
                        (      69.838 eV)
   125     125       --         2.567 au  H             1.00      1 D:xz            6
                        (      69.838 eV)
   126     126       --         2.567 au  H             1.00      1 D:yz            6
                        (      69.838 eV)
   127     127      1.000      -0.238 au  H             1.00      1 S               7
                        (      -6.484 eV)
   128     128       --         0.077 au  H             1.00      2 S               7
                        (       2.096 eV)
   129     129       --         1.521 au  H             1.00      3 S               7
                        (      41.380 eV)
   130     130       --         0.410 au  H             1.00      1 P:x             7
                        (      11.162 eV)
   131     131       --         0.410 au  H             1.00      1 P:y             7
                        (      11.162 eV)
   132     132       --         0.410 au  H             1.00      1 P:z             7
                        (      11.162 eV)
   133     133       --         2.567 au  H             1.00      1 D:z2            7
                        (      69.838 eV)
   134     134       --         2.567 au  H             1.00      1 D:x2-y2         7
                        (      69.838 eV)
   135     135       --         2.567 au  H             1.00      1 D:xy            7
                        (      69.838 eV)
   136     136       --         2.567 au  H             1.00      1 D:xz            7
                        (      69.838 eV)
   137     137       --         2.567 au  H             1.00      1 D:yz            7
                        (      69.838 eV)
   138     138      1.000      -0.238 au  H             1.00      1 S               8
                        (      -6.484 eV)
   139     139       --         0.077 au  H             1.00      2 S               8
                        (       2.096 eV)
   140     140       --         1.521 au  H             1.00      3 S               8
                        (      41.380 eV)
   141     141       --         0.410 au  H             1.00      1 P:x             8
                        (      11.162 eV)
   142     142       --         0.410 au  H             1.00      1 P:y             8
                        (      11.162 eV)
   143     143       --         0.410 au  H             1.00      1 P:z             8
                        (      11.162 eV)
   144     144       --         2.567 au  H             1.00      1 D:z2            8
                        (      69.838 eV)
   145     145       --         2.567 au  H             1.00      1 D:x2-y2         8
                        (      69.838 eV)
   146     146       --         2.567 au  H             1.00      1 D:xy            8
                        (      69.838 eV)
   147     147       --         2.567 au  H             1.00      1 D:xz            8
                        (      69.838 eV)
   148     148       --         2.567 au  H             1.00      1 D:yz            8
                        (      69.838 eV)
   149     149      1.000      -0.238 au  H             1.00      1 S               9
                        (      -6.484 eV)
   150     150       --         0.077 au  H             1.00      2 S               9
                        (       2.096 eV)
   151     151       --         1.521 au  H             1.00      3 S               9
                        (      41.380 eV)
   152     152       --         0.410 au  H             1.00      1 P:x             9
                        (      11.162 eV)
   153     153       --         0.410 au  H             1.00      1 P:y             9
                        (      11.162 eV)
   154     154       --         0.410 au  H             1.00      1 P:z             9
                        (      11.162 eV)
   155     155       --         2.567 au  H             1.00      1 D:z2            9
                        (      69.838 eV)
   156     156       --         2.567 au  H             1.00      1 D:x2-y2         9
                        (      69.838 eV)
   157     157       --         2.567 au  H             1.00      1 D:xy            9
                        (      69.838 eV)
   158     158       --         2.567 au  H             1.00      1 D:xz            9
                        (      69.838 eV)
   159     159       --         2.567 au  H             1.00      1 D:yz            9
                        (      69.838 eV)
   160     160      1.000      -0.238 au  H             1.00      1 S              10
                        (      -6.484 eV)
   161     161       --         0.077 au  H             1.00      2 S              10
                        (       2.096 eV)
   162     162       --         1.521 au  H             1.00      3 S              10
                        (      41.380 eV)
   163     163       --         0.410 au  H             1.00      1 P:x            10
                        (      11.162 eV)
   164     164       --         0.410 au  H             1.00      1 P:y            10
                        (      11.162 eV)
   165     165       --         0.410 au  H             1.00      1 P:z            10
                        (      11.162 eV)
   166     166       --         2.567 au  H             1.00      1 D:z2           10
                        (      69.838 eV)
   167     167       --         2.567 au  H             1.00      1 D:x2-y2        10
                        (      69.838 eV)
   168     168       --         2.567 au  H             1.00      1 D:xy           10
                        (      69.838 eV)
   169     169       --         2.567 au  H             1.00      1 D:xz           10
                        (      69.838 eV)
   170     170       --         2.567 au  H             1.00      1 D:yz           10
                        (      69.838 eV)
   171     171      1.000      -0.238 au  H             1.00      1 S              11
                        (      -6.484 eV)
   172     172       --         0.077 au  H             1.00      2 S              11
                        (       2.096 eV)
   173     173       --         1.521 au  H             1.00      3 S              11
                        (      41.380 eV)
   174     174       --         0.410 au  H             1.00      1 P:x            11
                        (      11.162 eV)
   175     175       --         0.410 au  H             1.00      1 P:y            11
                        (      11.162 eV)
   176     176       --         0.410 au  H             1.00      1 P:z            11
                        (      11.162 eV)
   177     177       --         2.567 au  H             1.00      1 D:z2           11
                        (      69.838 eV)
   178     178       --         2.567 au  H             1.00      1 D:x2-y2        11
                        (      69.838 eV)
   179     179       --         2.567 au  H             1.00      1 D:xy           11
                        (      69.838 eV)
   180     180       --         2.567 au  H             1.00      1 D:xz           11
                        (      69.838 eV)
   181     181       --         2.567 au  H             1.00      1 D:yz           11
                        (      69.838 eV)
   182     182      1.000      -0.238 au  H             1.00      1 S              12
                        (      -6.484 eV)
   183     183       --         0.077 au  H             1.00      2 S              12
                        (       2.096 eV)
   184     184       --         1.521 au  H             1.00      3 S              12
                        (      41.380 eV)
   185     185       --         0.410 au  H             1.00      1 P:x            12
                        (      11.162 eV)
   186     186       --         0.410 au  H             1.00      1 P:y            12
                        (      11.162 eV)
   187     187       --         0.410 au  H             1.00      1 P:z            12
                        (      11.162 eV)
   188     188       --         2.567 au  H             1.00      1 D:z2           12
                        (      69.838 eV)
   189     189       --         2.567 au  H             1.00      1 D:x2-y2        12
                        (      69.838 eV)
   190     190       --         2.567 au  H             1.00      1 D:xy           12
                        (      69.838 eV)
   191     191       --         2.567 au  H             1.00      1 D:xz           12
                        (      69.838 eV)
   192     192       --         2.567 au  H             1.00      1 D:yz           12
                        (      69.838 eV)
   193     193      2.000     -18.926 au  O             1.00      1 S              13
                        (    -515.001 eV)
   194     194      2.000      -0.887 au  O             1.00      2 S              13
                        (     -24.136 eV)
   195     195       --         0.804 au  O             1.00      3 S              13
                        (      21.890 eV)
   196     196       --        13.488 au  O             1.00      4 S              13
                        (     367.032 eV)
   197     197       --       121.767 au  O             1.00      5 S              13
                        (    3313.451 eV)
   198     198      1.333      -0.329 au  O             1.00      1 P:x            13
                        (      -8.949 eV)
   199     199       --         0.351 au  O             1.00      2 P:x            13
                        (       9.557 eV)
   200     200       --         3.863 au  O             1.00      3 P:x            13
                        (     105.120 eV)
   201     201      1.333      -0.329 au  O             1.00      1 P:y            13
                        (      -8.949 eV)
   202     202       --         0.351 au  O             1.00      2 P:y            13
                        (       9.557 eV)
   203     203       --         3.863 au  O             1.00      3 P:y            13
                        (     105.120 eV)
   204     204      1.333      -0.329 au  O             1.00      1 P:z            13
                        (      -8.949 eV)
   205     205       --         0.351 au  O             1.00      2 P:z            13
                        (       9.557 eV)
   206     206       --         3.863 au  O             1.00      3 P:z            13
                        (     105.120 eV)
   207     207       --         1.072 au  O             1.00      1 D:z2           13
                        (      29.175 eV)
   208     208       --         1.072 au  O             1.00      1 D:x2-y2        13
                        (      29.175 eV)
   209     209       --         1.072 au  O             1.00      1 D:xy           13
                        (      29.175 eV)
   210     210       --         1.072 au  O             1.00      1 D:xz           13
                        (      29.175 eV)
   211     211       --         1.072 au  O             1.00      1 D:yz           13
                        (      29.175 eV)
   212     212       --         3.353 au  O             1.00      1 F:z3           13
                        (      91.230 eV)
   213     213       --         3.353 au  O             1.00      1 F:z            13
                        (      91.230 eV)
   214     214       --         3.353 au  O             1.00      1 F:xyz          13
                        (      91.230 eV)
   215     215       --         3.353 au  O             1.00      1 F:z2x          13
                        (      91.230 eV)
   216     216       --         3.353 au  O             1.00      1 F:z2y          13
                        (      91.230 eV)
   217     217       --         3.353 au  O             1.00      1 F:x            13
                        (      91.230 eV)
   218     218       --         3.353 au  O             1.00      1 F:y            13
                        (      91.230 eV)



 ================================
 (Slater-type)  F U N C T I O N S  ***  (Basis and Fit)  ***
 ================================
  

 Atom Type    1  (C)
 ==============

 Valence Basis Sets:  10
 -----------------------
   1 S    7.680000
   1 S    5.000000
   2 S    1.280000
   2 S    2.100000
   2 S    4.600000
   2 P    0.820000
   2 P    1.480000
   2 P    2.940000
   3 D    2.200000
   4 F    3.300000

 Atom Type    2  (H)
 ==============

 Valence Basis Sets:   5
 -----------------------
   1 S    0.690000
   1 S    0.920000
   1 S    1.580000
   2 P    1.250000
   3 D    2.500000

 Atom Type    3  (O)
 ==============

 Valence Basis Sets:  10
 -----------------------
   1 S    9.800000
   1 S    6.800000
   2 S    7.580000
   2 S    2.880000
   2 S    1.720000
   2 P    4.080000
   2 P    2.080000
   2 P    1.120000
   3 D    2.000000
   4 F    3.000000


 BAS: List of all Elementary Cartesian Basis Functions
 =====================================================

 The numbering in the list below (to the right of the function characteristics) is referred
 to in print-outs of MO eigenvectors and Mulliken populations in the BAS representation
 (as contrasted to the SFO representation).

 Notes:
 1. The functions are characterized by a polynomial prefactor (powers of x,y,z and r) and
    an exponential decay factor alpha.
 2. Since the basis sets are specific for an atom TYPE, the individual functions occur on
    all atoms of that type.
 3. The word 'Core' in the left margin signals that it is a Core Function (CF) : not a
    degree of freedom in the valence set, but only used to ensure orthogonalization of
    the other valence basis functions on the frozen Core Orbitals.


 (power of) X  Y  Z  R     Alpha  on Atom
            ==========     =====     ==========

 C                                    1    2    3    4
                                  ---------------------------------------------------------------------------
            0  0  0  0     7.680      1   31   61   91
            0  0  0  0     5.000      2   32   62   92
            0  0  0  1     1.280      3   33   63   93
            0  0  0  1     2.100      4   34   64   94
            0  0  0  1     4.600      5   35   65   95
            1  0  0  0     0.820      6   36   66   96
            0  1  0  0     0.820      7   37   67   97
            0  0  1  0     0.820      8   38   68   98
            1  0  0  0     1.480      9   39   69   99
            0  1  0  0     1.480     10   40   70  100
            0  0  1  0     1.480     11   41   71  101
            1  0  0  0     2.940     12   42   72  102
            0  1  0  0     2.940     13   43   73  103
            0  0  1  0     2.940     14   44   74  104
            2  0  0  0     2.200     15   45   75  105
            1  1  0  0     2.200     16   46   76  106
            1  0  1  0     2.200     17   47   77  107
            0  2  0  0     2.200     18   48   78  108
            0  1  1  0     2.200     19   49   79  109
            0  0  2  0     2.200     20   50   80  110
            3  0  0  0     3.300     21   51   81  111
            2  1  0  0     3.300     22   52   82  112
            2  0  1  0     3.300     23   53   83  113
            1  2  0  0     3.300     24   54   84  114
            1  1  1  0     3.300     25   55   85  115
            1  0  2  0     3.300     26   56   86  116
            0  3  0  0     3.300     27   57   87  117
            0  2  1  0     3.300     28   58   88  118
            0  1  2  0     3.300     29   59   89  119
            0  0  3  0     3.300     30   60   90  120

 H                                    5    6    7    8    9   10   11   12
                                  ---------------------------------------------------------------------------
            0  0  0  0     0.690    121  133  145  157  169  181  193  205
            0  0  0  0     0.920    122  134  146  158  170  182  194  206
            0  0  0  0     1.580    123  135  147  159  171  183  195  207
            1  0  0  0     1.250    124  136  148  160  172  184  196  208
            0  1  0  0     1.250    125  137  149  161  173  185  197  209
            0  0  1  0     1.250    126  138  150  162  174  186  198  210
            2  0  0  0     2.500    127  139  151  163  175  187  199  211
            1  1  0  0     2.500    128  140  152  164  176  188  200  212
            1  0  1  0     2.500    129  141  153  165  177  189  201  213
            0  2  0  0     2.500    130  142  154  166  178  190  202  214
            0  1  1  0     2.500    131  143  155  167  179  191  203  215
            0  0  2  0     2.500    132  144  156  168  180  192  204  216

 O                                   13
                                  ---------------------------------------------------------------------------
            0  0  0  0     9.800    217
            0  0  0  0     6.800    218
            0  0  0  1     7.580    219
            0  0  0  1     2.880    220
            0  0  0  1     1.720    221
            1  0  0  0     4.080    222
            0  1  0  0     4.080    223
            0  0  1  0     4.080    224
            1  0  0  0     2.080    225
            0  1  0  0     2.080    226
            0  0  1  0     2.080    227
            1  0  0  0     1.120    228
            0  1  0  0     1.120    229
            0  0  1  0     1.120    230
            2  0  0  0     2.000    231
            1  1  0  0     2.000    232
            1  0  1  0     2.000    233
            0  2  0  0     2.000    234
            0  1  1  0     2.000    235
            0  0  2  0     2.000    236
            3  0  0  0     3.000    237
            2  1  0  0     3.000    238
            2  0  1  0     3.000    239
            1  2  0  0     3.000    240
            1  1  1  0     3.000    241
            1  0  2  0     3.000    242
            0  3  0  0     3.000    243
            0  2  1  0     3.000    244
            0  1  2  0     3.000    245
            0  0  3  0     3.000    246

 Total number of charge fitting functions (nprimf)       820
 Total number of Cartesian basis functions (naos)        246
 Total number of Cartesian core functions  (ncos)          0

1
 ***************************************************************************************************



                                              ***********************
                                              *  T E C H N I C A L  *
                                              ***********************
  



 =============================================================
 P A R A L L E L I Z A T I O N  and  V E C T O R I Z A T I O N
 =============================================================
  
 Nr of parallel processes:                                4
 Maximum vector length in NumInt loops:                 128



 =====================
 S C F   U P D A T E S
 =====================
  
 Max. nr. of cycles:                                99
 Convergence criterion:                              0.0000010000
   secondary criterion:                              0.0010000000

 Mix parameter (when DIIS does not apply):           0.2000000000
 Mixed ADIIS+SDIIS will be used                  
    Max number of expansion vectors:                10
    Pure ADIIS when Max([F,P]) is above              0.1000000000
    Pure SDIIS when Max([F,P]) is below              0.0010000000
 Automatic ElectronSmearing (in case of problematic SCF convergence) disabled



 =================
 P R E C I S I O N  ***  (General: NumInt, NeglectFunctionTails, ...)  ***
 =================
  

 NumInt:           Target precision:                 8.0000000000
 -------           Initial precision:                8.0000000000
                   Min. precision (optimization):    8.0000000000

 Neglect Functions:          Basis functions:        0.1000000000E-09
 ------------------          Fit functions:          0.1000000000E-09



 ===========================
 L I N E A R   S C A L I N G
 ===========================
  

 Cut-off radii density fit:                        0.1000000000E-11
 Overlap cut-off criterion AO matrix elements:     0.1000000000E-09
 Cut-offs for Coulomb potential and fitted density:0.1000000000E-11
 Cut-off criterion for Coulomb multipole terms:    0.1000000000E-11
 Progressive Convergence parameter:                 0.000000000    

 Number of elements of the density matrix on this node (used, total):      8025     30381



 ===========================================
 Numerical Integration : Fuzzy Cells (Becke)
 ===========================================
  
 Becke grid quality: VERYGOOD       
  
 Lebedev angular grid order:             min:  13 max:  41
 Nr. of radial points:                   min:  64 max:  72

 Total nr. of points:     305524
 Nr. of blocks:             2387
 Block length:               128
 Nr. of dummy points:         12


 Test of Precision of the Numerical Integration Grid
 ===================================================

 Integral of the Total Core Density:                   0.00000000000000



 ========================
 Density Fitting (zlmFit)
 ========================
  
 ZlmFit Fit Quality: VERYGOOD       
  
 Max L-expansion:                        min:  10 max:  11
 Nr. of radial interpolation points:     min: 130 max: 180



 =====
 S C F  ***  ScaSCF  ***
 =====
  
 Initial density matrix is taken from previous geometry

 CYCLE    1
  ***********************************************************
  ** : orbital data taken from :/scratch/3982/amstmp_42.no_catalyst.H_H.P2_kid0.575504420/GOStep9.rkf
  ***********************************************************
 SCF Error: norm([F,P])=      0.000000280325, max([F,P])=      0.000000056917
 orbitals (Q,E):
 ---------------
 A :11...30          ( 2.00    -0.4388)  ( 2.00    -0.4159)  ( 2.00    -0.3921)  ( 2.00    -0.3718)
                     ( 2.00    -0.3593)  ( 2.00    -0.3371)  ( 2.00    -0.3072)  ( 2.00    -0.3032)
                     ( 2.00    -0.2974)  ( 2.00    -0.2114)  ( 0.00    -0.0630)  ( 0.00    -0.0156)
                     ( 0.00     0.0053)  ( 0.00     0.0119)  ( 0.00     0.0260)  ( 0.00     0.0458)
                     ( 0.00     0.0531)  ( 0.00     0.0699)  ( 0.00     0.0839)  ( 0.00     0.1165)

 CYCLE    2
  SDIIS (wt  0.000):  0.5850  0.4150
 A-DIIS (wt  1.000):  0.0000  1.0000
  DIIS coefficients:  0.0000  1.0000
 SCF Error: norm([F,P])=      0.000000393023, max([F,P])=      0.000000080038
 orbitals (Q,E):
 ---------------
 A :11...21          ( 2.00    -0.4388)  ( 2.00    -0.4159)  ( 2.00    -0.3921)  ( 2.00    -0.3718)
                     ( 2.00    -0.3593)  ( 2.00    -0.3371)  ( 2.00    -0.3072)  ( 2.00    -0.3032)
                     ( 2.00    -0.2974)  ( 2.00    -0.2114)  ( 0.00    -0.0630)

 SCF CONVERGED

 CYCLE    3
1
 ***************************************************************************************************



                                                *******************
                                                *  R E S U L T S  *
                                                *******************
  
 *** Using FIT density in Focky
  SDIIS (wt  0.000):  0.3139  0.4986  0.1875
 A-DIIS (wt  1.000):  0.0000  0.2308  0.7692
  DIIS coefficients:  0.0000  0.2308  0.7692
 SCF Error: norm([F,P])=      0.000000598385, max([F,P])=      0.000000127072

 Scaled ZORA Orbital Energies, per Irrep and Spin:
 =================================================
                        Occup              E (au)              E (eV)       Diff (eV) with prev. cycle
                        -----      --------------------        ------       --------------------------
 A
              11        2.000     -0.43880399397596E+00       -11.940               2.93E-06
              12        2.000     -0.41587852214997E+00       -11.317               2.39E-06
              13        2.000     -0.39205679033665E+00       -10.668               1.84E-06
              14        2.000     -0.37182219696386E+00       -10.118               1.14E-06
              15        2.000     -0.35928745809996E+00        -9.777               1.07E-06
              16        2.000     -0.33713704468867E+00        -9.174               1.72E-06
              17        2.000     -0.30717227849125E+00        -8.359               8.63E-07
              18        2.000     -0.30321577851895E+00        -8.251               7.94E-07
              19        2.000     -0.29744326987696E+00        -8.094               3.56E-07
              20        2.000     -0.21139682347175E+00        -5.752               2.57E-06
              21        0.000     -0.62999933922561E-01        -1.714
              22        0.000     -0.15557471628448E-01        -0.423
              23        0.000      0.53275808904905E-02         0.145
              24        0.000      0.11859482362104E-01         0.323
              25        0.000      0.26000928483618E-01         0.708
[...]
     5     H       0.227914   0.067263   0.127088
     6     H      -0.085373  -0.273319   0.010933
     7     H       0.030641   0.225055  -0.278270
     8     C      -0.004774  -0.089206  -0.026421
     9     H       0.037561   0.047789   0.255794
    10     H      -0.082255   0.045909   0.254635
    11     O       0.030299   0.007163  -0.016173
    12     H       0.132862  -0.116336  -0.171521
    13     H       0.070674   0.121190  -0.333128
 
 Mode:    21      Frequency (cm-1):     1221.3882     Intensity (km/mol):        1.3683
 Index  Atom      ---- Displacements (x/y/z) ----
     1     C       0.008425  -0.013352   0.003199
     2     C      -0.040928   0.059645   0.061656
     3     H      -0.049476  -0.155735   0.262116
     4     C       0.024074   0.012554  -0.088732
     5     H      -0.551353   0.091982  -0.134163
     6     H       0.576837  -0.071788   0.180679
     7     H      -0.024871   0.136755  -0.200664
     8     C       0.027689  -0.054069  -0.045211
     9     H       0.015592   0.000558   0.177424
    10     H      -0.075330   0.110329   0.065772
    11     O      -0.004915  -0.007822   0.014963
    12     H       0.006722  -0.028051  -0.015755
    13     H      -0.049454  -0.016809   0.249733
 
 Mode:    22      Frequency (cm-1):     1266.0074     Intensity (km/mol):        7.4701
 Index  Atom      ---- Displacements (x/y/z) ----
     1     C      -0.091315   0.035883  -0.012167
     2     C       0.066112   0.019380   0.014566
     3     H       0.109541  -0.356370   0.360822
     4     C       0.048929  -0.008926   0.034460
     5     H       0.395557  -0.004872   0.142114
     6     H       0.134302   0.074637   0.015432
     7     H       0.154424   0.080581  -0.138598
     8     C      -0.064143  -0.055260  -0.038852
     9     H       0.079368   0.136840   0.038253
    10     H      -0.028502  -0.093080   0.262432
    11     O      -0.014553   0.001852  -0.007935
    12     H      -0.117490   0.341988  -0.447204
    13     H      -0.014995  -0.102865  -0.083583
 
 Mode:    23      Frequency (cm-1):     1334.4183     Intensity (km/mol):        4.3169
 Index  Atom      ---- Displacements (x/y/z) ----
     1     C      -0.131720  -0.015534  -0.022407
     2     C      -0.020536   0.080419  -0.071158
     3     H       0.050600  -0.128403   0.126261
     4     C       0.026699  -0.007668   0.015006
     5     H       0.415053  -0.040355   0.165723
     6     H       0.309884   0.028290   0.045681
     7     H      -0.103107  -0.106367   0.091329
     8     C       0.040486   0.009671  -0.012305
     9     H      -0.071079  -0.089097   0.154778
    10     H       0.012428   0.042930   0.071066
    11     O      -0.001704  -0.005587  -0.002382
    12     H       0.304571  -0.495819   0.443945
    13     H       0.121613   0.081071   0.020928
 
 Mode:    24      Frequency (cm-1):     1343.6080     Intensity (km/mol):       11.3512
 Index  Atom      ---- Displacements (x/y/z) ----
     1     C      -0.114099  -0.011474  -0.069412
     2     C       0.067265  -0.074552   0.096002
     3     H      -0.343387   0.488704  -0.452801
     4     C       0.060416   0.002019   0.006464
     5     H       0.062914   0.137218   0.114204
     6     H       0.521482  -0.026940   0.096655
     7     H       0.087720  -0.020219   0.059416
     8     C      -0.021348   0.037843   0.009092
     9     H       0.008081   0.040880  -0.097326
    10     H       0.048674  -0.064329  -0.097100
    11     O      -0.013646   0.006378  -0.001593
    12     H      -0.004794   0.050341  -0.073003
    13     H      -0.071650  -0.157208  -0.026596
 
 Mode:    25      Frequency (cm-1):     1374.9388     Intensity (km/mol):        8.4956
 Index  Atom      ---- Displacements (x/y/z) ----
     1     C      -0.015053  -0.023502   0.001461
     2     C      -0.006021   0.014731  -0.022601
     3     H       0.033035  -0.055364   0.044016
     4     C      -0.004104   0.005066   0.004434
     5     H       0.056891   0.171559   0.176148
     6     H       0.076971   0.202971  -0.143029
     7     H       0.017478   0.421746  -0.322319
     8     C      -0.005935  -0.062538   0.113015
     9     H       0.229760   0.105346  -0.450937
    10     H      -0.143521   0.156727  -0.481468
    11     O       0.000200  -0.014237  -0.003308
    12     H       0.036895  -0.059601   0.061317
    13     H       0.059786   0.071317   0.022048
 
 Mode:    26      Frequency (cm-1):     1381.7941     Intensity (km/mol):        7.9411
 Index  Atom      ---- Displacements (x/y/z) ----
     1     C       0.004410  -0.005497   0.002104
     2     C      -0.007980   0.033759  -0.022984
     3     H      -0.020925  -0.041371   0.045541
     4     C       0.067648  -0.010417   0.014939
     5     H       0.010040  -0.247781  -0.175964
     6     H      -0.103001  -0.242933   0.147362
     7     H      -0.011300   0.085670  -0.064844
     8     C       0.006431  -0.018730   0.026523
     9     H       0.053398   0.020812  -0.070789
    10     H      -0.044590   0.061120  -0.105379
    11     O      -0.019091   0.071675   0.006356
    12     H       0.069017  -0.105146   0.122300
    13     H      -0.489190  -0.657374  -0.244181
 
 Mode:    27      Frequency (cm-1):     1402.1953     Intensity (km/mol):       13.4876
 Index  Atom      ---- Displacements (x/y/z) ----
     1     C      -0.038539   0.083093  -0.012653
     2     C       0.014110  -0.004197   0.012010
     3     H      -0.002066   0.040659  -0.033766
     4     C      -0.018512  -0.005711  -0.010056
     5     H       0.143310  -0.452691  -0.358911
     6     H      -0.030177  -0.471199   0.408688
     7     H       0.088134   0.101432  -0.068799
     8     C      -0.013371  -0.016043   0.029044
     9     H       0.079780   0.071554  -0.088868
    10     H      -0.036718   0.024294  -0.164967
    11     O       0.010325  -0.018531   0.000989
    12     H       0.021135  -0.007302  -0.047370
    13     H       0.243247   0.306967   0.119875
 
 Mode:    28      Frequency (cm-1):     1448.5150     Intensity (km/mol):        3.6091
 Index  Atom      ---- Displacements (x/y/z) ----
     1     C      -0.010421  -0.000341   0.002975
     2     C      -0.052467   0.005996   0.049827
     3     H       0.616136   0.238450  -0.134650
     4     C       0.005159  -0.006522  -0.001176
     5     H      -0.005603  -0.001533   0.008892
     6     H       0.016417   0.008558   0.002489
     7     H      -0.180039  -0.016308   0.007521
     8     C       0.007286  -0.002500   0.001108
     9     H       0.025762   0.003573  -0.116501
    10     H      -0.053721   0.086893   0.123228
    11     O       0.000404   0.008109   0.001558
    12     H       0.194282  -0.375862  -0.535004
    13     H      -0.019027  -0.032368  -0.008581
 
 Mode:    29      Frequency (cm-1):     1465.2291     Intensity (km/mol):        7.6695
 Index  Atom      ---- Displacements (x/y/z) ----
     1     C       0.008003  -0.008772   0.003520
     2     C      -0.034468   0.000862  -0.004457
     3     H       0.136470   0.036203  -0.027862
     4     C       0.000365   0.001570   0.001196
     5     H      -0.019511   0.040611   0.032188
     6     H      -0.010101   0.044266  -0.043221
     7     H       0.579640  -0.188221   0.174130
     8     C      -0.040633  -0.017186  -0.014356
     9     H       0.195652   0.384021   0.451532
    10     H      -0.098689   0.099594  -0.375803
    11     O      -0.000509   0.000017  -0.000587
    12     H       0.034420  -0.118177  -0.027645
    13     H      -0.015226  -0.018437  -0.006151
 
 Mode:    30      Frequency (cm-1):     1473.9439     Intensity (km/mol):        5.8211
 Index  Atom      ---- Displacements (x/y/z) ----
     1     C       0.003288  -0.004875   0.001279
     2     C      -0.025063   0.026073   0.009475
     3     H       0.124520   0.003016   0.042752
     4     C       0.000621  -0.002230  -0.002013
     5     H      -0.013792   0.003895   0.003315
     6     H       0.014525   0.002394  -0.001281
     7     H       0.339444   0.269152  -0.189443
     8     C      -0.022787   0.038847   0.019463
     9     H      -0.335636  -0.355447   0.110370
    10     H       0.354422  -0.553127  -0.228878
    11     O       0.000044   0.003577   0.000838
    12     H       0.050722  -0.098779  -0.083314
    13     H      -0.011705  -0.016270  -0.002644
 
 Mode:    31      Frequency (cm-1):     1759.4289     Intensity (km/mol):      156.3311
 Index  Atom      ---- Displacements (x/y/z) ----
     1     C       0.002869   0.039759   0.007248
     2     C       0.001386  -0.019188   0.000058
     3     H      -0.049601  -0.020369  -0.018759
     4     C      -0.170501  -0.653246  -0.152880
     5     H       0.100403   0.119600   0.129122
     6     H       0.210254   0.137425  -0.036721
     7     H       0.020308  -0.002325   0.003488
     8     C      -0.003354   0.000457   0.003034
     9     H       0.023665   0.025889  -0.014282
    10     H      -0.015823   0.008771  -0.037412
    11     O       0.088734   0.445399   0.096829
    12     H      -0.067892   0.103333   0.008304
    13     H       0.389794   0.086576   0.126717
 
 Mode:    32      Frequency (cm-1):     2787.0172     Intensity (km/mol):      168.6779
 Index  Atom      ---- Displacements (x/y/z) ----
     1     C       0.000434  -0.003436  -0.000269
     2     C       0.000312  -0.000558   0.000677
     3     H       0.002822  -0.004076  -0.005151
     4     C      -0.062587   0.051935  -0.009989
     5     H       0.007539   0.024735  -0.038169
     6     H      -0.017249   0.028131   0.039733
     7     H      -0.000499   0.001458   0.001944
     8     C      -0.000147   0.000022  -0.000214
     9     H       0.001571  -0.001459   0.000008
    10     H       0.000803   0.000180   0.000582
    11     O       0.000941   0.002769   0.000716
    12     H      -0.001451   0.002742  -0.000999
    13     H       0.729612  -0.666745   0.107308
 
 Mode:    33      Frequency (cm-1):     2955.9407     Intensity (km/mol):       27.0394
 Index  Atom      ---- Displacements (x/y/z) ----
     1     C       0.012985   0.065411  -0.024067
     2     C      -0.007834  -0.004399   0.000939
     3     H      -0.002282  -0.014007  -0.013247
     4     C      -0.003461   0.005256  -0.001098
     5     H      -0.255556  -0.519014   0.656461
     6     H       0.089386  -0.261271  -0.364773
     7     H      -0.000289   0.018149   0.018875
     8     C       0.000973   0.000086  -0.001454
     9     H       0.010026  -0.006982   0.000171
    10     H      -0.022634  -0.015022  -0.000259
    11     O       0.000020  -0.001192  -0.000171
    12     H       0.101759   0.062990   0.002624
    13     H       0.047545  -0.035991   0.008633
 
 Mode:    34      Frequency (cm-1):     2988.1502     Intensity (km/mol):        3.5016
 Index  Atom      ---- Displacements (x/y/z) ----
     1     C       0.020727  -0.021108  -0.074326
     2     C      -0.015832   0.005239   0.013333
     3     H       0.007614  -0.165799  -0.178794
     4     C       0.002521  -0.001320  -0.000918
     5     H      -0.115191  -0.251603   0.279833
     6     H      -0.141030   0.500179   0.623257
     7     H       0.007898  -0.128496  -0.140195
     8     C       0.002003  -0.003006   0.014078
     9     H      -0.128176   0.102150  -0.021094
    10     H       0.097311   0.061209   0.002021
    11     O       0.000049   0.000243  -0.000219
    12     H       0.177645   0.105267   0.008256
    13     H      -0.019005   0.013681  -0.000262
 
 Mode:    35      Frequency (cm-1):     2991.6443     Intensity (km/mol):       25.7474
 Index  Atom      ---- Displacements (x/y/z) ----
     1     C      -0.005280   0.008018   0.018235
     2     C       0.003071  -0.005337  -0.008363
     3     H      -0.006915   0.089400   0.098566
     4     C      -0.001073   0.000404   0.000080
     5     H       0.022576   0.045155  -0.048905
     6     H       0.041078  -0.140612  -0.173764
     7     H       0.023377  -0.461194  -0.518617
     8     C       0.000335  -0.007608   0.049269
     9     H      -0.389144   0.311361  -0.069220
    10     H       0.362331   0.233835   0.007455
    11     O      -0.000007   0.000066   0.000016
    12     H      -0.027454  -0.018633  -0.001782
    13     H       0.009356  -0.006501   0.000885
 
 Mode:    36      Frequency (cm-1):     3001.7597     Intensity (km/mol):       30.2978
 Index  Atom      ---- Displacements (x/y/z) ----
     1     C      -0.008907  -0.000569   0.028464
     2     C      -0.059266  -0.005821   0.028602
     3     H       0.011864  -0.333967  -0.351972
     4     C       0.000487   0.000392   0.000653
     5     H       0.066698   0.148882  -0.171323
     6     H       0.039829  -0.143458  -0.175940
     7     H       0.003812   0.005007   0.005476
     8     C       0.009801  -0.002798   0.000266
     9     H      -0.074666   0.059188  -0.012225
    10     H      -0.044658  -0.031828  -0.000347
    11     O       0.000027  -0.000249   0.000016
    12     H       0.688185   0.404746   0.016289
    13     H      -0.002257   0.000116  -0.000637
 
 Mode:    37      Frequency (cm-1):     3037.7781     Intensity (km/mol):        5.1304
 Index  Atom      ---- Displacements (x/y/z) ----
     1     C      -0.001951   0.006431   0.008041
     2     C       0.031632   0.060961   0.045088
     3     H       0.047689  -0.500645  -0.544883
     4     C      -0.000097   0.000696   0.000090
     5     H       0.000362   0.004239  -0.001466
     6     H       0.023309  -0.071827  -0.091755
     7     H      -0.008365   0.160849   0.185955
     8     C      -0.001965  -0.036295  -0.011421
     9     H      -0.191194   0.140026  -0.042116
    10     H       0.226140   0.134578  -0.004405
    11     O       0.000059  -0.000458  -0.000138
    12     H      -0.428032  -0.238290   0.002873
    13     H       0.000296  -0.000207   0.000319
 
 Mode:    38      Frequency (cm-1):     3061.0725     Intensity (km/mol):       39.2060
 Index  Atom      ---- Displacements (x/y/z) ----
     1     C      -0.000726   0.002072   0.003647
     2     C       0.007676   0.025803   0.021860
     3     H       0.020939  -0.235617  -0.258343
     4     C       0.000200   0.000569   0.000154
     5     H       0.001122   0.004931  -0.005714
     6     H       0.011412  -0.032980  -0.038178
     7     H       0.009707  -0.382659  -0.449427
     8     C      -0.039851   0.069872   0.026726
     9     H       0.545252  -0.424614   0.118333
    10     H      -0.077592  -0.025773   0.008449
    11     O       0.000007  -0.000374  -0.000051
    12     H      -0.121245  -0.067824   0.001838
    13     H      -0.000348  -0.000150   0.000095
 
 Mode:    39      Frequency (cm-1):     3080.4818     Intensity (km/mol):       24.8014
 Index  Atom      ---- Displacements (x/y/z) ----
     1     C       0.000366  -0.000928  -0.000504
     2     C      -0.013305  -0.014621  -0.008013
     3     H      -0.008108   0.083426   0.093143
     4     C       0.000105  -0.000640  -0.000029
     5     H       0.000984   0.001779  -0.002001
     6     H      -0.003089   0.007660   0.009495
     7     H      -0.027095   0.156355   0.181149
     8     C      -0.082243  -0.030354  -0.018939
     9     H       0.297841  -0.258763   0.058298
    10     H       0.713353   0.464244  -0.009459
    11     O      -0.000043   0.000362  -0.000150
    12     H       0.159947   0.092182  -0.001242
    13     H      -0.001085   0.001546   0.000256

PES point character: Geometry corresponds to a local minimum on the PES.




 ============================
 Statistical Thermal Analysis  ***  ideal gas assumed  ***
 ============================
  
 Pressure:                  1.000000 atm.
 Temperature:             298.150000 K



 Moments of Inertia [amu*bohr^2] and principal axis
 ==================================================

         205.0739        543.4289        649.6867
 ------------------------------------------------
          -0.8115         -0.2734         -0.5165
           0.0893         -0.9315          0.3526
          -0.5775          0.2400          0.7803


 The rotational contribution to the molecular entropy includes
 a term, dependent on the symmetry number sigma. The results 
 reported below were computed using sigma = 1, determined from
 the point group symmetry of the input geometry (NOSYM). 
 If this is not the correct symmetry, try symmetrizing the molecule before
 running the calculation (note: linear molecules should be aligned along one
 of the Cartesian axes).
 Contributions from frequencies below 20 1/cm are not included in vibrational sums.
 Their contributions, if any, are reported separately.


     Temp                                                        Transl      Rotat     Vibrat     Total
     ----                                                        ------      -----     ------     -----

     298.15   Entropy (cal/mol-K):                               38.741     25.785     12.951     77.477
              Nuclear Internal Energy (kcal/mol):                 0.889      0.889     71.452     73.229
              Constant Volume Heat Capacity (cal/mol-K):          2.981      2.981     15.170     21.132
          (c) Constant Volume Heat Capacity (cal/mol-K):          2.981      2.981     14.427     20.388

       Summary of energy terms
                                                   hartree              eV         kcal/mol           kJ/mol
                                      --------------------     -----------       ----------      -----------
      Energy from Engine:               -2.563880679595966        -69.7667         -1608.86         -6731.47
      Nuclear Internal Energy:           0.116698488141420          3.1755            73.23           306.39
  (c) Nuclear Internal Energy:           0.116293717929739          3.1645            72.98           305.33
      Internal Energy U:                -2.447182191454546        -66.5912         -1535.63         -6425.08
      pV/n = RT:                         0.000944186013486          0.0257             0.59             2.48
      Enthalpy H:                       -2.446238005441060        -66.5655         -1535.04         -6422.60
      -T*S:                             -0.036811871039921         -1.0017           -23.10           -96.65
  (c) -T*S:                             -0.036630501953742         -0.9968           -22.99           -96.17
      Gibbs free energy:                -2.483049876480981        -67.5672         -1558.14         -6519.25
 
 
 
  (c) The properties marked with this symbol have been corrected using 'low vibrational frequency free rotor
      interpolation corrections'. For those terms all positive frequencies are used (also ones below 20 1/cm),
      but the contribution to the partition function of small vibrational frequencies is modified as described
      in the following paper:
      S. Grimme, 'Supramolecular Binding Thermodynamics by Dispersion-Corrected Density Functional Theory'
      (Chem. Eur. J. 2012, 18, 9955-9964)
      Configuration: Dampener Frequency          :   100.000 1/cm
                     Dampener Alpha              :     4.000
                     Averaging Moment of Inertia : 1.000E-44 kg m2

--------------
Atomic charges
--------------
  Index   Atom    Charge
      1      C    0.3820
      2      C    0.4498
      3      H   -0.1879
      4      C    0.6614
      5      H   -0.1691
      6      H   -0.1728
      7      H   -0.2206
      8      C    0.6353
      9      H   -0.2298
     10      H   -0.1884
     11      O   -0.4873
     12      H   -0.2086
     13      H   -0.2640


Dipole moment vector    (Debye):     1.17823634    2.19784140    0.63248144
              magnitude (Debye):     2.57269907


Final PES point is a local minimum. Geometry optimization successful!


AMS application finished. Exiting.
NORMAL TERMINATION
     Total cpu time:    4098.90
  Total system time:      21.53
 Total elapsed time:    6223.13
