

 Parallel Execution: Process Information
 ==============================================================================
 Rank   Node Name                              NodeID   MyNodeRank  NodeMaster
    0   node120                                   0          0          0
    1   node120                                   0          1         -1
    2   node120                                   0          2         -1
    3   node120                                   0          3         -1
    4   node120                                   0          4         -1
    5   node120                                   0          5         -1
    6   node120                                   0          6         -1
    7   node120                                   0          7         -1
    8   node120                                   0          8         -1
    9   node120                                   0          9         -1
   10   node120                                   0         10         -1
   11   node120                                   0         11         -1
   12   node120                                   0         12         -1
   13   node120                                   0         13         -1
   14   node120                                   0         14         -1
   15   node120                                   0         15         -1
 ==============================================================================


May use up to 122928MB of RAM as shared memory on node 0

 *******************************************************************************
 *                                                                             *
 *  --------------------------------                                           *
 *   Amsterdam Modeling Suite (AMS)              2021.102                      *
 *  --------------------------------                                           *
 *                                               r95042 2021-06-07             *
 *                                                                             *
 *                                                                             *
 *                              =================                              *
 *                              |               |                              *
 *                              |     A M S     |                              *
 *                              |               |                              *
 *                              =================                              *
 *                                                                             *
 *                                                                             *
 *   Online information and documentation:  https://www.scm.com/support/       *
 *   E-mail:  support@scm.com   info@scm.com                                   *
 *                                                                             *
 *   Scientific publications using AMS results must be properly referenced     *
 *   See the User Manuals (or the web site) for recommended citations          *
 *   The terms and conditions of the End User License Agreement apply to       *
 *   the use of AMS, https://www.scm.com/license-terms/                        *
 *                                                                             *
 **********************  x86_64_linux_intel / intelmpi  ************************
 
 Licensed to: VU/FEW (+ SARA) / ALGEMEEN / Amsterdam / THE NETHERLANDS
 SCM User ID: u7668
  
 AMS 2021.102  RunTime: Jan21-2022 15:43:20  ShM Nodes: 1  Procs: 16

 AMS jobname: ams
 AMS jobid  : 559659706

 Start   directory: /scistor/tc/yhk800/MasterProject/manual_calculations/achiral_cat/LT/
 Results directory: /scistor/tc/yhk800/MasterProject/manual_calculations/achiral_cat/LT/ams.results/
 Scratch directory: /scratch/3736/amstmp_ams_kid0.559659706/


 Communication costs MPI_COMM_WORLD:      1.864 usec per message,   0.0063 usec per 8-byte item
 Communication costs for intra-node:      1.841 usec per message,   0.0064 usec per 8-byte item

 RNG seed: 622946210 799532972 1138278419 1313429340 2037303134 -353012926 1353294973 725708504



                     *************************************************************************
                     *  ADF 2021.102  RunTime: Jan21-2022 15:43:20  ShM Nodes: 1  Procs: 16  *
                     *************************************************************************
  
       *********************************
       * Potential Energy Surface Scan *
       *********************************
 
--------
Geometry
--------
Formula: C4H7I2O
Atoms
  Index Symbol   x (angstrom)   y (angstrom)   z (angstrom)
      1      H     0.09039378    -1.80988465    -0.51555853
      2      C    -0.90781845    -0.00771283    -0.04943451
      3      C     0.18266548    -0.75219647    -0.26512258
      4      C     1.55928918    -0.22013974    -0.18291419
      5      O     1.86635738     0.93365884     0.07180470
      6      H    -0.82431619     1.04491294     0.20242594
      7      H     2.35514434    -0.97166538    -0.37832575
      8      H    -1.90537398    -0.43378138    -0.11863169
      9      I     0.75455898     3.97606385     0.75978565
     10      I    -0.28217983     6.48163758     1.31970910
     11      C    -1.09438702    -0.08993317     2.94362947
     12      H    -0.17993554     0.40981118     3.22723849
     13      H    -1.93402033     0.56385539     3.12795642
     14      H    -1.20661427    -0.99281082     3.52553753
 
Total System Charge             0.00000
Bonding info available!
 
Total number of PES points: 15

====> Coordinate 1
Number of sample points: 15
Description: Distance C(11)--C(2)
Range:     3.0000    1.5400 Angstrom

Optimization Method                    Quasi Newton
Optimization Coordinates               Delocalized Coordinates
Optimize lattice                       F
 
 ------------------------------------------------------
 Convergence criteria (Hartree,Angstrom)
 ------------------------------------------------------
 Maximum gradient               0.001000000000
 Maximum rms gradient           0.000666666667
 Maximum step allowed           0.010000000000
 Maximum rms step allowed       0.006666666667
 Maximum energy change allowe   0.000140000000
 Maximum stress energy allowe   0.000500000000
 
Initial model Hessian                  Automatic Hessian
 
------------------------------------
Quasi-Newton Optimizer Parameters
------------------------------------
Hessian Update Method                  BFGS
Maximum number of steps                  250
First GDIIS cycle                          0
Maximum GDIIS vectors                      0
Trust radius (bohr)                        0.200000
Trust radius varies                        T
Constraints converged at all steps         T
Use projector                              T
 
 Rigid motions settings for: old optimizer
 Atomic rotations (x,y,z):     T T T
 Atomic translations (x,y,z):  T T T
 Tolerance:                   1.000000000000000E-006
 
----------------
ADF Engine Input
----------------
 
 Basis
 Type TZ2P
 Core None
 End
 SpinPolarization 1.0
 XC
 GGA OLYP
 End
 Unrestricted Yes
 NumericalQuality VeryGood
 

 Title: *** (NO TITLE) ***

Bad geometry: could not add a dihedral for atom   10
 Using automatic Hessian for delocalized coordinates.
 *** PESPoint(1)_GOStep1 ***

 Energy gradients wrt nuclear displacements
 ==========================================

     Atom      Cartesian (a.u./angstrom)
                 X         Y         Z
 ----------------------------------------
     1 H    -0.001359 -0.001341 -0.000636
     2 C     0.008247 -0.003518 -0.004158
     3 C    -0.007867  0.006592  0.006553
     4 C     0.004287  0.000749  0.001066
     5 O    -0.002817 -0.001926 -0.000901
     6 H     0.001595  0.000711  0.002561
     7 H    -0.002565  0.000920  0.000281
     8 H    -0.000870 -0.001343  0.000901
     9 I     0.007833 -0.020071 -0.004197
    10 I    -0.008504  0.019887  0.004442
    11 C     0.002777 -0.015105 -0.063920
    12 H    -0.021656 -0.005183  0.021111
    13 H     0.018900 -0.009174  0.022511
    14 H     0.001999  0.028802  0.014386
 ----------------------------------------
 Mulliken charges used for AMS results%charges...
 Residual max backtransformation error   0.2178E+00


 Constraint values: difference between the actual and the fixed coord values, a.u.
 =================================================================================

 Index  Constr. value     Atom indices
 ------------- NON-BLOCK constraints -------------------
     1   -0.88818E-15    11     2
 -------------------------------------------------------
 
----------------------------------------------------------------------
Geometry Convergence after Step   1       (Hartree/Angstrom,Angstrom)
----------------------------------------------------------------------
current energy                               -2.40551773 Hartree
energy change                      -2.40551773     0.00014000    F
constrained gradient max            0.03449103     0.00100000    F
constrained gradient rms            0.01256203     0.00066667    F
gradient max                        0.06390623
gradient rms                        0.01424625
cart. step max                      0.05709186     0.01000000    F
cart. step rms                      0.02080090     0.00666667    F
 
 
--------
Geometry
--------
Formula: C4H7I2O
Atoms
  Index Symbol   x (angstrom)   y (angstrom)   z (angstrom)
      1      H     0.10709735    -1.81268611    -0.49995337
      2      C    -0.92250488    -0.02354249    -0.03612988
      3      C     0.18255855    -0.75344802    -0.25294339
      4      C     1.55245107    -0.20212264    -0.17739060
      5      O     1.85270906     0.95583949     0.07174677
      6      H    -0.85532923     1.03063242     0.21284900
      7      H     2.35849998    -0.94442114    -0.37271344
      8      H    -1.91347515    -0.46504585    -0.09587696
      9      I     0.77031205     4.01082738     0.75104869
     10      I    -0.22508797     6.52065089     1.30508504
     11      C    -1.10086727    -0.10264026     2.95751847
     12      H    -0.17198526     0.40950010     3.19522898
     13      H    -1.96282073     0.54421289     3.10282313
     14      H    -1.19779407    -1.03594133     3.50680761
 
Total System Charge             0.00000
Bonding info available!
 
 *** PESPoint(1)_GOStep2 ***

 Energy gradients wrt nuclear displacements
 ==========================================

     Atom      Cartesian (a.u./angstrom)
                 X         Y         Z
 ----------------------------------------
     1 H    -0.000893 -0.000801 -0.000671
     2 C     0.001273  0.000675 -0.003996
     3 C    -0.002959  0.000598  0.005509
     4 C     0.001620 -0.000142  0.001084
     5 O    -0.000044  0.000208 -0.000562
     6 H     0.001096  0.000178  0.002681
     7 H    -0.001035  0.000912  0.000238
     8 H    -0.000655 -0.000781  0.001525
     9 I     0.006456 -0.016996 -0.003492
    10 I    -0.006959  0.016949  0.003726
    11 C     0.002586 -0.014382 -0.058300
    12 H    -0.009129  0.000077  0.018262
    13 H     0.007824 -0.001125  0.018204
    14 H     0.000819  0.014628  0.015793
 ----------------------------------------
 Mulliken charges used for AMS results%charges...

 dE(predicted):    -0.34009E-02, dE(actual):    -0.37274E-02, Trust radius:    0.400000, all in a.u.
 Residual max backtransformation error   0.4248E+00


 Constraint values: difference between the actual and the fixed coord values, a.u.
 =================================================================================

 Index  Constr. value     Atom indices
 ------------- NON-BLOCK constraints -------------------
     1    0.00000E+00    11     2
 -------------------------------------------------------
 
----------------------------------------------------------------------
Geometry Convergence after Step   2       (Hartree/Angstrom,Angstrom)
----------------------------------------------------------------------
current energy                               -2.40924516 Hartree
energy change                      -0.00372743     0.00014000    F
constrained gradient max            0.03140913     0.00100000    F
constrained gradient rms            0.00988988     0.00066667    F
gradient max                        0.05828719
gradient rms                        0.01160543
cart. step max                      0.10375010     0.01000000    F
cart. step rms                      0.03926462     0.00666667    F
 
 
--------
Geometry
--------
Formula: C4H7I2O
Atoms
  Index Symbol   x (angstrom)   y (angstrom)   z (angstrom)
      1      H     0.13491434    -1.81590537    -0.46038633
      2      C    -0.94314191    -0.05232963     0.00015289
      3      C     0.18177947    -0.75376614    -0.22310962
      4      C     1.53741323    -0.17019149    -0.16685357
      5      O     1.81894766     0.99443469     0.07182576
      6      H    -0.90413511     1.00564317     0.23761325
      7      H     2.36074539    -0.89648104    -0.36341001
      8      H    -1.92250084    -0.51992919    -0.04579422
      9      I     0.78926656     4.07039782     0.73860106
     10      I    -0.12133788     6.57471731     1.28420378
     11      C    -1.11233939    -0.11518690     2.99471817
     12      H    -0.15778834     0.40864312     3.11214590
     13      H    -2.00945172     0.51086142     3.03879063
     14      H    -1.17860797    -1.10909243     3.44960236
 
Total System Charge             0.00000
Bonding info available!
 
 *** PESPoint(1)_GOStep3 ***

 Energy gradients wrt nuclear displacements
 ==========================================

     Atom      Cartesian (a.u./angstrom)
                 X         Y         Z
 ----------------------------------------
     1 H    -0.000010  0.000298 -0.000467
     2 C    -0.002476  0.002456 -0.003233
     3 C     0.000411 -0.001999  0.005188
     4 C    -0.002320  0.001932  0.001007
     5 O     0.001306 -0.001342 -0.000818
     6 H     0.000551 -0.000306  0.002590
     7 H     0.001239  0.000298  0.000349
     8 H    -0.000632 -0.000210  0.001720
     9 I     0.002471 -0.007143 -0.001348
    10 I    -0.002729  0.007095  0.001520
    11 C    -0.000225 -0.010189 -0.035300
    12 H     0.008364  0.006903  0.008952
    13 H    -0.006493  0.008074  0.007164
    14 H     0.000543 -0.005866  0.012676
 ----------------------------------------
 Mulliken charges used for AMS results%charges...

 dE(predicted):    -0.48135E-02, dE(actual):    -0.51866E-02, Trust radius:    0.800000, all in a.u.
 Residual max backtransformation error   0.2597E+00


 Constraint values: difference between the actual and the fixed coord values, a.u.
 =================================================================================

 Index  Constr. value     Atom indices
 ------------- NON-BLOCK constraints -------------------
     1    0.00000E+00    11     2
 -------------------------------------------------------
 
----------------------------------------------------------------------
Geometry Convergence after Step   3       (Hartree/Angstrom,Angstrom)
----------------------------------------------------------------------
current energy                               -2.41443173 Hartree
energy change                      -0.00518658     0.00014000    F
constrained gradient max            0.01938132     0.00100000    F
constrained gradient rms            0.00608747     0.00066667    F
gradient max                        0.03528772
gradient rms                        0.00707331
cart. step max                      0.07417969     0.01000000    F
cart. step rms                      0.02797949     0.00666667    F
 
 
--------
Geometry
--------
Formula: C4H7I2O
Atoms
  Index Symbol   x (angstrom)   y (angstrom)   z (angstrom)
      1      H     0.15323068    -1.81789850    -0.43027920
      2      C    -0.95409714    -0.07522903     0.03444373
      3      C     0.18143005    -0.75328308    -0.20197437
      4      C     1.52651597    -0.14873500    -0.15767549
      5      O     1.79237084     1.02147812     0.07658999
      6      H    -0.93733841     0.98659711     0.25517451
      7      H     2.35815007    -0.86333220    -0.36561549
      8      H    -1.92461679    -0.55941147    -0.01624754
      9      I     0.80069623     4.11282464     0.73054535
     10      I    -0.04715818     6.61324746     1.26778117
     11      C    -1.11734953    -0.11721296     3.02970432
     12      H    -0.15854726     0.40332462     3.05768735
     13      H    -2.03293688     0.47467827     2.99440339
     14      H    -1.16658614    -1.14523262     3.39356233
 
Total System Charge             0.00000
Bonding info available!
 
 *** PESPoint(1)_GOStep4 ***

 Energy gradients wrt nuclear displacements
 ==========================================

     Atom      Cartesian (a.u./angstrom)
                 X         Y         Z
 ----------------------------------------
     1 H     0.000301  0.000469  0.000129
     2 C    -0.000779  0.000469  0.001010
     3 C    -0.000574  0.000129  0.002945
     4 C    -0.004050 -0.000412  0.002049
     5 O     0.001823  0.001246 -0.000802
     6 H     0.000043 -0.000628  0.001238
     7 H     0.001372 -0.000400 -0.000219
     8 H    -0.000182  0.000428  0.000246
     9 I    -0.000352  0.000924  0.000338
    10 I     0.000256 -0.001009 -0.000239
    11 C    -0.000273 -0.004174 -0.017025
    12 H     0.009017  0.005175  0.002420
    13 H    -0.006782  0.005385  0.001207
    14 H     0.000184 -0.007601  0.006703
 ----------------------------------------
 Mulliken charges used for AMS results%charges...

 dE(predicted):    -0.13759E-02, dE(actual):    -0.17637E-02, Trust radius:    0.800000, all in a.u.
 Residual max backtransformation error   0.1443E+00


 Constraint values: difference between the actual and the fixed coord values, a.u.
 =================================================================================

 Index  Constr. value     Atom indices
 ------------- NON-BLOCK constraints -------------------
     1    0.00000E+00    11     2
 -------------------------------------------------------
 
----------------------------------------------------------------------
Geometry Convergence after Step   4       (Hartree/Angstrom,Angstrom)
----------------------------------------------------------------------
current energy                               -2.41619546 Hartree
energy change                      -0.00176372     0.00014000    F
constrained gradient max            0.00903033     0.00100000    F
constrained gradient rms            0.00335171     0.00066667    F
gradient max                        0.01701515
gradient rms                        0.00391729
cart. step max                      0.03649355     0.01000000    F
cart. step rms                      0.01528915     0.00666667    F
 
 
--------
Geometry
--------
Formula: C4H7I2O
Atoms
  Index Symbol   x (angstrom)   y (angstrom)   z (angstrom)
      1      H     0.16215319    -1.82925800    -0.41288550
      2      C    -0.95742040    -0.09374705     0.04869661
      3      C     0.18272713    -0.76209514    -0.19424464
      4      C     1.52227000    -0.14543975    -0.16330224
      5      O     1.77672229     1.02517874     0.07872712
      6      H    -0.95159334     0.97304949     0.24785228
      7      H     2.35844467    -0.85450764    -0.36899962
      8      H    -1.92276444    -0.58888811     0.00671838
      9      I     0.79663422     4.11832243     0.74304433
     10      I    -0.02547594     6.61463650     1.29482655
     11      C    -1.11496908    -0.09221732     3.04455643
     12      H    -0.15894977     0.42102168     3.02157334
     13      H    -2.03559083     0.47795693     2.96446822
     14      H    -1.15842420    -1.13219742     3.35706878
 
Total System Charge             0.00000
Bonding info available!
 
 *** PESPoint(1)_GOStep5 ***

 Energy gradients wrt nuclear displacements
 ==========================================

     Atom      Cartesian (a.u./angstrom)
                 X         Y         Z
 ----------------------------------------
     1 H     0.000265  0.000152 -0.000013
     2 C    -0.000728 -0.000386  0.003670
     3 C    -0.000028  0.000917  0.003040
     4 C    -0.002743  0.000967 -0.001541
     5 O     0.000696 -0.000257  0.000460
     6 H    -0.000127  0.000300  0.000338
     7 H     0.000729 -0.000647  0.001188
     8 H    -0.000065  0.000373 -0.000353
     9 I    -0.001338  0.003832  0.000956
    10 I     0.001261 -0.004014 -0.000894
    11 C     0.001364 -0.000490 -0.009068
    12 H     0.004205  0.001577 -0.000072
    13 H    -0.003275  0.001361 -0.000615
    14 H    -0.000216 -0.003687  0.002904
 ----------------------------------------
 Mulliken charges used for AMS results%charges...

 dE(predicted):    -0.34863E-03, dE(actual):    -0.40698E-03, Trust radius:    0.800000, all in a.u.
 Residual max backtransformation error   0.6806E-01


 Constraint values: difference between the actual and the fixed coord values, a.u.
 =================================================================================

 Index  Constr. value     Atom indices
 ------------- NON-BLOCK constraints -------------------
     1    0.00000E+00    11     2
 -------------------------------------------------------
 
----------------------------------------------------------------------
Geometry Convergence after Step   5       (Hartree/Angstrom,Angstrom)
----------------------------------------------------------------------
current energy                               -2.41660244 Hartree
energy change                      -0.00040698     0.00014000    F
constrained gradient max            0.00421501     0.00100000    F
constrained gradient rms            0.00175116     0.00066667    F
gradient max                        0.00906076
gradient rms                        0.00225821
cart. step max                      0.02715299     0.01000000    F
cart. step rms                      0.00981970     0.00666667    F
 
 
--------
Geometry
--------
Formula: C4H7I2O
Atoms
  Index Symbol   x (angstrom)   y (angstrom)   z (angstrom)
      1      H     0.16522626    -1.82858387    -0.41162962
      2      C    -0.95462125    -0.09658843     0.06238930
      3      C     0.18546010    -0.76203956    -0.18894536
      4      C     1.52410938    -0.14285411    -0.15375687
      5      O     1.77225794     1.03026249     0.08318736
      6      H    -0.95028070     0.97062727     0.25944903
      7      H     2.35936115    -0.84246178    -0.39238964
      8      H    -1.91867185    -0.59455446     0.02277117
      9      I     0.79953586     4.12919487     0.73351639
     10      I    -0.01047971     6.63131427     1.27984261
     11      C    -1.12221547    -0.09630962     3.05770432
     12      H    -0.16696754     0.40847847     3.02245025
     13      H    -2.04015456     0.46952609     2.96359532
     14      H    -1.16879611    -1.14419628     3.32991580
 
Total System Charge             0.00000
Bonding info available!
 
 *** PESPoint(1)_GOStep6 ***

 Energy gradients wrt nuclear displacements
 ==========================================

     Atom      Cartesian (a.u./angstrom)
                 X         Y         Z
 ----------------------------------------
     1 H     0.000079 -0.000057 -0.000211
     2 C    -0.000478 -0.000210  0.004738
     3 C    -0.000482  0.001676 -0.000486
     4 C    -0.000991 -0.001312  0.007455
     5 O    -0.000168  0.000991 -0.002280
     6 H    -0.000125  0.000504 -0.000433
     7 H     0.000191 -0.000244 -0.001913
     8 H     0.000024  0.000026  0.000026
     9 I    -0.001235  0.003568  0.000796
    10 I     0.001172 -0.003750 -0.000801
    11 C     0.002579  0.001640 -0.006109
    12 H    -0.000175 -0.001133 -0.000749
    13 H    -0.000075 -0.001223 -0.001014
    14 H    -0.000316 -0.000473  0.000980
 ----------------------------------------
 Mulliken charges used for AMS results%charges...

 dE(predicted):    -0.10415E-03, dE(actual):    -0.76647E-04, Trust radius:    0.800000, all in a.u.
 Residual max backtransformation error   0.2767E-01


 Constraint values: difference between the actual and the fixed coord values, a.u.
 =================================================================================

 Index  Constr. value     Atom indices
 ------------- NON-BLOCK constraints -------------------
     1    0.88818E-15    11     2
 -------------------------------------------------------
 
----------------------------------------------------------------------
Geometry Convergence after Step   6       (Hartree/Angstrom,Angstrom)
----------------------------------------------------------------------
current energy                               -2.41667908 Hartree
energy change                      -0.00007665     0.00014000    T
constrained gradient max            0.00744707     0.00100000    F
constrained gradient rms            0.00165344     0.00066667    F
gradient max                        0.00744707
gradient rms                        0.00205902
cart. step max                      0.03097179     0.01000000    F
cart. step rms                      0.01047889     0.00666667    F
 
 
--------
Geometry
--------
Formula: C4H7I2O
Atoms
  Index Symbol   x (angstrom)   y (angstrom)   z (angstrom)
      1      H     0.16973404    -1.84138722    -0.40343883
      2      C    -0.95358134    -0.10875110     0.06089765
      3      C     0.18726186    -0.77266313    -0.19068360
      4      C     1.52292969    -0.14545015    -0.16774426
      5      O     1.76711587     1.02606038     0.08151544
      6      H    -0.95140252     0.96056388     0.24567837
      7      H     2.36134086    -0.84363297    -0.39729888
      8      H    -1.91597553    -0.61070515     0.03026030
      9      I     0.79519970     4.12224210     0.74841391
     10      I    -0.01447339     6.62562920     1.31081441
     11      C    -1.12147292    -0.07495345     3.05600535
     12      H    -0.16769322     0.42814537     3.01431199
     13      H    -2.03810345     0.48984976     2.95971085
     14      H    -1.16711614    -1.12313218     3.31965735
 
Total System Charge             0.00000
Bonding info available!
 
 *** PESPoint(1)_GOStep7 ***

 Energy gradients wrt nuclear displacements
 ==========================================

     Atom      Cartesian (a.u./angstrom)
                 X         Y         Z
 ----------------------------------------
     1 H    -0.000132 -0.000286 -0.000054
     2 C    -0.000038  0.000131  0.005230
     3 C    -0.000769  0.000799  0.000942
     4 C    -0.000929  0.000135  0.001072
     5 O    -0.000002  0.000848  0.000135
     6 H    -0.000008  0.000409 -0.000514
     7 H    -0.000002 -0.000558  0.000273
     8 H    -0.000004 -0.000137 -0.000290
     9 I    -0.000728  0.002001  0.000471
    10 I     0.000660 -0.002186 -0.000462
    11 C     0.002837  0.001483 -0.005143
    12 H    -0.002278 -0.002206 -0.000824
    13 H     0.001534 -0.002107 -0.001003
    14 H    -0.000140  0.001675  0.000167
 ----------------------------------------
 Mulliken charges used for AMS results%charges...

 dE(predicted):    -0.69456E-04, dE(actual):    -0.84379E-04, Trust radius:    0.800000, all in a.u.
 Residual max backtransformation error   0.8711E-02


 Constraint values: difference between the actual and the fixed coord values, a.u.
 =================================================================================

 Index  Constr. value     Atom indices
 ------------- NON-BLOCK constraints -------------------
     1    0.88818E-15    11     2
 -------------------------------------------------------
 
----------------------------------------------------------------------
Geometry Convergence after Step   7       (Hartree/Angstrom,Angstrom)
----------------------------------------------------------------------
current energy                               -2.41676346 Hartree
energy change                      -0.00008438     0.00014000    T
constrained gradient max            0.00254855     0.00100000    F
constrained gradient rms            0.00103876     0.00066667    F
gradient max                        0.00523607
gradient rms                        0.00155491
cart. step max                      0.01587294     0.01000000    F
cart. step rms                      0.00640666     0.00666667    T
 
 
--------
Geometry
--------
Formula: C4H7I2O
Atoms
  Index Symbol   x (angstrom)   y (angstrom)   z (angstrom)
      1      H     0.17445283    -1.84841966    -0.40230585
      2      C    -0.95023593    -0.11574209     0.06088716
      3      C     0.19061430    -0.77918994    -0.19254851
      4      C     1.52437918    -0.14696800    -0.17729954
      5      O     1.76580939     1.02300014     0.08016564
      6      H    -0.94776005     0.95403813     0.24177505
      7      H     2.36442699    -0.84059491    -0.41241078
      8      H    -1.91218012    -0.61893026     0.03605020
      9      I     0.79493723     4.11876848     0.75378164
     10      I    -0.01738226     6.62730055     1.32154658
     11      C    -1.12658664    -0.06645030     3.05529373
     12      H    -0.17140725     0.43563861     3.02326496
     13      H    -2.04015538     0.50572271     2.97017380
     14      H    -1.17514877    -1.11635812     3.30972597
 
Total System Charge             0.00000
Bonding info available!
 
 *** PESPoint(1)_GOStep8 ***

 Energy gradients wrt nuclear displacements
 ==========================================

     Atom      Cartesian (a.u./angstrom)
                 X         Y         Z
 ----------------------------------------
     1 H    -0.000192 -0.000220  0.000046
     2 C    -0.000083  0.000679  0.005108
     3 C    -0.000770  0.000092  0.001309
     4 C    -0.000507  0.001271 -0.000698
     5 O    -0.000180 -0.000310  0.000673
     6 H     0.000120  0.000178 -0.000491
     7 H    -0.000178 -0.000224  0.000946
     8 H    -0.000030 -0.000222 -0.000290
     9 I     0.000028 -0.000274 -0.000055
    10 I    -0.000095  0.000128  0.000064
    11 C     0.002393 -0.000001 -0.005150
    12 H    -0.002078 -0.001720 -0.000690
    13 H     0.001479 -0.001475 -0.000905
    14 H     0.000092  0.002099  0.000133
 ----------------------------------------
 Mulliken charges used for AMS results%charges...

 dE(predicted):    -0.47991E-04, dE(actual):    -0.77304E-04, Trust radius:    0.800000, all in a.u.
 Residual max backtransformation error   0.4535E-01


 Constraint values: difference between the actual and the fixed coord values, a.u.
 =================================================================================

 Index  Constr. value     Atom indices
 ------------- NON-BLOCK constraints -------------------
     1    0.00000E+00    11     2
 -------------------------------------------------------
 
----------------------------------------------------------------------
Geometry Convergence after Step   8       (Hartree/Angstrom,Angstrom)
----------------------------------------------------------------------
current energy                               -2.41684077 Hartree
energy change                      -0.00007730     0.00014000    T
constrained gradient max            0.00211358     0.00100000    F
constrained gradient rms            0.00082097     0.00066667    F
gradient max                        0.00514319
gradient rms                        0.00140593
cart. step max                      0.05085815     0.01000000    F
cart. step rms                      0.01744801     0.00666667    F
 
 
--------
Geometry
--------
Formula: C4H7I2O
Atoms
  Index Symbol   x (angstrom)   y (angstrom)   z (angstrom)
      1      H     0.19069390    -1.86236415    -0.40070429
      2      C    -0.94083372    -0.13425297     0.06837915
      3      C     0.20140503    -0.79276903    -0.19381477
      4      C     1.52945409    -0.14696783    -0.19816914
      5      O     1.76313671     1.02116149     0.07537341
      6      H    -0.94060568     0.93644817     0.24217554
      7      H     2.37271494    -0.82550311    -0.46326893
      8      H    -1.90054431    -0.64225188     0.05686579
      9      I     0.79951319     4.11895823     0.75964964
     10      I    -0.01282553     6.64052179     1.33274769
     11      C    -1.14601843    -0.05209140     3.06022619
     12      H    -0.18611937     0.44565062     3.05408474
     13      H    -2.05262874     0.53703471     3.00252906
     14      H    -1.20357858    -1.11175931     3.27202595
 
Total System Charge             0.00000
Bonding info available!
 
 *** PESPoint(1)_GOStep9 ***

 Energy gradients wrt nuclear displacements
 ==========================================

     Atom      Cartesian (a.u./angstrom)
                 X         Y         Z
 ----------------------------------------
     1 H    -0.000226  0.000019  0.000161
     2 C    -0.000448  0.001471  0.005068
     3 C    -0.000817 -0.001155  0.001056
     4 C    -0.000161  0.000894 -0.001493
     5 O    -0.000257  0.000035  0.001234
     6 H     0.000322 -0.000111 -0.000583
     7 H     0.000069  0.000102  0.000955
     8 H    -0.000131 -0.000323 -0.000174
     9 I     0.001480 -0.004587 -0.001095
    10 I    -0.001525  0.004539  0.001078
    11 C     0.001511 -0.001810 -0.005140
    12 H    -0.000758 -0.000163 -0.000541
    13 H     0.000605  0.000301 -0.000797
    14 H     0.000338  0.000788  0.000271
 ----------------------------------------
 Mulliken charges used for AMS results%charges...

 dE(predicted):    -0.10234E-03, dE(actual):    -0.13763E-03, Trust radius:    0.800000, all in a.u.
 Residual max backtransformation error   0.4842E-01


 Constraint values: difference between the actual and the fixed coord values, a.u.
 =================================================================================

 Index  Constr. value     Atom indices
 ------------- NON-BLOCK constraints -------------------
     1    0.88818E-15    11     2
 -------------------------------------------------------
 
----------------------------------------------------------------------
Geometry Convergence after Step   9       (Hartree/Angstrom,Angstrom)
----------------------------------------------------------------------
current energy                               -2.41697840 Hartree
energy change                      -0.00013763     0.00014000    T
constrained gradient max            0.00459572     0.00100000    F
constrained gradient rms            0.00124432     0.00066667    F
gradient max                        0.00513293
gradient rms                        0.00169525
cart. step max                      0.04052792     0.01000000    F
cart. step rms                      0.01435672     0.00666667    F
 
 
--------
Geometry
--------
Formula: C4H7I2O
Atoms
  Index Symbol   x (angstrom)   y (angstrom)   z (angstrom)
      1      H     0.20566934    -1.86813539    -0.40023265
      2      C    -0.93388800    -0.14721301     0.07863247
      3      C     0.21063824    -0.79876728    -0.19244859
      4      C     1.53361543    -0.14300633    -0.21227516
      5      O     1.76244877     1.02407971     0.06863890
      6      H    -0.93857614     0.92382683     0.25031836
      7      H     2.37789466    -0.80986834    -0.50379685
      8      H    -1.89074935    -0.66052076     0.07552495
      9      I     0.80676211     4.12473767     0.75849317
     10      I    -0.00008500     6.65307016     1.32882503
     11      C    -1.16404393    -0.04726128     3.06812037
     12      H    -0.20069564     0.44656141     3.08174669
     13      H    -2.06749476     0.54999775     3.02947613
     14      H    -1.22773224    -1.11568581     3.23707723
 
Total System Charge             0.00000
Bonding info available!
 
 *** PESPoint(1)_GOStep10 ***

 Energy gradients wrt nuclear displacements
 ==========================================

     Atom      Cartesian (a.u./angstrom)
                 X         Y         Z
 ----------------------------------------
     1 H    -0.000100  0.000165  0.000148
     2 C    -0.000925  0.001449  0.005147
     3 C    -0.000415 -0.001261  0.000646
     4 C    -0.000363  0.000947 -0.000368
     5 O    -0.000396 -0.000577  0.000826
     6 H     0.000314 -0.000115 -0.000614
     7 H     0.000491  0.000322  0.000390
     8 H    -0.000144 -0.000220 -0.000086
     9 I     0.001919 -0.005893 -0.001410
    10 I    -0.001942  0.005884  0.001370
    11 C     0.001023 -0.001471 -0.005107
    12 H     0.000541  0.000840 -0.000497
    13 H    -0.000213  0.001183 -0.000721
    14 H     0.000210 -0.001254  0.000277
 ----------------------------------------
 Mulliken charges used for AMS results%charges...

 dE(predicted):    -0.52413E-04, dE(actual):    -0.82024E-04, Trust radius:    0.800000, all in a.u.
 Residual max backtransformation error   0.6769E-01


 Constraint values: difference between the actual and the fixed coord values, a.u.
 =================================================================================

 Index  Constr. value     Atom indices
 ------------- NON-BLOCK constraints -------------------
     1   -0.88818E-15    11     2
 -------------------------------------------------------
 
----------------------------------------------------------------------
Geometry Convergence after Step  10       (Hartree/Angstrom,Angstrom)
----------------------------------------------------------------------
current energy                               -2.41706042 Hartree
energy change                      -0.00008202     0.00014000    T
constrained gradient max            0.00590168     0.00100000    F
constrained gradient rms            0.00148778     0.00066667    F
gradient max                        0.00590168
gradient rms                        0.00188941
cart. step max                      0.05073445     0.01000000    F
cart. step rms                      0.01990494     0.00666667    F
 
 
--------
Geometry
--------
Formula: C4H7I2O
Atoms
  Index Symbol   x (angstrom)   y (angstrom)   z (angstrom)
      1      H     0.22608005    -1.87094680    -0.40088633
      2      C    -0.92426949    -0.16167047     0.09478072
      3      C     0.22342799    -0.80217998    -0.18980575
      4      C     1.53980869    -0.13499306    -0.23105257
      5      O     1.76492429     1.03182778     0.05431740
      6      H    -0.93748956     0.90923931     0.26767056
      7      H     2.38299014    -0.78945958    -0.55453130
      8      H    -1.87668435    -0.68288689     0.10130742
      9      I     0.81873567     4.13580290     0.75221518
     10      I     0.02110320     6.66710792     1.31459958
     11      C    -1.19009793    -0.04578946     3.08073229
     12      H    -0.22288878     0.44188853     3.12281995
     13      H    -2.09121091     0.55773523     3.06789992
     14      H    -1.26066549    -1.12386007     3.18803296
 
Total System Charge             0.00000
Bonding info available!
 
 *** PESPoint(1)_GOStep11 ***

 Energy gradients wrt nuclear displacements
 ==========================================

     Atom      Cartesian (a.u./angstrom)
                 X         Y         Z
 ----------------------------------------
     1 H     0.000119  0.000225  0.000072
     2 C    -0.001281  0.000818  0.005168
     3 C     0.000025 -0.000757  0.000314
     4 C    -0.001122 -0.000096  0.001096
     5 O    -0.000184 -0.000142  0.000372
     6 H     0.000151 -0.000008 -0.000500
     7 H     0.001043  0.000382 -0.000482
     8 H    -0.000161  0.000009 -0.000015
     9 I     0.001775 -0.005439 -0.001281
    10 I    -0.001777  0.005432  0.001232
    11 C     0.000677  0.000293 -0.005093
    12 H     0.002032  0.001698 -0.000349
    13 H    -0.001159  0.001752 -0.000531
    14 H    -0.000138 -0.004167 -0.000004
 ----------------------------------------
 Mulliken charges used for AMS results%charges...
 Rebuilding optimization coordinates
Bad geometry: could not add a dihedral for atom   10

 dE(predicted):    -0.68452E-04, dE(actual):    -0.98335E-04, Trust radius:    1.000000, all in a.u.
 Residual max backtransformation error   0.1118E-01


 Constraint values: difference between the actual and the fixed coord values, a.u.
 =================================================================================

 Index  Constr. value     Atom indices
 ------------- NON-BLOCK constraints -------------------
     1    0.00000E+00    11     2
 -------------------------------------------------------
 
----------------------------------------------------------------------
Geometry Convergence after Step  11       (Hartree/Angstrom,Angstrom)
----------------------------------------------------------------------
current energy                               -2.41715876 Hartree
energy change                      -0.00009833     0.00014000    T
constrained gradient max            0.00544896     0.00100000    F
constrained gradient rms            0.00155729     0.00066667    F
gradient max                        0.00544896
gradient rms                        0.00194221
cart. step max                      0.03543549     0.01000000    F
cart. step rms                      0.01543622     0.00666667    F
 
 
--------
Geometry
--------
Formula: C4H7I2O
Atoms
  Index Symbol   x (angstrom)   y (angstrom)   z (angstrom)
      1      H     0.23940499    -1.86731552    -0.40451153
      2      C    -0.91641177    -0.16728722     0.10794029
      3      C     0.23278417    -0.79939668    -0.18855875
      4      C     1.54530532    -0.12674378    -0.24481270
      5      O     1.77067234     1.04039618     0.03877767
      6      H    -0.93596935     0.90260834     0.28711654
      7      H     2.38507573    -0.77732644    -0.58491923
      8      H    -1.86551049    -0.69411062     0.11971803
      9      I     0.82885727     4.14631178     0.74137881
     10      I     0.03821228     6.67409600     1.29438057
     11      C    -1.21068263    -0.05117109     3.09121394
     12      H    -0.24192808     0.43074005     3.15804642
     13      H    -2.11116970     0.55337409     3.09973253
     14      H    -1.28487659    -1.13235977     3.15259747
 
Total System Charge             0.00000
Bonding info available!
 
 *** PESPoint(1)_GOStep12 ***

 Energy gradients wrt nuclear displacements
 ==========================================

     Atom      Cartesian (a.u./angstrom)
                 X         Y         Z
 ----------------------------------------
     1 H     0.000253  0.000159  0.000009
     2 C    -0.001208  0.000021  0.004968
     3 C     0.000388 -0.000005  0.000336
     4 C    -0.001501 -0.000538  0.001823
     5 O     0.000035 -0.000008 -0.000014
     6 H    -0.000053  0.000050 -0.000224
     7 H     0.000872  0.000352 -0.000851
     8 H    -0.000083  0.000211 -0.000007
     9 I     0.001046 -0.003155 -0.000718
    10 I    -0.001036  0.003109  0.000683
    11 C     0.000759  0.000814 -0.005116
    12 H     0.002169  0.001511 -0.000162
    13 H    -0.001358  0.001413 -0.000278
    14 H    -0.000283 -0.003933 -0.000450
 ----------------------------------------
 Mulliken charges used for AMS results%charges...

 dE(predicted):    -0.52630E-04, dE(actual):    -0.80459E-04, Trust radius:    1.000000, all in a.u.
 Residual max backtransformation error   0.7646E-02


 Constraint values: difference between the actual and the fixed coord values, a.u.
 =================================================================================

 Index  Constr. value     Atom indices
 ------------- NON-BLOCK constraints -------------------
     1    0.88818E-15    11     2
 -------------------------------------------------------
 
----------------------------------------------------------------------
Geometry Convergence after Step  12       (Hartree/Angstrom,Angstrom)
----------------------------------------------------------------------
current energy                               -2.41723922 Hartree
energy change                      -0.00008046     0.00014000    T
constrained gradient max            0.00391721     0.00100000    F
constrained gradient rms            0.00117152     0.00066667    F
gradient max                        0.00511020
gradient rms                        0.00162526
cart. step max                      0.00869932     0.01000000    T
cart. step rms                      0.00376187     0.00666667    T
 
 
--------
Geometry
--------
Formula: C4H7I2O
Atoms
  Index Symbol   x (angstrom)   y (angstrom)   z (angstrom)
      1      H     0.23867582    -1.86346076    -0.40808103
      2      C    -0.91439543    -0.16380881     0.11000294
      3      C     0.23375450    -0.79595538    -0.18973765
      4      C     1.54719822    -0.12516164    -0.24703495
      5      O     1.77443828     1.04227118     0.03389269
      6      H    -0.93318742     0.90534611     0.29364468
      7      H     2.38528847    -0.77908068    -0.58427214
      8      H    -1.86367277    -0.69028242     0.12141303
      9      I     0.82997972     4.14791562     0.73558975
     10      I     0.03851511     6.67228535     1.28590579
     11      C    -1.21402885    -0.05553146     3.09303761
     12      H    -0.24548180     0.42456435     3.16674575
     13      H    -2.11423084     0.54867196     3.10712351
     14      H    -1.28908951    -1.13595808     3.14987007
 
Total System Charge             0.00000
Bonding info available!
 
 *** PESPoint(1)_GOStep13 ***

 Energy gradients wrt nuclear displacements
 ==========================================

     Atom      Cartesian (a.u./angstrom)
                 X         Y         Z
 ----------------------------------------
     1 H     0.000210  0.000097  0.000016
     2 C    -0.000974 -0.000152  0.004783
     3 C     0.000293  0.000147  0.000520
     4 C    -0.001249 -0.000452  0.001422
     5 O     0.000018  0.000163  0.000083
     6 H    -0.000068  0.000037 -0.000078
     7 H     0.000540  0.000194 -0.000682
     8 H    -0.000038  0.000182 -0.000045
     9 I     0.000677 -0.002004 -0.000449
    10 I    -0.000671  0.001944  0.000420
    11 C     0.000965  0.000456 -0.005328
    12 H     0.001582  0.001067 -0.000077
    13 H    -0.001048  0.000992 -0.000148
    14 H    -0.000236 -0.002671 -0.000439
 ----------------------------------------
 Mulliken charges used for AMS results%charges...

 dE(predicted):    -0.17170E-04, dE(actual):    -0.29319E-04, Trust radius:    1.000000, all in a.u.
 Residual max backtransformation error   0.2556E-01


 Constraint values: difference between the actual and the fixed coord values, a.u.
 =================================================================================

 Index  Constr. value     Atom indices
 ------------- NON-BLOCK constraints -------------------
     1   -0.17764E-14    11     2
 -------------------------------------------------------
 
----------------------------------------------------------------------
Geometry Convergence after Step  13       (Hartree/Angstrom,Angstrom)
----------------------------------------------------------------------
current energy                               -2.41726854 Hartree
energy change                      -0.00002932     0.00014000    T
constrained gradient max            0.00265519     0.00100000    F
constrained gradient rms            0.00081259     0.00066667    F
gradient max                        0.00532187
gradient rms                        0.00138597
cart. step max                      0.02901540     0.01000000    F
cart. step rms                      0.01218239     0.00666667    F
 
 
--------
Geometry
--------
Formula: C4H7I2O
Atoms
  Index Symbol   x (angstrom)   y (angstrom)   z (angstrom)
      1      H     0.23577013    -1.85212879    -0.42077261
      2      C    -0.90608028    -0.15232963     0.11745890
      3      C     0.23768208    -0.78607103    -0.19470455
      4      C     1.55470406    -0.12195231    -0.25617920
      5      O     1.78755582     1.04610896     0.01663305
      6      H    -0.92048104     0.91439842     0.31431378
      7      H     2.38806915    -0.78540384    -0.58469684
      8      H    -1.85669578    -0.67638069     0.12961977
      9      I     0.83207937     4.15002849     0.71712142
     10      I     0.03516836     6.66415815     1.26361231
     11      C    -1.22644730    -0.06710901     3.09908638
     12      H    -0.25838403     0.40622742     3.19576114
     13      H    -2.12430370     0.53782191     3.13177420
     14      H    -1.30487333    -1.14555270     3.13907228
 
Total System Charge             0.00000
Bonding info available!
 
 *** PESPoint(1)_GOStep14 ***

 Energy gradients wrt nuclear displacements
 ==========================================

     Atom      Cartesian (a.u./angstrom)
                 X         Y         Z
 ----------------------------------------
     1 H     0.000081 -0.000036  0.000009
     2 C    -0.000729 -0.000184  0.004540
     3 C     0.000215  0.000363  0.000924
     4 C    -0.000116  0.000130  0.000235
     5 O    -0.000279  0.000038  0.000268
     6 H    -0.000089 -0.000162  0.000238
     7 H    -0.000235 -0.000102 -0.000138
     8 H    -0.000004  0.000069 -0.000106
     9 I    -0.000291  0.000963  0.000228
    10 I     0.000277 -0.001048 -0.000242
    11 C     0.001341 -0.000474 -0.006018
    12 H    -0.000309 -0.000136  0.000143
    13 H     0.000110 -0.000063  0.000247
    14 H     0.000027  0.000642 -0.000329
 ----------------------------------------
 Mulliken charges used for AMS results%charges...

 dE(predicted):    -0.38290E-04, dE(actual):    -0.38946E-04, Trust radius:    1.000000, all in a.u.
 Residual max backtransformation error   0.5878E-02


 Constraint values: difference between the actual and the fixed coord values, a.u.
 =================================================================================

 Index  Constr. value     Atom indices
 ------------- NON-BLOCK constraints -------------------
     1    0.88818E-15    11     2
 -------------------------------------------------------
 
----------------------------------------------------------------------
Geometry Convergence after Step  14       (Hartree/Angstrom,Angstrom)
----------------------------------------------------------------------
current energy                               -2.41730748 Hartree
energy change                      -0.00003895     0.00014000    T
constrained gradient max            0.00104926     0.00100000    F
constrained gradient rms            0.00038639     0.00066667    T
gradient max                        0.00601176
gradient rms                        0.00123362
cart. step max                      0.00543198     0.01000000    T
cart. step rms                      0.00276683     0.00666667    T
 
 
--------
Geometry
--------
Formula: C4H7I2O
Atoms
  Index Symbol   x (angstrom)   y (angstrom)   z (angstrom)
      1      H     0.23389244    -1.85032405    -0.42379703
      2      C    -0.90339274    -0.14918910     0.11947661
      3      C     0.23838601    -0.78453170    -0.19648656
      4      C     1.55672035    -0.12266408    -0.25882250
      5      O     1.79118375     1.04575981     0.01120108
      6      H    -0.91534226     0.91717062     0.31827741
      7      H     2.38941335    -0.78829136    -0.58442588
      8      H    -1.85483889    -0.67173067     0.13276438
      9      I     0.83152100     4.14861887     0.71264056
     10      I     0.03131332     6.66066087     1.26249213
     11      C    -1.22917356    -0.06819812     3.10063533
     12      H    -0.26118161     0.40416837     3.20084427
     13      H    -2.12662936     0.53690063     3.13508959
     14      H    -1.30810830    -1.14653474     3.13821066
 
Total System Charge             0.00000
Bonding info available!
 
 *** PESPoint(1)_GOStep15 ***

 Energy gradients wrt nuclear displacements
 ==========================================

     Atom      Cartesian (a.u./angstrom)
                 X         Y         Z
 ----------------------------------------
     1 H     0.000026 -0.000053  0.000008
     2 C    -0.000610 -0.000129  0.004669
     3 C     0.000002  0.000297  0.000844
     4 C     0.000028  0.000094  0.000090
     5 O    -0.000262  0.000134  0.000301
     6 H    -0.000062 -0.000183  0.000216
     7 H    -0.000238 -0.000077 -0.000044
     8 H    -0.000002  0.000006 -0.000115
     9 I    -0.000340  0.001084  0.000250
    10 I     0.000315 -0.001160 -0.000263
    11 C     0.001299 -0.000403 -0.006106
    12 H    -0.000518 -0.000259  0.000159
    13 H     0.000309 -0.000210  0.000295
    14 H     0.000053  0.000859 -0.000303
 ----------------------------------------
 Mulliken charges used for AMS results%charges...

 dE(predicted):    -0.39215E-05, dE(actual):    -0.57292E-05, Trust radius:    1.000000, all in a.u.
 Residual max backtransformation error   0.2721E-01


 Constraint values: difference between the actual and the fixed coord values, a.u.
 =================================================================================

 Index  Constr. value     Atom indices
 ------------- NON-BLOCK constraints -------------------
     1    0.88818E-15    11     2
 -------------------------------------------------------
 
----------------------------------------------------------------------
Geometry Convergence after Step  15       (Hartree/Angstrom,Angstrom)
----------------------------------------------------------------------
current energy                               -2.41731321 Hartree
energy change                      -0.00000573     0.00014000    T
constrained gradient max            0.00116083     0.00100000    F
constrained gradient rms            0.00040674     0.00066667    T
gradient max                        0.00609967
gradient rms                        0.00126078
cart. step max                      0.03574355     0.01000000    F
cart. step rms                      0.01563608     0.00666667    F
 
 
--------
Geometry
--------
Formula: C4H7I2O
Atoms
  Index Symbol   x (angstrom)   y (angstrom)   z (angstrom)
      1      H     0.22321530    -1.84174076    -0.43869979
      2      C    -0.88758873    -0.13191452     0.13136754
      3      C     0.24237119    -0.77721569    -0.20650850
      4      C     1.56801422    -0.12879067    -0.27492397
      5      O     1.81211699     1.04205816    -0.02454247
      6      H    -0.88464994     0.93283194     0.33821509
      7      H     2.39732725    -0.80663499    -0.58286648
      8      H    -1.84403650    -0.64499510     0.15344872
      9      I     0.82712665     4.13706223     0.68825733
     10      I     0.00632788     6.63725516     1.26682024
     11      C    -1.24421786    -0.07059522     3.10946351
     12      H    -0.27720081     0.40020052     3.22331257
     13      H    -2.14177197     0.53352504     3.14474441
     14      H    -1.32327016    -1.14923077     3.14001185
 
Total System Charge             0.00000
Bonding info available!
 
 *** PESPoint(1)_GOStep16 ***

 Energy gradients wrt nuclear displacements
 ==========================================

     Atom      Cartesian (a.u./angstrom)
                 X         Y         Z
 ----------------------------------------
     1 H    -0.000191 -0.000040 -0.000018
     2 C    -0.000468  0.000300  0.005693
     3 C    -0.000633 -0.000237 -0.000021
     4 C     0.000401  0.000089 -0.000065
     5 O    -0.000106  0.000041  0.000142
     6 H     0.000084 -0.000175 -0.000008
     7 H     0.000017  0.000242  0.000349
     8 H    -0.000004 -0.000253 -0.000094
     9 I    -0.000323  0.000820  0.000169
    10 I     0.000223 -0.000839 -0.000167
    11 C     0.000993  0.000347 -0.006384
    12 H    -0.000788 -0.000497  0.000176
    13 H     0.000736 -0.000619  0.000431
    14 H     0.000059  0.000823 -0.000203
 ----------------------------------------
 Mulliken charges used for AMS results%charges...

 dE(predicted):    -0.25160E-04, dE(actual):    -0.21412E-04, Trust radius:    1.000000, all in a.u.
 Residual max backtransformation error   0.1898E-02


 Constraint values: difference between the actual and the fixed coord values, a.u.
 =================================================================================

 Index  Constr. value     Atom indices
 ------------- NON-BLOCK constraints -------------------
     1    0.00000E+00    11     2
 -------------------------------------------------------
 
----------------------------------------------------------------------
Geometry Convergence after Step  16       (Hartree/Angstrom,Angstrom)
----------------------------------------------------------------------
current energy                               -2.41733462 Hartree
energy change                      -0.00002141     0.00014000    T
constrained gradient max            0.00083943     0.00100000    T
constrained gradient rms            0.00037145     0.00066667    T
gradient max                        0.00637660
gradient rms                        0.00137912
cart. step max                      0.01509301     0.01000000    F
cart. step rms                      0.00508172     0.00666667    T
 
 
--------
Geometry
--------
Formula: C4H7I2O
Atoms
  Index Symbol   x (angstrom)   y (angstrom)   z (angstrom)
      1      H     0.22183401    -1.83998286    -0.44073715
      2      C    -0.88272892    -0.12810973     0.13590537
      3      C     0.24407315    -0.77553729    -0.20868470
      4      C     1.57102234    -0.13040810    -0.28123198
      5      O     1.81811607     1.04174337    -0.03963548
      6      H    -0.87624296     0.93647306     0.34358707
      7      H     2.39933741    -0.81184071    -0.58417549
      8      H    -1.84018106    -0.63900481     0.16222027
      9      I     0.82692442     4.13388388     0.68107705
     10      I     0.00140047     6.63105413     1.27303396
     11      C    -1.24994132    -0.07077118     3.11279424
     12      H    -0.28451804     0.40402530     3.22656512
     13      H    -2.15006928     0.53032614     3.14132318
     14      H    -1.32526277    -1.15003589     3.14605858
 
Total System Charge             0.00000
Bonding info available!
 
 *** PESPoint(1)_GOStep17 ***

 Energy gradients wrt nuclear displacements
 ==========================================

     Atom      Cartesian (a.u./angstrom)
                 X         Y         Z
 ----------------------------------------
     1 H    -0.000155  0.000010 -0.000028
     2 C    -0.000538  0.000311  0.006028
     3 C    -0.000568 -0.000327 -0.000401
     4 C     0.000003 -0.000138  0.000176
     5 O     0.000118  0.000131 -0.000004
     6 H     0.000103 -0.000116 -0.000068
     7 H     0.000187  0.000312  0.000362
     8 H     0.000018 -0.000241 -0.000067
     9 I    -0.000185  0.000349  0.000054
    10 I     0.000061 -0.000342 -0.000043
    11 C     0.000925  0.000561 -0.006298
    12 H    -0.000385 -0.000323  0.000128
    13 H     0.000418 -0.000449  0.000381
    14 H    -0.000001  0.000263 -0.000220
 ----------------------------------------
 Mulliken charges used for AMS results%charges...

 dE(predicted):    -0.64357E-05, dE(actual):    -0.77734E-05, Trust radius:    1.000000, all in a.u.
 Residual max backtransformation error   0.7762E-02


 Constraint values: difference between the actual and the fixed coord values, a.u.
 =================================================================================

 Index  Constr. value     Atom indices
 ------------- NON-BLOCK constraints -------------------
     1    0.00000E+00    11     2
 -------------------------------------------------------
 
----------------------------------------------------------------------
Geometry Convergence after Step  17       (Hartree/Angstrom,Angstrom)
----------------------------------------------------------------------
current energy                               -2.41734240 Hartree
energy change                      -0.00000777     0.00014000    T
constrained gradient max            0.00069265     0.00100000    T
constrained gradient rms            0.00025720     0.00066667    T
gradient max                        0.00629104
gradient rms                        0.00137832
cart. step max                      0.02219166     0.01000000    F
cart. step rms                      0.00744970     0.00666667    F
 
 
--------
Geometry
--------
Formula: C4H7I2O
Atoms
  Index Symbol   x (angstrom)   y (angstrom)   z (angstrom)
      1      H     0.22448139    -1.83942994    -0.43846185
      2      C    -0.87744619    -0.12688302     0.14217775
      3      C     0.24737335    -0.77448422    -0.20902635
      4      C     1.57389298    -0.13079620    -0.29111047
      5      O     1.82340391     1.04334197    -0.06182713
      6      H    -0.86982112     0.93800412     0.34868087
      7      H     2.40077982    -0.81550641    -0.59129407
      8      H    -1.83476165    -0.63739864     0.17531158
      9      I     0.82931478     4.13204119     0.67458795
     10      I     0.00261030     6.62689628     1.28500958
     11      C    -1.25883825    -0.07075933     3.11730635
     12      H    -0.29790304     0.41536217     3.22660556
     13      H    -2.16530060     0.52238191     3.12951795
     14      H    -1.32402218    -1.15095453     3.16062233
 
Total System Charge             0.00000
Bonding info available!
 
 *** PESPoint(1)_GOStep18 ***

 Energy gradients wrt nuclear displacements
 ==========================================

     Atom      Cartesian (a.u./angstrom)
                 X         Y         Z
 ----------------------------------------
     1 H     0.000030  0.000091 -0.000047
     2 C    -0.000782  0.000166  0.006249
     3 C    -0.000063 -0.000167 -0.000727
     4 C    -0.000750 -0.000345  0.000611
     5 O     0.000341  0.000052 -0.000276
     6 H     0.000060 -0.000029 -0.000035
     7 H     0.000352  0.000266  0.000275
     8 H     0.000040 -0.000099 -0.000016
     9 I     0.000046 -0.000370 -0.000115
    10 I    -0.000190  0.000420  0.000144
    11 C     0.000943  0.000473 -0.006012
    12 H     0.000318  0.000092  0.000001
    13 H    -0.000250  0.000011  0.000224
    14 H    -0.000096 -0.000561 -0.000275
 ----------------------------------------
 Mulliken charges used for AMS results%charges...

 dE(predicted):    -0.95624E-05, dE(actual):    -0.12150E-04, Trust radius:    1.000000, all in a.u.
 Residual max backtransformation error   0.1141E-01


 Constraint values: difference between the actual and the fixed coord values, a.u.
 =================================================================================

 Index  Constr. value     Atom indices
 ------------- NON-BLOCK constraints -------------------
     1   -0.88818E-15    11     2
 -------------------------------------------------------
 
----------------------------------------------------------------------
Geometry Convergence after Step  18       (Hartree/Angstrom,Angstrom)
----------------------------------------------------------------------
current energy                               -2.41735455 Hartree
energy change                      -0.00001215     0.00014000    T
constrained gradient max            0.00076096     0.00100000    T
constrained gradient rms            0.00028568     0.00066667    T
gradient max                        0.00625371
gradient rms                        0.00138060
cart. step max                      0.01639897     0.01000000    F
cart. step rms                      0.00694967     0.00666667    F
 
 
--------
Geometry
--------
Formula: C4H7I2O
Atoms
  Index Symbol   x (angstrom)   y (angstrom)   z (angstrom)
      1      H     0.22973433    -1.84111223    -0.43223989
      2      C    -0.87463876    -0.12934843     0.14596641
      3      C     0.25066241    -0.77520700    -0.20704416
      4      C     1.57519651    -0.12983338    -0.29961356
      5      O     1.82472126     1.04577867    -0.07799859
      6      H    -0.86920528     0.93624480     0.34929908
      7      H     2.40076502    -0.81532998    -0.60215698
      8      H    -1.83060982    -0.64181416     0.18468547
      9      I     0.83283936     4.13203628     0.67422704
     10      I     0.00900717     6.62601594     1.29705109
     11      C    -1.26583334    -0.06948977     3.11974914
     12      H    -0.31037532     0.42904187     3.22356418
     13      H    -2.17859079     0.51465395     3.11558951
     14      H    -1.31990926    -1.14982121     3.17702130
 
Total System Charge             0.00000
Bonding info available!
 
 *** PESPoint(1)_GOStep19 ***

 Energy gradients wrt nuclear displacements
 ==========================================

     Atom      Cartesian (a.u./angstrom)
                 X         Y         Z
 ----------------------------------------
     1 H     0.000176  0.000111 -0.000056
     2 C    -0.000935 -0.000042  0.006124
     3 C     0.000356  0.000154 -0.000647
     4 C    -0.001087 -0.000463  0.000748
     5 O     0.000371  0.000061 -0.000389
     6 H    -0.000002  0.000007  0.000099
     7 H     0.000331  0.000093  0.000176
     8 H     0.000037  0.000046  0.000010
     9 I     0.000170 -0.000726 -0.000189
    10 I    -0.000314  0.000802  0.000235
    11 C     0.001024  0.000062 -0.005774
    12 H     0.000601  0.000373 -0.000118
    13 H    -0.000592  0.000328  0.000072
    14 H    -0.000135 -0.000806 -0.000293
 ----------------------------------------
 Mulliken charges used for AMS results%charges...

 dE(predicted):    -0.64968E-05, dE(actual):    -0.10738E-04, Trust radius:    1.000000, all in a.u.
 Residual max backtransformation error   0.1668E-01


 Constraint values: difference between the actual and the fixed coord values, a.u.
 =================================================================================

 Index  Constr. value     Atom indices
 ------------- NON-BLOCK constraints -------------------
     1   -0.88818E-15    11     2
 -------------------------------------------------------
 
----------------------------------------------------------------------
Geometry Convergence after Step  19       (Hartree/Angstrom,Angstrom)
----------------------------------------------------------------------
current energy                               -2.41736528 Hartree
energy change                      -0.00001074     0.00014000    T
constrained gradient max            0.00109840     0.00100000    F
constrained gradient rms            0.00038399     0.00066667    T
gradient max                        0.00612913
gradient rms                        0.00137071
cart. step max                      0.02521531     0.01000000    F
cart. step rms                      0.01137340     0.00666667    F
 
 
--------
Geometry
--------
Formula: C4H7I2O
Atoms
  Index Symbol   x (angstrom)   y (angstrom)   z (angstrom)
      1      H     0.24001098    -1.84620841    -0.41977066
      2      C    -0.87106195    -0.13646314     0.15018865
      3      C     0.25648395    -0.77845815    -0.20269314
      4      C     1.57672167    -0.12776162    -0.31343932
      5      O     1.82422516     1.04955620    -0.09915108
      6      H    -0.87129467     0.93060725     0.34611121
      7      H     2.40023513    -0.81186277    -0.62498119
      8      H    -1.82395135    -0.65379157     0.19760277
      9      I     0.83880974     4.13213932     0.67901704
     10      I     0.02127103     6.62460930     1.31755664
     11      C    -1.27630339    -0.06444306     3.12181993
     12      H    -0.33024936     0.45304360     3.21900075
     13      H    -2.19822639     0.50473323     3.09460185
     14      H    -1.31290703    -1.14388483     3.20223661
 
Total System Charge             0.00000
Bonding info available!
 
 *** PESPoint(1)_GOStep20 ***

 Energy gradients wrt nuclear displacements
 ==========================================

     Atom      Cartesian (a.u./angstrom)
                 X         Y         Z
 ----------------------------------------
     1 H     0.000273  0.000075 -0.000066
     2 C    -0.001086 -0.000276  0.005776
     3 C     0.000741  0.000625 -0.000244
     4 C    -0.000991 -0.000390  0.000652
     5 O     0.000247 -0.000001 -0.000430
     6 H    -0.000084 -0.000016  0.000317
     7 H     0.000169 -0.000166  0.000061
     8 H    -0.000021  0.000200  0.000024
     9 I     0.000222 -0.000845 -0.000194
    10 I    -0.000357  0.000941  0.000259
    11 C     0.001122 -0.000630 -0.005535
    12 H     0.000562  0.000566 -0.000256
    13 H    -0.000663  0.000562 -0.000085
    14 H    -0.000134 -0.000645 -0.000279
 ----------------------------------------
 Mulliken charges used for AMS results%charges...

 dE(predicted):    -0.89011E-05, dE(actual):    -0.14498E-04, Trust radius:    1.000000, all in a.u.
 Residual max backtransformation error   0.1262E-01


 Constraint values: difference between the actual and the fixed coord values, a.u.
 =================================================================================

 Index  Constr. value     Atom indices
 ------------- NON-BLOCK constraints -------------------
     1    0.88818E-15    11     2
 -------------------------------------------------------
 
----------------------------------------------------------------------
Geometry Convergence after Step  20       (Hartree/Angstrom,Angstrom)
----------------------------------------------------------------------
current energy                               -2.41737978 Hartree
energy change                      -0.00001450     0.00014000    T
constrained gradient max            0.00100165     0.00100000    F
constrained gradient rms            0.00042057     0.00066667    T
gradient max                        0.00578084
gradient rms                        0.00132609
cart. step max                      0.02923470     0.01000000    F
cart. step rms                      0.01292956     0.00666667    F
 
 
--------
Geometry
--------
Formula: C4H7I2O
Atoms
  Index Symbol   x (angstrom)   y (angstrom)   z (angstrom)
      1      H     0.25206114    -1.85464409    -0.40457026
      2      C    -0.86736427    -0.14688224     0.15278851
      3      C     0.26315931    -0.78465202    -0.19792458
      4      C     1.57795593    -0.12625744    -0.32890399
      5      O     1.82170650     1.05236875    -0.11805555
      6      H    -0.87467728     0.92220531     0.33741523
      7      H     2.39955300    -0.80634825    -0.65389262
      8      H    -1.81627615    -0.67045209     0.21016032
      9      I     0.84412734     4.13039543     0.68919862
     10      I     0.03314273     6.61993741     1.34432972
     11      C    -1.28644446    -0.05380397     3.12191435
     12      H    -0.35063004     0.48227831     3.21448743
     13      H    -2.21725147     0.49885305     3.07373729
     14      H    -1.30529879    -1.13118282     3.22741559
 
Total System Charge             0.00000
Bonding info available!
 
 *** PESPoint(1)_GOStep21 ***

 Energy gradients wrt nuclear displacements
 ==========================================

     Atom      Cartesian (a.u./angstrom)
                 X         Y         Z
 ----------------------------------------
     1 H     0.000221 -0.000002 -0.000065
     2 C    -0.001088 -0.000367  0.005433
     3 C     0.000694  0.000899  0.000274
     4 C    -0.000416 -0.000179  0.000287
     5 O     0.000066 -0.000029 -0.000312
     6 H    -0.000118 -0.000067  0.000457
     7 H    -0.000035 -0.000326 -0.000001
     8 H    -0.000079  0.000234  0.000011
     9 I     0.000169 -0.000633 -0.000122
    10 I    -0.000286  0.000735  0.000197
    11 C     0.001139 -0.001073 -0.005474
    12 H     0.000215  0.000489 -0.000319
    13 H    -0.000375  0.000490 -0.000142
    14 H    -0.000106 -0.000172 -0.000225
 ----------------------------------------
 Mulliken charges used for AMS results%charges...

 dE(predicted):    -0.79033E-05, dE(actual):    -0.12623E-04, Trust radius:    1.000000, all in a.u.
 Residual max backtransformation error   0.3433E-02


 Constraint values: difference between the actual and the fixed coord values, a.u.
 =================================================================================

 Index  Constr. value     Atom indices
 ------------- NON-BLOCK constraints -------------------
     1    0.00000E+00    11     2
 -------------------------------------------------------
 
----------------------------------------------------------------------
Geometry Convergence after Step  21       (Hartree/Angstrom,Angstrom)
----------------------------------------------------------------------
current energy                               -2.41739241 Hartree
energy change                      -0.00001262     0.00014000    T
constrained gradient max            0.00089202     0.00100000    T
constrained gradient rms            0.00035806     0.00066667    T
gradient max                        0.00546653
gradient rms                        0.00126704
cart. step max                      0.03081311     0.01000000    F
cart. step rms                      0.01255793     0.00666667    F
 
 
--------
Geometry
--------
Formula: C4H7I2O
Atoms
  Index Symbol   x (angstrom)   y (angstrom)   z (angstrom)
      1      H     0.26305714    -1.86513760    -0.39031056
      2      C    -0.86350396    -0.15810154     0.15342013
      3      C     0.26939815    -0.79300337    -0.19455316
      4      C     1.57893338    -0.12674729    -0.34343595
      5      O     1.81843831     1.05263326    -0.13244351
      6      H    -0.87683627     0.91315492     0.32449525
      7      H     2.39927537    -0.80128711    -0.68241502
      8      H    -1.80868393    -0.68722373     0.22079824
      9      I     0.84639296     4.12523522     0.70229255
     10      I     0.03899031     6.60979530     1.37514283
     11      C    -1.29410068    -0.03777474     3.11991772
     12      H    -0.36655312     0.51204772     3.21134697
     13      H    -2.23171617     0.50103139     3.05771714
     14      H    -1.29932797    -1.11280708     3.24612743
 
Total System Charge             0.00000
Bonding info available!
 
 *** PESPoint(1)_GOStep22 ***

 Energy gradients wrt nuclear displacements
 ==========================================

     Atom      Cartesian (a.u./angstrom)
                 X         Y         Z
 ----------------------------------------
     1 H     0.000075 -0.000066 -0.000049
     2 C    -0.001003 -0.000191  0.005349
     3 C     0.000316  0.000775  0.000618
     4 C     0.000309  0.000099 -0.000153
     5 O    -0.000097 -0.000086 -0.000102
     6 H    -0.000089 -0.000111  0.000407
     7 H    -0.000167 -0.000292 -0.000006
     8 H    -0.000092  0.000141 -0.000014
     9 I     0.000049 -0.000229 -0.000017
    10 I    -0.000153  0.000322  0.000085
    11 C     0.001057 -0.000989 -0.005640
    12 H    -0.000144  0.000193 -0.000262
    13 H     0.000024  0.000191 -0.000073
    14 H    -0.000085  0.000244 -0.000143
 ----------------------------------------
 Mulliken charges used for AMS results%charges...

 dE(predicted):    -0.63145E-05, dE(actual):    -0.94120E-05, Trust radius:    1.000000, all in a.u.
 Residual max backtransformation error   0.5519E-02


 Constraint values: difference between the actual and the fixed coord values, a.u.
 =================================================================================

 Index  Constr. value     Atom indices
 ------------- NON-BLOCK constraints -------------------
     1    0.00000E+00    11     2
 -------------------------------------------------------
 
----------------------------------------------------------------------
Geometry Convergence after Step  22       (Hartree/Angstrom,Angstrom)
----------------------------------------------------------------------
current energy                               -2.41740182 Hartree
energy change                      -0.00000941     0.00014000    T
constrained gradient max            0.00076689     0.00100000    T
constrained gradient rms            0.00026057     0.00066667    T
gradient max                        0.00563214
gradient rms                        0.00124953
cart. step max                      0.02926725     0.01000000    F
cart. step rms                      0.00999795     0.00666667    F
 
 
--------
Geometry
--------
Formula: C4H7I2O
Atoms
  Index Symbol   x (angstrom)   y (angstrom)   z (angstrom)
      1      H     0.26981083    -1.87436346    -0.38093303
      2      C    -0.86031500    -0.16630013     0.15246473
      3      C     0.27334688    -0.80068965    -0.19388743
      4      C     1.57941372    -0.12920124    -0.35377648
      5      O     1.81587579     1.05069254    -0.14228884
      6      H    -0.87655982     0.90671867     0.31168468
      7      H     2.39969064    -0.79935884    -0.70109154
      8      H    -1.80320745    -0.69841183     0.22784151
      9      I     0.84491652     4.11780238     0.71347891
     10      I     0.03730637     6.59629427     1.40441007
     11      C    -1.29753304    -0.02140769     3.11689496
     12      H    -0.37475475     0.53602966     3.20877800
     13      H    -2.23927612     0.50876149     3.04760975
     14      H    -1.29495107    -1.09475084     3.25691475
 
Total System Charge             0.00000
Bonding info available!
 
 *** PESPoint(1)_GOStep23 ***

 Energy gradients wrt nuclear displacements
 ==========================================

     Atom      Cartesian (a.u./angstrom)
                 X         Y         Z
 ----------------------------------------
     1 H    -0.000048 -0.000073 -0.000024
     2 C    -0.000876  0.000131  0.005584
     3 C    -0.000096  0.000336  0.000566
     4 C     0.000616  0.000251 -0.000363
     5 O    -0.000102 -0.000099  0.000062
     6 H    -0.000026 -0.000087  0.000201
     7 H    -0.000163 -0.000120  0.000020
     8 H    -0.000040 -0.000002 -0.000027
     9 I    -0.000050  0.000078  0.000047
    10 I    -0.000053  0.000011  0.000004
    11 C     0.000933 -0.000583 -0.005917
    12 H    -0.000254 -0.000074 -0.000147
    13 H     0.000225 -0.000090  0.000035
    14 H    -0.000068  0.000321 -0.000040
 ----------------------------------------
 Mulliken charges used for AMS results%charges...

 dE(predicted):    -0.37167E-05, dE(actual):    -0.36277E-05, Trust radius:    1.000000, all in a.u.
 Residual max backtransformation error   0.6132E-02


 Constraint values: difference between the actual and the fixed coord values, a.u.
 =================================================================================

 Index  Constr. value     Atom indices
 ------------- NON-BLOCK constraints -------------------
     1    0.00000E+00    11     2
 -------------------------------------------------------
 
----------------------------------------------------------------------
Geometry Convergence after Step  23       (Hartree/Angstrom,Angstrom)
----------------------------------------------------------------------
current energy                               -2.41740545 Hartree
energy change                      -0.00000363     0.00014000    T
constrained gradient max            0.00060401     0.00100000    T
constrained gradient rms            0.00019184     0.00066667    T
gradient max                        0.00590908
gradient rms                        0.00128714
cart. step max                      0.02361950     0.01000000    F
cart. step rms                      0.00728202     0.00666667    F
 
 
--------
Geometry
--------
Formula: C4H7I2O
Atoms
  Index Symbol   x (angstrom)   y (angstrom)   z (angstrom)
      1      H     0.27348363    -1.88067865    -0.37560770
      2      C    -0.85781062    -0.17101044     0.15165148
      3      C     0.27560655    -0.80603545    -0.19459678
      4      C     1.57981220    -0.13223230    -0.36047965
      5      O     1.81459084     1.04838012    -0.15097192
      6      H    -0.87482159     0.90317785     0.30270993
      7      H     2.40066481    -0.80044637    -0.71007967
      8      H    -1.79968914    -0.70402150     0.23287249
      9      I     0.84200125     4.11063707     0.72004378
     10      I     0.03240503     6.58340846     1.42802958
     11      C    -1.29887298    -0.00846541     3.11459649
     12      H    -0.37864109     0.55328583     3.20644617
     13      H    -2.24307203     0.51673255     3.04099677
[...]
 ----------------------------------------
     1 H    -0.000182  0.000049 -0.000441
     2 C    -0.001284 -0.000698  0.004413
     3 C    -0.000042 -0.000144  0.000747
     4 C    -0.000490  0.000352 -0.001225
     5 O     0.000217  0.000276  0.000699
     6 H    -0.000084 -0.000652  0.000171
     7 H     0.000270 -0.000084  0.000518
     8 H     0.000650 -0.000020  0.000761
     9 I     0.000040 -0.000354 -0.000078
    10 I    -0.000050  0.000038  0.000022
    11 C     0.000828  0.001122 -0.004296
    12 H    -0.000534 -0.000234 -0.000552
    13 H     0.000589 -0.000318 -0.000425
    14 H     0.000072  0.000666 -0.000315
 ----------------------------------------
 Mulliken charges used for AMS results%charges...

 dE(predicted):    -0.13502E-04, dE(actual):    -0.19234E-04, Trust radius:    0.140925, all in a.u.
 Residual max backtransformation error   0.3550E-02


 Constraint values: difference between the actual and the fixed coord values, a.u.
 =================================================================================

 Index  Constr. value     Atom indices
 ------------- NON-BLOCK constraints -------------------
     1   -0.44409E-15    11     2
 -------------------------------------------------------
 
----------------------------------------------------------------------
Geometry Convergence after Step   5       (Hartree/Angstrom,Angstrom)
----------------------------------------------------------------------
current energy                               -2.47298734 Hartree
energy change                      -0.00001923     0.00014000    T
constrained gradient max            0.00122423     0.00100000    F
constrained gradient rms            0.00042596     0.00066667    T
gradient max                        0.00441624
gradient rms                        0.00108080
cart. step max                      0.06132624     0.01000000    F
cart. step rms                      0.02485809     0.00666667    F
 
 
--------
Geometry
--------
Formula: C4H7I2O
Atoms
  Index Symbol   x (angstrom)   y (angstrom)   z (angstrom)
      1      H     0.24164365    -1.79150351     0.23021535
      2      C    -0.92498201    -0.01324329     0.86436959
      3      C     0.25439459    -0.70206159     0.28954961
      4      C     1.44332538    -0.05555234    -0.18358219
      5      O     1.64692142     1.16931590    -0.17292694
      6      H    -0.82945910     1.06391189     0.72092653
      7      H     2.22590654    -0.73339722    -0.58688151
      8      H    -1.81666338    -0.34343727     0.31188549
      9      I     0.82701345     4.26244452     0.52701241
     10      I     0.16319992     6.80998465     1.11495115
     11      C    -1.14421440    -0.32866212     2.35569388
     12      H    -0.30140152     0.02062573     2.95669725
     13      H    -2.04671273     0.17489769     2.71149467
     14      H    -1.26520832    -1.40150769     2.52869477
 
Total System Charge             0.00000
Bonding info available!
 
 *** PESPoint(15)_GOStep6 ***

 Energy gradients wrt nuclear displacements
 ==========================================

     Atom      Cartesian (a.u./angstrom)
                 X         Y         Z
 ----------------------------------------
     1 H     0.000021  0.000103 -0.000463
     2 C    -0.001616 -0.000272  0.003496
     3 C    -0.001179  0.000982  0.000412
     4 C     0.000461 -0.000448  0.000626
     5 O    -0.000123  0.000340  0.000048
     6 H     0.000075 -0.001805 -0.000097
     7 H     0.000008  0.000162 -0.000320
     8 H     0.001528  0.000231  0.000844
     9 I     0.000034 -0.000332 -0.000083
    10 I    -0.000039  0.000032  0.000023
    11 C     0.000587  0.000615 -0.002864
    12 H    -0.001372 -0.000524 -0.000886
    13 H     0.001500 -0.000862 -0.000620
    14 H     0.000114  0.001781 -0.000115
 ----------------------------------------
 Mulliken charges used for AMS results%charges...

 dE(predicted):    -0.46540E-04, dE(actual):    -0.48276E-04, Trust radius:    0.281849, all in a.u.
 Residual max backtransformation error   0.1998E-02


 Constraint values: difference between the actual and the fixed coord values, a.u.
 =================================================================================

 Index  Constr. value     Atom indices
 ------------- NON-BLOCK constraints -------------------
     1   -0.44409E-15    11     2
 -------------------------------------------------------
 
----------------------------------------------------------------------
Geometry Convergence after Step   6       (Hartree/Angstrom,Angstrom)
----------------------------------------------------------------------
current energy                               -2.47303562 Hartree
energy change                      -0.00004828     0.00014000    T
constrained gradient max            0.00180191     0.00100000    F
constrained gradient rms            0.00070734     0.00066667    F
gradient max                        0.00349965
gradient rms                        0.00101954
cart. step max                      0.12127290     0.01000000    F
cart. step rms                      0.04732909     0.00666667    F
 
 
--------
Geometry
--------
Formula: C4H7I2O
Atoms
  Index Symbol   x (angstrom)   y (angstrom)   z (angstrom)
      1      H     0.27562412    -1.77149509     0.28843959
      2      C    -0.89980422     0.00625831     0.90531499
      3      C     0.27554454    -0.68065818     0.32094232
      4      C     1.43988725    -0.03269988    -0.20757449
      5      O     1.62898639     1.19440327    -0.23433974
      6      H    -0.77409495     1.08673123     0.82180147
      7      H     2.21726459    -0.71138229    -0.61903363
      8      H    -1.78143790    -0.26597484     0.30398484
      9      I     0.83625063     4.29983761     0.46012535
     10      I     0.19506585     6.85293915     1.04816413
     11      C    -1.17867094    -0.39097765     2.36683371
     12      H    -0.34880181    -0.10064718     3.01642254
     13      H    -2.07994942     0.11417803     2.72424506
     14      H    -1.33210060    -1.46869717     2.47277391
 
Total System Charge             0.00000
Bonding info available!
 
 *** PESPoint(15)_GOStep7 ***

 Energy gradients wrt nuclear displacements
 ==========================================

     Atom      Cartesian (a.u./angstrom)
                 X         Y         Z
 ----------------------------------------
     1 H     0.000326 -0.000033 -0.000234
     2 C    -0.001283  0.000249  0.002313
     3 C    -0.001508  0.001606  0.000157
     4 C     0.000309 -0.001142  0.000128
     5 O     0.000005  0.000543  0.000163
     6 H     0.000273 -0.001673 -0.000298
     7 H     0.000015  0.000326 -0.000187
     8 H     0.001358 -0.000071  0.000471
     9 I     0.000048 -0.000272 -0.000067
    10 I    -0.000032  0.000026  0.000010
    11 C     0.000289 -0.000000 -0.001953
    12 H    -0.001095 -0.000323 -0.000512
    13 H     0.001216 -0.000754 -0.000324
    14 H     0.000080  0.001518  0.000332
 ----------------------------------------
 Mulliken charges used for AMS results%charges...

 dE(predicted):    -0.44328E-04, dE(actual):    -0.71189E-04, Trust radius:    0.563699, all in a.u.
 Residual max backtransformation error   0.3902E-02


 Constraint values: difference between the actual and the fixed coord values, a.u.
 =================================================================================

 Index  Constr. value     Atom indices
 ------------- NON-BLOCK constraints -------------------
     1    0.00000E+00    11     2
 -------------------------------------------------------
 
----------------------------------------------------------------------
Geometry Convergence after Step   7       (Hartree/Angstrom,Angstrom)
----------------------------------------------------------------------
current energy                               -2.47310681 Hartree
energy change                      -0.00007119     0.00014000    T
constrained gradient max            0.00166926     0.00100000    F
constrained gradient rms            0.00068213     0.00066667    F
gradient max                        0.00231669
gradient rms                        0.00083268
cart. step max                      0.10041089     0.01000000    F
cart. step rms                      0.03740021     0.00666667    F
 
 
--------
Geometry
--------
Formula: C4H7I2O
Atoms
  Index Symbol   x (angstrom)   y (angstrom)   z (angstrom)
      1      H     0.29804046    -1.75652462     0.33161219
      2      C    -0.87668957     0.02472124     0.93954705
      3      C     0.29299320    -0.66526280     0.34676121
      4      C     1.43755704    -0.01841467    -0.22420555
      5      O     1.61425779     1.20938384    -0.28137836
      6      H    -0.72414633     1.10543051     0.90816196
      7      H     2.21035402    -0.69928428    -0.64065778
      8      H    -1.75140210    -0.19309100     0.30352137
      9      I     0.83812492     4.32374054     0.40735021
     10      I     0.20923321     6.87942232     0.99672139
     11      C    -1.20370473    -0.43642854     2.37202811
     12      H    -0.38285885    -0.20105807     3.05613976
     13      H    -2.10148458     0.07390763     2.73345518
     14      H    -1.38651098    -1.51472676     2.41904331
 
Total System Charge             0.00000
Bonding info available!
 
 *** PESPoint(15)_GOStep8 ***

 Energy gradients wrt nuclear displacements
 ==========================================

     Atom      Cartesian (a.u./angstrom)
                 X         Y         Z
 ----------------------------------------
     1 H     0.000259 -0.000157 -0.000100
     2 C    -0.000402  0.000505  0.001277
     3 C    -0.000677  0.001047  0.000106
     4 C     0.000117 -0.000847 -0.000228
     5 O    -0.000120  0.000395  0.000267
     6 H     0.000230 -0.000638 -0.000058
     7 H    -0.000036  0.000232 -0.000013
     8 H     0.000368 -0.000388  0.000030
     9 I     0.000063 -0.000230 -0.000046
    10 I    -0.000031  0.000004  0.000009
    11 C     0.000121 -0.000085 -0.001539
    12 H    -0.000197 -0.000008  0.000040
    13 H     0.000275 -0.000202  0.000000
    14 H     0.000030  0.000373  0.000257
 ----------------------------------------
 Mulliken charges used for AMS results%charges...

 dE(predicted):    -0.21490E-04, dE(actual):    -0.38229E-04, Trust radius:    0.563699, all in a.u.
 Residual max backtransformation error   0.2830E-03


 Constraint values: difference between the actual and the fixed coord values, a.u.
 =================================================================================

 Index  Constr. value     Atom indices
 ------------- NON-BLOCK constraints -------------------
     1    0.00000E+00    11     2
 -------------------------------------------------------
 
----------------------------------------------------------------------
Geometry Convergence after Step   8       (Hartree/Angstrom,Angstrom)
----------------------------------------------------------------------
current energy                               -2.47314503 Hartree
energy change                      -0.00003823     0.00014000    T
constrained gradient max            0.00104130     0.00100000    F
constrained gradient rms            0.00034412     0.00066667    T
gradient max                        0.00153309
gradient rms                        0.00044594
cart. step max                      0.02998606     0.01000000    F
cart. step rms                      0.01072491     0.00666667    F
 
 
--------
Geometry
--------
Formula: C4H7I2O
Atoms
  Index Symbol   x (angstrom)   y (angstrom)   z (angstrom)
      1      H     0.30213806    -1.75333176     0.34277711
      2      C    -0.86858574     0.03111662     0.94926574
      3      C     0.29807950    -0.66211517     0.35365240
      4      C     1.43776978    -0.01637591    -0.22841519
      5      O     1.61106243     1.21132843    -0.29546058
      6      H    -0.70617758     1.11122133     0.93361830
      7      H     2.20924479    -0.69874066    -0.64514127
      8      H    -1.74213957    -0.16692341     0.30433689
      9      I     0.83570031     4.32744898     0.39233872
     10      I     0.20648202     6.88224995     0.98499447
     11      C    -1.20996193    -0.44688744     2.37284377
     12      H    -0.39047256    -0.23104413     3.06533585
     13      H    -2.10467881     0.06796590     2.73630169
     14      H    -1.40469718    -1.52409739     2.40165213
 
Total System Charge             0.00000
Bonding info available!
 
 *** PESPoint(15)_GOStep9 ***

 Energy gradients wrt nuclear displacements
 ==========================================

     Atom      Cartesian (a.u./angstrom)
                 X         Y         Z
 ----------------------------------------
     1 H     0.000083 -0.000099 -0.000032
     2 C    -0.000105  0.000053  0.000946
     3 C    -0.000099  0.000294 -0.000036
     4 C     0.000048 -0.000366 -0.000119
     5 O    -0.000165  0.000388  0.000194
     6 H     0.000087 -0.000103  0.000066
     7 H    -0.000041  0.000091  0.000018
     8 H    -0.000023 -0.000231 -0.000090
     9 I     0.000064 -0.000216 -0.000042
    10 I    -0.000033 -0.000007  0.000016
    11 C     0.000148  0.000178 -0.001138
    12 H     0.000074  0.000046  0.000125
    13 H    -0.000065  0.000011  0.000064
    14 H     0.000027 -0.000038  0.000028
 ----------------------------------------
 Mulliken charges used for AMS results%charges...

 dE(predicted):    -0.32421E-05, dE(actual):    -0.68762E-05, Trust radius:    0.563699, all in a.u.
 Residual max backtransformation error   0.3192E-03


 Constraint values: difference between the actual and the fixed coord values, a.u.
 =================================================================================

 Index  Constr. value     Atom indices
 ------------- NON-BLOCK constraints -------------------
     1   -0.44409E-15    11     2
 -------------------------------------------------------
 
----------------------------------------------------------------------
Geometry Convergence after Step   9       (Hartree/Angstrom,Angstrom)
----------------------------------------------------------------------
current energy                               -2.47315191 Hartree
energy change                      -0.00000688     0.00014000    T
constrained gradient max            0.00038157     0.00100000    T
constrained gradient rms            0.00014252     0.00066667    T
gradient max                        0.00113113
gradient rms                        0.00026346
cart. step max                      0.01276937     0.01000000    F
cart. step rms                      0.00470225     0.00666667    T
 
 
--------
Geometry
--------
Formula: C4H7I2O
Atoms
  Index Symbol   x (angstrom)   y (angstrom)   z (angstrom)
      1      H     0.30350741    -1.75211633     0.34801735
      2      C    -0.86466000     0.03436742     0.95318297
      3      C     0.30033833    -0.66096848     0.35653985
      4      C     1.43830642    -0.01642799    -0.23048510
      5      O     1.61059478     1.21103705    -0.30256917
      6      H    -0.69728095     1.11394822     0.94384954
      7      H     2.20905573    -0.69997202    -0.64683976
      8      H    -1.73777757    -0.15422428     0.30468114
      9      I     0.83346736     4.32751264     0.38609497
     10      I     0.20236003     6.88102149     0.98228206
     11      C    -1.21239582    -0.45014208     2.37301758
     12      H    -0.39310188    -0.24381350     3.06855877
     13      H    -2.10482727     0.06794934     2.73745168
     14      H    -1.41382305    -1.52635614     2.39431817
 
Total System Charge             0.00000
Bonding info available!
 
 *** PESPoint(15)_GOStep10 ***

 Energy gradients wrt nuclear displacements
 ==========================================

     Atom      Cartesian (a.u./angstrom)
                 X         Y         Z
 ----------------------------------------
     1 H    -0.000014 -0.000012  0.000007
     2 C    -0.000079 -0.000207  0.000771
     3 C     0.000110 -0.000052 -0.000068
     4 C     0.000049 -0.000009 -0.000059
     5 O    -0.000177  0.000266  0.000142
     6 H     0.000011  0.000052  0.000051
     7 H    -0.000009  0.000026  0.000011
     8 H    -0.000094 -0.000055 -0.000059
     9 I     0.000059 -0.000204 -0.000042
    10 I    -0.000035 -0.000014  0.000021
    11 C     0.000160  0.000257 -0.000793
    12 H     0.000077  0.000024  0.000044
    13 H    -0.000086  0.000028  0.000017
    14 H     0.000027 -0.000100 -0.000044
 ----------------------------------------
 Mulliken charges used for AMS results%charges...
 Residual max backtransformation error   0.3490E-03


 Constraint values: difference between the actual and the fixed coord values, a.u.
 =================================================================================

 Index  Constr. value     Atom indices
 ------------- NON-BLOCK constraints -------------------
     1    0.00000E+00    11     2
 -------------------------------------------------------
 
---------------------------------------------------------
Geometry Convergence after Step  10       ** CONVERGED **
---------------------------------------------------------
current energy                               -2.47315290 Hartree
energy change                      -0.00000099     0.00014000    T
constrained gradient max            0.00024991     0.00100000    T
constrained gradient rms            0.00007743     0.00066667    T
gradient max                        0.00078643
gradient rms                        0.00019551
cart. step max                      0.00421565     0.01000000    T
cart. step rms                      0.00168748     0.00666667    T
 
Geometry optimization converged

Optimized geometry:
 
--------
Geometry
--------
Formula: C4H7I2O
Atoms
  Index Symbol   x (angstrom)   y (angstrom)   z (angstrom)
      1      H     0.30350741    -1.75211633     0.34801735
      2      C    -0.86466000     0.03436742     0.95318297
      3      C     0.30033833    -0.66096848     0.35653985
      4      C     1.43830642    -0.01642799    -0.23048510
      5      O     1.61059478     1.21103705    -0.30256917
      6      H    -0.69728095     1.11394822     0.94384954
      7      H     2.20905573    -0.69997202    -0.64683976
      8      H    -1.73777757    -0.15422428     0.30468114
      9      I     0.83346736     4.32751264     0.38609497
     10      I     0.20236003     6.88102149     0.98228206
     11      C    -1.21239582    -0.45014208     2.37301758
     12      H    -0.39310188    -0.24381350     3.06855877
     13      H    -2.10482727     0.06794934     2.73745168
     14      H    -1.41382305    -1.52635614     2.39431817
 
Total System Charge             0.00000
Bonding info available!
 

   ==========================
    Potential Energy Surface
   ==========================

Scanned coordinates:

====> Coordinate 1
Number of sample points: 15
Description: Distance C(11)--C(2)
Range:     5.6692    2.9102 Bohr

Results of the scan:

      PESPoint#      Coordinate 1       Energy [Ha]
      ---------      ------------      ------------
            (1)        5.66917837       -2.41740159
            (2)        5.47210694       -2.41674958
            (3)        5.27503550       -2.41607843
            (4)        5.07796406       -2.41551707
            (5)        4.88089262       -2.41521582
            (6)        4.68382118       -2.41552019
            (7)        4.48674974       -2.41693997
            (8)        4.28967830       -2.42011934
            (9)        4.09260686       -2.42553162
           (10)        3.89553543       -2.43310698
           (11)        3.69846399       -2.44235409
           (12)        3.50139255       -2.45241690
           (13)        3.30432111       -2.46216179
           (14)        3.10724967       -2.46990734
           (15)        2.91017823       -2.47315290

AMS application finished. Exiting.
NORMAL TERMINATION
     Total cpu time:   15741.96
  Total system time:     181.18
 Total elapsed time:   16780.91
