
 *******************************************************************************
 *                                                                             *
 *  --------------------------------                                           *
 *   Amsterdam Modeling Suite (AMS)              2021.102                      *
 *  --------------------------------                                           *
 *                                               r95042 2021-06-07             *
 *                                                                             *
 *                                                                             *
 *                              =================                              *
 *                              |               |                              *
 *                              |     A M S     |                              *
 *                              |               |                              *
 *                              =================                              *
 *                                                                             *
 *                                                                             *
 *   Online information and documentation:  https://www.scm.com/support/       *
 *   E-mail:  support@scm.com   info@scm.com                                   *
 *                                                                             *
 *   Scientific publications using AMS results must be properly referenced     *
 *   See the User Manuals (or the web site) for recommended citations          *
 *   The terms and conditions of the End User License Agreement apply to       *
 *   the use of AMS, https://www.scm.com/license-terms/                        *
 *                                                                             *
 **********************  x86_64_linux_intel / intelmpi  ************************
 
 Licensed to: VU/FEW (+ SARA) / ALGEMEEN / Amsterdam / THE NETHERLANDS
 SCM User ID: u7668
  
 AMS 2021.102  RunTime: Jan21-2022 00:36:05  ShM Nodes: 1  Procs: 1

 AMS jobname: 3.no_catalyst_H_F.TS
 AMS jobid  : 1843869495

 Start   directory: /scistor/tc/yhk800/MasterProject/calculations/no_catalyst_H_F/3.no_catalyst_H_F.TS/
 Results directory: /scistor/tc/yhk800/MasterProject/calculations/no_catalyst_H_F/3.no_catalyst_H_F.TS/
 Scratch directory: /scratch/3668/amstmp_3.no_catalyst_H_F.TS_kid0.1843869495/

 RNG seed: -438318361 8264374 1093981505 475431652 -1804462829 2132584299 888033777 1035870310



                      ************************************************************************
                      *  ADF 2021.102  RunTime: Jan21-2022 00:36:05  ShM Nodes: 1  Procs: 1  *
                      ************************************************************************
  
       *****************************
       *  TRANSITION STATE SEARCH  *
       *****************************

Optimization Method                    Quasi Newton
Optimization Coordinates               Delocalized Coordinates
Optimize lattice                       F
 
 ------------------------------------------------------
 Convergence criteria (Hartree,Angstrom)
 ------------------------------------------------------
 Maximum gradient               0.001000000000
 Maximum rms gradient           0.000666666667
 Maximum step allowed           0.010000000000
 Maximum rms step allowed       0.006666666667
 Maximum energy change allowe   0.000120000000
 Maximum stress energy allowe   0.000500000000
 
Initial model Hessian                  Automatic Hessian
 
------------------------------------
Quasi-Newton Optimizer Parameters
------------------------------------
Hessian Update Method                  Bofill
Maximum number of steps                  250
First GDIIS cycle                          0
Maximum GDIIS vectors                      0
Trust radius (bohr)                        0.200000
Trust radius varies                        F
Constraints converged at all steps         T
Use projector                              T
 
 Rigid motions settings for: old optimizer
 Atomic rotations (x,y,z):     T T T
 Atomic translations (x,y,z):  T T T
 Tolerance:                   1.000000000000000E-006
 
           1  TSRC entries:
    i   type      a1    a2    a3    a4    coef
    1 Distance     2     3               -1.000
 
--------
Geometry
--------
Formula: C4H6FO
Atoms
  Index Symbol   x (angstrom)   y (angstrom)   z (angstrom)
      1      C     0.81668000    -0.23471900     0.88197500
      2      C     0.81678400    -0.23413100    -0.47719300
      3      C    -1.53160000    -0.46998000    -1.30857600
      4      H     0.85636200    -1.16386700     1.44859300
      5      C     0.73893400     1.00063500     1.66014300
      6      H    -1.75224300    -1.42324600    -0.84366900
      7      H     0.86540100     0.70149500    -1.02879400
      8      H    -1.29572100    -0.45322200    -2.36675600
      9      H    -1.93437200     0.42729600    -0.85485600
     10      O     0.73088900     1.05622100     2.88164900
     11      F     1.05157196    -1.41471295    -1.21149598
     12      H     0.69350848     1.89581258     1.07576845
 
Total System Charge             0.00000
 
 
----------------
ADF Engine Input
----------------
 
 NumericalQuality VeryGood
 SCF
 Converge 1.0e-6
 Iterations 99
 End
 SYMMETRY NOSYM
 SpinPolarization 1.0
 Unrestricted Yes
 XC
 GGA OLYP
 End
 basis
 core None
 type TZ2P
 End
 

 Title: *** (NO TITLE) ***

 Using automatic Hessian for delocalized coordinates.
 *** GOStep1 ***

 Energy gradients wrt nuclear displacements
 ==========================================

     Atom      Cartesian (a.u./angstrom)
                 X         Y         Z
 ----------------------------------------
     1 C    -0.001486  0.019358  0.006405
     2 C    -0.010149  0.044878 -0.003165
     3 C     0.013236 -0.005252  0.002168
     4 H    -0.000718  0.000636  0.003725
     5 C    -0.001259  0.037647 -0.015180
     6 H    -0.002000  0.000048 -0.000524
     7 H    -0.002203  0.012334  0.017772
     8 H    -0.001140  0.000323 -0.000938
     9 H     0.001787 -0.000448  0.000027
    10 O    -0.000082  0.004174 -0.001130
    11 F     0.001860 -0.066739 -0.036641
    12 H     0.002154 -0.046959  0.027482
 ----------------------------------------
 Mulliken charges used for AMS results%charges...
           Primitive Internal Coordinates (atoms in internal order)
-------------------------------------------------------------------------------
    index    type      i       j       k       l   value(A,deg)     TSRC Vect
-------------------------------------------------------------------------------
       1     bnd       1       5       0       0     1.46208392     0.00000000
       2     bnd       1       2       0       0     1.35916813     0.10315886
       3     bnd       3       9       0       0     1.08313958     0.00000000
       4     bnd       1       4       0       0     1.08901177     0.00000000
       5     bnd       3       6       0       0     1.08329955     0.00000000
       6     bnd       2       7       0       0     1.08720894     0.00000000
       7     bnd       3       8       0       0     1.08428070     0.00000000
       8     bnd       5      10       0       0     1.22279656    -0.00000000
       9     bnd       2      11       0       0     1.41000000     0.03676003
      10     bnd       5      12       0       0     1.07000000    -0.00000000
      11     bnd       2       3       0       0     2.50234487    -0.35887021
      12     bnd       3      11       0       0     2.75222133    -0.15957066
      13     bnd       1       3       0       0     3.21998143    -0.19387568
      14     ang       5       1       2       0   122.13193049     0.00530576
      15     ang       5       1       4       0   116.48149708    -0.01751154
      16     ang       5       1       3       0   112.64562536     0.00890526
      17     ang       2       1       4       0   121.37727346     0.01181694
      18     ang       2       1       3       0    47.13980479    -0.06057879
      19     ang       4       1       3       0   108.55407601     0.03621682
      20     ang       1       2       7       0   120.51279539     0.00310371
      21     ang       1       2      11       0   121.36128198    -0.02631792
      22     ang       1       2       3       0   109.39804563     0.03460659
      23     ang       7       2      11       0   116.67222795     0.00714605
      24     ang       7       2       3       0    87.39281970    -0.02244698
      25     ang      11       2       3       0    84.51010433     0.05535709
      26     ang       9       3       6       0   118.25885447    -0.00057754
      27     ang       9       3       8       0   118.48323850     0.00069000
      28     ang       9       3       2       0    97.56929804    -0.00386000
      29     ang       9       3      11       0   128.21390110     0.02572575
      30     ang       9       3       1       0    85.73843521    -0.01649501
      31     ang       6       3       8       0   118.47247906    -0.00035183
      32     ang       6       3       2       0    97.55621160     0.00784235
      33     ang       6       3      11       0    82.75975470    -0.00909544
      34     ang       6       3       1       0    85.46171991    -0.00608310
      35     ang       8       3       2       0    96.81291220    -0.00342000
      36     ang       8       3      11       0    80.53456734    -0.01606283
      37     ang       8       3       1       0   120.27444570     0.02255234
      38     ang      11       3       1       0    46.88964471     0.04580478
      39     ang       1       5      10       0   124.78014579     0.00000000
      40     ang       1       5      12       0   114.73739870     0.00000000
      41     ang      10       5      12       0   120.48134627    -0.00000000
      42     ang       2      11       3       0    64.82849652    -0.08487942
      43     dih       2       1       5      10   179.74813341    -0.02997891
      44     dih       2       1       5      12    -0.63506965    -0.02997891
      45     dih       4       1       5      10     0.84367616    -0.00719439
      46     dih       4       1       5      12   180.46047311    -0.00719439
      47     dih       3       1       5      10   127.21624574     0.03717330
      48     dih       3       1       5      12   -53.16695732     0.03717330
      49     dih       5       1       2       7     6.57009342     0.02349142
      50     dih       5       1       2      11   172.35502844    -0.05271864
      51     dih       5       1       2       3   267.85385074     0.02752071
      52     dih       4       1       2       7   185.42152053    -0.00071568
      53     dih       4       1       2      11    -8.79354445    -0.07692573
      54     dih       4       1       2       3    86.70527785     0.00331362
      55     dih       3       1       2       7    98.71624268    -0.00402930
      56     dih       3       1       2      11   264.50117770    -0.08023936
      57     dih       1       2      11       3   109.40048400     0.07164399
      58     dih       7       2      11       3   -84.29422319    -0.00209407
      59     dih       1       2       3       9    60.36685908     0.00058381
      60     dih       1       2       3       6   -59.59533627     0.00026548
      61     dih       1       2       3       8   180.39271465    -0.00029465
      62     dih       1       2       3      11   238.63730923     0.00491410
      63     dih       7       2       3       9   -61.15415106     0.00027518
      64     dih       7       2       3       6   178.88365359    -0.00004315
      65     dih       7       2       3       8    58.87170451    -0.00060329
      66     dih       7       2       3      11   117.11629909     0.00460546
      67     dih       7       2       3       1   238.47898986    -0.00030863
      68     dih      11       2       3       9   181.72954985    -0.00433029
      69     dih      11       2       3       6    61.76735450    -0.00464862
      70     dih      11       2       3       8   -58.24459458    -0.00520875
      71     dih      11       2       3       1   121.36269077    -0.00491410
      72     dih       9       3      11       2     2.18228113    -0.00467341
      73     dih       6       3      11       2   241.69106591    -0.00441990
      74     dih       8       3      11       2   121.13490928    -0.01044677
      75     dih       1       3      11       2   -27.75476779    -0.01050167
      76     dih       5       1       3       9    -6.70885435     0.00031044
      77     dih       5       1       3       6   234.46351100    -0.00205957
      78     dih       5       1       3       8   113.97123608    -0.00348105
      79     dih       5       1       3       2   113.51971531    -0.00324925
      80     dih       5       1       3      11   150.13784247     0.00411839
      81     dih       2       1       3       9   239.77143035     0.00355969
      82     dih       2       1       3       6   120.94379569     0.00118967
      83     dih       2       1       3       8     0.45152078    -0.00023181
      84     dih       2       1       3      11    36.61812716     0.00736764
      85     dih       4       1       3       9   123.80841936     0.01411574
      86     dih       4       1       3       6     4.98078471     0.01174572
      87     dih       4       1       3       8   244.48850980     0.01032425
      88     dih       4       1       3       2   244.03698902     0.01055605
      89     dih       4       1       3      11   -79.34488382     0.01792369
Hessian eigenvector     1(     0.006) has overlap with TSRC:    0.97751E-04
Hessian eigenvector     2(     0.009) has overlap with TSRC:    0.39271E-01
Hessian eigenvector     3(     0.010) has overlap with TSRC:    0.48040E-01
Hessian eigenvector     4(     0.012) has overlap with TSRC:    0.77383E-01
Hessian eigenvector     5(     0.012) has overlap with TSRC:    0.16999E-01
Hessian eigenvector     6(     0.014) has overlap with TSRC:    0.34419E+00
Hessian eigenvector     7(     0.024) has overlap with TSRC:    0.11362E+00
Hessian eigenvector     8(     0.039) has overlap with TSRC:    0.11841E+00
Hessian eigenvector     9(     0.051) has overlap with TSRC:    0.61540E-02
Hessian eigenvector    10(     0.062) has overlap with TSRC:    0.90123E-02
Hessian eigenvector    11(     0.072) has overlap with TSRC:    0.25896E-01
Hessian eigenvector    12(     0.080) has overlap with TSRC:    0.26429E-01
Hessian eigenvector    13(     0.084) has overlap with TSRC:    0.18923E-01
Hessian eigenvector    14(     0.086) has overlap with TSRC:    0.21334E-01
Hessian eigenvector    15(     0.093) has overlap with TSRC:    0.14577E-01
Hessian eigenvector    16(     0.104) has overlap with TSRC:    0.21253E+00
Hessian eigenvector    17(     0.121) has overlap with TSRC:    0.16155E+00
Hessian eigenvector    18(     0.161) has overlap with TSRC:    0.12509E+00
Hessian eigenvector    19(     0.226) has overlap with TSRC:    0.17605E-07
Hessian eigenvector    20(     0.249) has overlap with TSRC:    0.42921E-08
Hessian eigenvector    21(     0.457) has overlap with TSRC:    0.30996E-01
Hessian eigenvector    22(     0.466) has overlap with TSRC:    0.88585E-01
Hessian eigenvector    23(     0.500) has overlap with TSRC:    0.16708E-14
Hessian eigenvector    24(     0.501) has overlap with TSRC:    0.17069E-14
Hessian eigenvector    25(     0.503) has overlap with TSRC:    0.57463E-16
Hessian eigenvector    26(     0.503) has overlap with TSRC:    0.16650E-14
Hessian eigenvector    27(     0.503) has overlap with TSRC:    0.13780E-15
Hessian eigenvector    28(     0.509) has overlap with TSRC:    0.58639E-15
Hessian eigenvector    29(     0.526) has overlap with TSRC:    0.24902E-14
Hessian eigenvector    30(     0.601) has overlap with TSRC:    0.89382E-15
Hessian eigenvector     6 has the largest overlap with TSRC:  0.34419
           Primitive Internal Coordinates (atoms in internal order)
-------------------------------------------------------------------------------
    index    type      i       j       k       l   value(A,deg)     Max Ovl Vect
-------------------------------------------------------------------------------
       1     bnd       1       5       0       0     1.46208392    -0.00000000
       2     bnd       1       2       0       0     1.35916813    -0.01226140
       3     bnd       3       9       0       0     1.08313958     0.00000000
       4     bnd       1       4       0       0     1.08901177    -0.00000000
       5     bnd       3       6       0       0     1.08329955    -0.00000000
       6     bnd       2       7       0       0     1.08720894    -0.00000000
       7     bnd       3       8       0       0     1.08428070    -0.00000000
       8     bnd       5      10       0       0     1.22279656    -0.00000000
       9     bnd       2      11       0       0     1.41000000    -0.00217351
      10     bnd       5      12       0       0     1.07000000    -0.00000000
      11     bnd       2       3       0       0     2.50234487     0.48675430
      12     bnd       3      11       0       0     2.75222133     0.04054398
      13     bnd       1       3       0       0     3.21998143     0.07621296
      14     ang       5       1       2       0   122.13193049    -0.00311982
      15     ang       5       1       4       0   116.48149708    -0.01552183
      16     ang       5       1       3       0   112.64562536    -0.01378813
      17     ang       2       1       4       0   121.37727346     0.01906394
      18     ang       2       1       3       0    47.13980479     0.17037923
      19     ang       4       1       3       0   108.55407601    -0.10040904
      20     ang       1       2       7       0   120.51279539     0.03022139
      21     ang       1       2      11       0   121.36128198     0.01807194
      22     ang       1       2       3       0   109.39804563    -0.19225276
      23     ang       7       2      11       0   116.67222795     0.04616697
      24     ang       7       2       3       0    87.39281970    -0.03057505
      25     ang      11       2       3       0    84.51010433    -0.15643273
      26     ang       9       3       6       0   118.25885447     0.00020353
      27     ang       9       3       8       0   118.48323850     0.00123278
      28     ang       9       3       2       0    97.56929804     0.00513380
      29     ang       9       3      11       0   128.21390110    -0.00835873
      30     ang       9       3       1       0    85.73843521     0.00381447
      31     ang       6       3       8       0   118.47247906    -0.00157722
      32     ang       6       3       2       0    97.55621160     0.00751281
      33     ang       6       3      11       0    82.75975470    -0.00000203
      34     ang       6       3       1       0    85.46171991    -0.01306836
      35     ang       8       3       2       0    96.81291220    -0.01231417
      36     ang       8       3      11       0    80.53456734     0.00796458
      37     ang       8       3       1       0   120.27444570     0.00946858
      38     ang      11       3       1       0    46.88964471    -0.00808137
      39     ang       1       5      10       0   124.78014579    -0.00008220
      40     ang       1       5      12       0   114.73739870    -0.00009812
      41     ang      10       5      12       0   120.48134627    -0.00008506
      42     ang       2      11       3       0    64.82849652     0.17045125
      43     dih       2       1       5      10   179.74813341     0.18246375
      44     dih       2       1       5      12    -0.63506965     0.13662353
      45     dih       4       1       5      10     0.84367616     0.15738488
      46     dih       4       1       5      12   180.46047311     0.11154466
      47     dih       3       1       5      10   127.21624574    -0.01223476
      48     dih       3       1       5      12   -53.16695732    -0.05807498
      49     dih       5       1       2       7     6.57009342    -0.23300562
      50     dih       5       1       2      11   172.35502844     0.22753389
      51     dih       5       1       2       3   267.85385074    -0.08347042
      52     dih       4       1       2       7   185.42152053    -0.20710061
      53     dih       4       1       2      11    -8.79354445     0.25343890
      54     dih       4       1       2       3    86.70527785    -0.05756542
      55     dih       3       1       2       7    98.71624268    -0.14953520
      56     dih       3       1       2      11   264.50117770     0.31100431
      57     dih       1       2      11       3   109.40048400    -0.31993600
      58     dih       7       2      11       3   -84.29422319     0.12176147
      59     dih       1       2       3       9    60.36685908     0.02910410
      60     dih       1       2       3       6   -59.59533627     0.02598737
      61     dih       1       2       3       8   180.39271465     0.02873802
      62     dih       1       2       3      11   238.63730923     0.05571757
      63     dih       7       2       3       9   -61.15415106     0.03971362
      64     dih       7       2       3       6   178.88365359     0.03659690
      65     dih       7       2       3       8    58.87170451     0.03934755
      66     dih       7       2       3      11   117.11629909     0.06632709
      67     dih       7       2       3       1   238.47898986     0.01060952
      68     dih      11       2       3       9   181.72954985    -0.02661347
      69     dih      11       2       3       6    61.76735450    -0.02973020
      70     dih      11       2       3       8   -58.24459458    -0.02697955
      71     dih      11       2       3       1   121.36269077    -0.05571757
      72     dih       9       3      11       2     2.18228113    -0.03386269
      73     dih       6       3      11       2   241.69106591    -0.03148513
      74     dih       8       3      11       2   121.13490928    -0.02788135
      75     dih       1       3      11       2   -27.75476779    -0.04837239
      76     dih       5       1       3       9    -6.70885435     0.04265635
      77     dih       5       1       3       6   234.46351100     0.04127009
      78     dih       5       1       3       8   113.97123608     0.04899865
      79     dih       5       1       3       2   113.51971531     0.01590200
      80     dih       5       1       3      11   150.13784247     0.02918918
      81     dih       2       1       3       9   239.77143035     0.02675435
      82     dih       2       1       3       6   120.94379569     0.02536809
      83     dih       2       1       3       8     0.45152078     0.03309665
      84     dih       2       1       3      11    36.61812716     0.01328718
      85     dih       4       1       3       9   123.80841936    -0.07314012
      86     dih       4       1       3       6     4.98078471    -0.07452638
      87     dih       4       1       3       8   244.48850980    -0.06679782
      88     dih       4       1       3       2   244.03698902    -0.09989447
      89     dih       4       1       3      11   -79.34488382    -0.08660730
 
----------------------------------------------------------------------
Geometry Convergence after Step   1       (Hartree/Angstrom,Angstrom)
----------------------------------------------------------------------
current energy                               -2.32899209 Hartree
energy change                      -2.32899209     0.00012000    F
constrained gradient max            0.06673731     0.00100000    F
constrained gradient rms            0.01949590     0.00066667    F
gradient max                        0.06673731
gradient rms                        0.01949590
cart. step max                      0.04142341     0.01000000    F
cart. step rms                      0.01547213     0.00666667    F
 
 
--------
Geometry
--------
Formula: C4H6FO
Atoms
  Index Symbol   x (angstrom)   y (angstrom)   z (angstrom)
      1      C     0.81780134    -0.24874701     0.88423480
      2      C     0.82407131    -0.23371452    -0.46365661
      3      C    -1.54234030    -0.46392005    -1.30178526
      4      H     0.86332859    -1.18246107     1.44135562
      5      C     0.73362585     0.99348108     1.64914370
      6      H    -1.75109768    -1.42000396    -0.83736035
      7      H     0.89046238     0.67618296    -1.05346765
      8      H    -1.29917809    -0.44525733    -2.35790839
      9      H    -1.95658260     0.42904420    -0.84854819
     10      O     0.71112916     1.03863448     2.87133861
     11      F     1.06715454    -1.37328954    -1.18033493
     12      H     0.69781993     1.91763239     1.05377713
 
Total System Charge             0.00000
 
 *** GOStep2 ***

 Energy gradients wrt nuclear displacements
 ==========================================

     Atom      Cartesian (a.u./angstrom)
                 X         Y         Z
 ----------------------------------------
     1 C     0.000468  0.000995 -0.005031
     2 C    -0.015117  0.023372  0.006833
     3 C     0.015224 -0.004878  0.002502
     4 H     0.000106 -0.000598  0.002167
     5 C     0.000660  0.017438 -0.009659
     6 H    -0.001752  0.000116 -0.000671
     7 H     0.002124  0.003743  0.006247
     8 H    -0.001053  0.000019 -0.000374
     9 H     0.001059  0.000103  0.000345
    10 O    -0.000189 -0.001768  0.001372
    11 F    -0.002113 -0.024010 -0.012740
    12 H     0.000583 -0.014533  0.009009
 ----------------------------------------
 Mulliken charges used for AMS results%charges...
Hessian eigenvector     1(     0.006) has overlap with TSRC:    0.26727E-01
Hessian eigenvector     2(     0.009) has overlap with TSRC:    0.11194E+00
Hessian eigenvector     3(     0.010) has overlap with TSRC:    0.12342E+00
Hessian eigenvector     4(     0.011) has overlap with TSRC:    0.19971E+00
Hessian eigenvector     5(     0.012) has overlap with TSRC:    0.77483E-01
Hessian eigenvector     6(     0.014) has overlap with TSRC:    0.27417E+00
Hessian eigenvector     7(     0.029) has overlap with TSRC:    0.59303E-01
Hessian eigenvector     8(     0.037) has overlap with TSRC:    0.10049E+00
Hessian eigenvector     9(     0.051) has overlap with TSRC:    0.11483E-01
Hessian eigenvector    10(     0.062) has overlap with TSRC:    0.85063E-02
Hessian eigenvector    11(     0.067) has overlap with TSRC:    0.23853E-01
Hessian eigenvector    12(     0.080) has overlap with TSRC:    0.25618E-01
Hessian eigenvector    13(     0.082) has overlap with TSRC:    0.25428E-02
Hessian eigenvector    14(     0.088) has overlap with TSRC:    0.17690E-01
Hessian eigenvector    15(     0.093) has overlap with TSRC:    0.18494E-01
Hessian eigenvector    16(     0.103) has overlap with TSRC:    0.21343E+00
Hessian eigenvector    17(     0.121) has overlap with TSRC:    0.15718E+00
Hessian eigenvector    18(     0.149) has overlap with TSRC:    0.87317E-01
Hessian eigenvector    19(     0.226) has overlap with TSRC:    0.26588E-03
Hessian eigenvector    20(     0.250) has overlap with TSRC:    0.58956E-02
Hessian eigenvector    21(     0.386) has overlap with TSRC:    0.13043E-01
Hessian eigenvector    22(     0.467) has overlap with TSRC:    0.89562E-01
Hessian eigenvector    23(     0.498) has overlap with TSRC:    0.13637E-01
Hessian eigenvector    24(     0.501) has overlap with TSRC:    0.37992E-02
Hessian eigenvector    25(     0.501) has overlap with TSRC:    0.10725E-03
Hessian eigenvector    26(     0.503) has overlap with TSRC:    0.20557E-03
Hessian eigenvector    27(     0.503) has overlap with TSRC:    0.51548E-05
Hessian eigenvector    28(     0.503) has overlap with TSRC:    0.25663E-03
Hessian eigenvector    29(     0.526) has overlap with TSRC:    0.72033E-03
Hessian eigenvector    30(     0.601) has overlap with TSRC:    0.87804E-03
Hessian eigenvector     6 has the largest overlap with TSRC:  0.27417
           Primitive Internal Coordinates (atoms in internal order)
-------------------------------------------------------------------------------
    index    type      i       j       k       l   value(A,deg)     Max Ovl Vect
-------------------------------------------------------------------------------
       1     bnd       1       5       0       0     1.46126719    -0.00046435
       2     bnd       1       2       0       0     1.34798981    -0.01166346
       3     bnd       3       9       0       0     1.08369999     0.00011575
       4     bnd       1       4       0       0     1.08824551    -0.00059642
       5     bnd       3       6       0       0     1.08322047     0.00000606
       6     bnd       2       7       0       0     1.08636930    -0.00006165
       7     bnd       3       8       0       0     1.08391523    -0.00007810
       8     bnd       5      10       0       0     1.22323561    -0.00029099
       9     bnd       2      11       0       0     1.36797241    -0.01723617
      10     bnd       5      12       0       0     1.09990866     0.00873525
      11     bnd       2       3       0       0     2.52098356     0.39023131
      12     bnd       3      11       0       0     2.76607418     0.04743801
      13     bnd       1       3       0       0     3.22416682     0.07184103
      14     ang       5       1       2       0   120.94435966    -0.02420845
      15     ang       5       1       4       0   117.63375012    -0.01761052
      16     ang       5       1       3       0   111.68325578    -0.01635570
      17     ang       2       1       4       0   121.41817274     0.03948511
      18     ang       2       1       3       0    47.63801831     0.13227478
      19     ang       4       1       3       0   108.69117272    -0.17807487
      20     ang       1       2       7       0   123.53899314     0.05269917
      21     ang       1       2      11       0   121.02397003     0.01629682
      22     ang       1       2       3       0   109.08995429    -0.14776170
      23     ang       7       2      11       0   113.72986246    -0.01490869
      24     ang       7       2       3       0    87.32609248     0.03855930
      25     ang      11       2       3       0    85.21340931    -0.11648673
      26     ang       9       3       6       0   118.31399899     0.00328352
      27     ang       9       3       8       0   118.62483625     0.00465636
      28     ang       9       3       2       0    98.30957603     0.00806399
      29     ang       9       3      11       0   127.81705448    -0.00852268
      30     ang       9       3       1       0    86.63222234     0.02586116
      31     ang       6       3       8       0   118.43636585    -0.00607252
      32     ang       6       3       2       0    96.83208855    -0.00847405
      33     ang       6       3      11       0    82.69292181     0.01507003
      34     ang       6       3       1       0    84.79524073    -0.04069462
      35     ang       8       3       2       0    96.41807078    -0.00394675
      36     ang       8       3      11       0    80.60754514    -0.01391995
      37     ang       8       3       1       0   119.68683243     0.01128396
      38     ang      11       3       1       0    45.70060857    -0.01086887
      39     ang       1       5      10       0   123.74170736    -0.00091047
      40     ang       1       5      12       0   115.64527642     0.00147286
      41     ang      10       5      12       0   120.61145112    -0.00095190
      42     ang       2      11       3       0    65.25989888     0.13236639
      43     dih       2       1       5      10   179.26797804     0.21355818
      44     dih       2       1       5      12    -1.18578894     0.14627732
      45     dih       4       1       5      10    -0.04033104     0.35057595
      46     dih       4       1       5      12   179.50590198     0.28329509
      47     dih       3       1       5      10   126.64628659     0.06603212
      48     dih       3       1       5      12   -53.80748038    -0.00124874
      49     dih       5       1       2       7     7.71865432    -0.10069941
      50     dih       5       1       2      11   171.88711563     0.15727709
      51     dih       5       1       2       3   267.92035669    -0.07611298
      52     dih       4       1       2       7   187.00058347    -0.24500999
      53     dih       4       1       2      11    -8.83095522     0.01296651
      54     dih       4       1       2       3    87.20228584    -0.22042356
      55     dih       3       1       2       7    99.79829763    -0.02458643
      56     dih       3       1       2      11   263.96675893     0.23339007
      57     dih       1       2      11       3   109.42787208    -0.24333239
      58     dih       7       2      11       3   -84.95441392     0.01421702
      59     dih       1       2       3       9    60.66898711     0.07585704
      60     dih       1       2       3       6   -59.34838791     0.07255519
      61     dih       1       2       3       8   180.90997084     0.08151342
      62     dih       1       2       3      11   238.78047860     0.03893497
      63     dih       7       2       3       9   -64.02066938     0.02849977
      64     dih       7       2       3       6   175.96195561     0.02519792
      65     dih       7       2       3       8    56.22031435     0.03415615
      66     dih       7       2       3      11   114.09082211    -0.00842230
      67     dih       7       2       3       1   235.31034351    -0.04735727
      68     dih      11       2       3       9   181.88850851     0.03692207
      69     dih      11       2       3       6    61.87113350     0.03362022
      70     dih      11       2       3       8   -57.87050775     0.04257845
      71     dih      11       2       3       1   121.21952140    -0.03893497
      72     dih       9       3      11       2     2.36574670     0.04629874
      73     dih       6       3      11       2   241.98157942     0.03204559
      74     dih       8       3      11       2   121.46314016     0.03900477
      75     dih       1       3      11       2   -28.17070832    -0.03661927
      76     dih       5       1       3       9    -7.48970268     0.05620570
      77     dih       5       1       3       6   233.66467124     0.05104940
      78     dih       5       1       3       8   113.76608397     0.08107189
      79     dih       5       1       3       2   112.72518112    -0.01270366
      80     dih       5       1       3      11   148.80272858    -0.00741214
      81     dih       2       1       3       9   239.78511619     0.06890936
      82     dih       2       1       3       6   120.93949012     0.06375305
      83     dih       2       1       3       8     1.04090285     0.09377555
      84     dih       2       1       3      11    36.07754746     0.00529152
      85     dih       4       1       3       9   123.92024763    -0.12935060
      86     dih       4       1       3       6     5.07462156    -0.13450690
      87     dih       4       1       3       8   245.17603429    -0.10448441
      88     dih       4       1       3       2   244.13513144    -0.19825996
      89     dih       4       1       3      11   -79.78732111    -0.19296844
 
----------------------------------------------------------------------
Geometry Convergence after Step   2       (Hartree/Angstrom,Angstrom)
----------------------------------------------------------------------
current energy                               -2.33374151 Hartree
energy change                      -0.00474943     0.00012000    F
constrained gradient max            0.02401306     0.00100000    F
constrained gradient rms            0.00852654     0.00066667    F
gradient max                        0.02401306
gradient rms                        0.00852654
cart. step max                      0.05007942     0.01000000    F
cart. step rms                      0.01484439     0.00666667    F
 
 
--------
Geometry
--------
Formula: C4H6FO
Atoms
  Index Symbol   x (angstrom)   y (angstrom)   z (angstrom)
      1      C     0.82166328    -0.25505116     0.88716181
      2      C     0.82934203    -0.24792871    -0.46124608
      3      C    -1.54765363    -0.45273977    -1.29567262
      4      H     0.91214791    -1.18766804     1.43873538
      5      C     0.72416194     0.98925728     1.64573182
      6      H    -1.75032565    -1.41463588    -0.84057927
      7      H     0.88932114     0.65121149    -1.06812797
      8      H    -1.30049589    -0.42087909    -2.35048424
      9      H    -1.96430268     0.43387078    -0.83206345
     10      O     0.66104974     1.04471324     2.86543949
     11      F     1.07173845    -1.37136563    -1.17164345
     12      H     0.70954780     1.91879712     1.03953706
 
Total System Charge             0.00000
 
 *** GOStep3 ***

 Energy gradients wrt nuclear displacements
 ==========================================

     Atom      Cartesian (a.u./angstrom)
                 X         Y         Z
 ----------------------------------------
     1 C    -0.004807 -0.000178 -0.002947
     2 C    -0.013238  0.006593  0.002270
     3 C     0.015296 -0.004412  0.002369
     4 H     0.003749  0.000121  0.000045
     5 C     0.003427  0.007842 -0.003772
     6 H    -0.001522  0.000078 -0.000462
     7 H     0.003722  0.000439  0.002138
     8 H    -0.000801  0.000109 -0.000235
     9 H     0.000822  0.000210  0.000425
    10 O    -0.001745 -0.000825  0.000753
    11 F    -0.005365 -0.004643 -0.004525
    12 H     0.000463 -0.005333  0.003942
 ----------------------------------------
 Mulliken charges used for AMS results%charges...
Hessian eigenvector     1(     0.004) has overlap with TSRC:    0.57115E-01
Hessian eigenvector     2(     0.007) has overlap with TSRC:    0.38502E-01
Hessian eigenvector     3(     0.009) has overlap with TSRC:    0.12596E+00
Hessian eigenvector     4(     0.010) has overlap with TSRC:    0.12244E-01
Hessian eigenvector     5(     0.012) has overlap with TSRC:    0.26201E+00
Hessian eigenvector     6(     0.013) has overlap with TSRC:    0.23440E+00
Hessian eigenvector     7(     0.029) has overlap with TSRC:    0.38889E-01
Hessian eigenvector     8(     0.037) has overlap with TSRC:    0.12424E+00
Hessian eigenvector     9(     0.051) has overlap with TSRC:    0.87574E-02
Hessian eigenvector    10(     0.062) has overlap with TSRC:    0.35133E-02
Hessian eigenvector    11(     0.068) has overlap with TSRC:    0.42349E-01
Hessian eigenvector    12(     0.080) has overlap with TSRC:    0.21763E-01
Hessian eigenvector    13(     0.081) has overlap with TSRC:    0.14596E-01
Hessian eigenvector    14(     0.088) has overlap with TSRC:    0.15507E-01
Hessian eigenvector    15(     0.093) has overlap with TSRC:    0.19697E-01
Hessian eigenvector    16(     0.103) has overlap with TSRC:    0.21683E+00
Hessian eigenvector    17(     0.121) has overlap with TSRC:    0.15567E+00
Hessian eigenvector    18(     0.146) has overlap with TSRC:    0.79155E-01
Hessian eigenvector    19(     0.226) has overlap with TSRC:    0.85797E-03
Hessian eigenvector    20(     0.250) has overlap with TSRC:    0.61193E-02
Hessian eigenvector    21(     0.387) has overlap with TSRC:    0.10717E-01
Hessian eigenvector    22(     0.467) has overlap with TSRC:    0.89271E-01
Hessian eigenvector    23(     0.498) has overlap with TSRC:    0.14195E-01
Hessian eigenvector    24(     0.501) has overlap with TSRC:    0.35285E-02
Hessian eigenvector    25(     0.501) has overlap with TSRC:    0.27891E-03
Hessian eigenvector    26(     0.503) has overlap with TSRC:    0.19973E-03
Hessian eigenvector    27(     0.503) has overlap with TSRC:    0.34668E-05
Hessian eigenvector    28(     0.503) has overlap with TSRC:    0.23040E-03
Hessian eigenvector    29(     0.526) has overlap with TSRC:    0.92644E-03
Hessian eigenvector    30(     0.601) has overlap with TSRC:    0.95124E-03
Hessian eigenvector     5 has the largest overlap with TSRC:  0.26201
           Primitive Internal Coordinates (atoms in internal order)
-------------------------------------------------------------------------------
    index    type      i       j       k       l   value(A,deg)     Max Ovl Vect
-------------------------------------------------------------------------------
       1     bnd       1       5       0       0     1.46056101     0.00120200
       2     bnd       1       2       0       0     1.34844856     0.01062671
       3     bnd       3       9       0       0     1.08379341    -0.00013235
       4     bnd       1       4       0       0     1.08728796     0.00112989
       5     bnd       3       6       0       0     1.08324975    -0.00001801
       6     bnd       2       7       0       0     1.08644200    -0.00015522
       7     bnd       3       8       0       0     1.08384944     0.00010663
       8     bnd       5      10       0       0     1.22259778     0.00080098
       9     bnd       2      11       0       0     1.35112211     0.02479334
      10     bnd       5      12       0       0     1.10983331    -0.01441089
      11     bnd       2       3       0       0     2.52751333    -0.37498902
      12     bnd       3      11       0       0     2.77857366    -0.05198016
      13     bnd       1       3       0       0     3.22761670    -0.06990724
      14     ang       5       1       2       0   121.01306425    -0.02972414
      15     ang       5       1       4       0   118.21817042     0.01834635
      16     ang       5       1       3       0   110.75821949     0.17441975
      17     ang       2       1       4       0   120.75275302     0.01414208
      18     ang       2       1       3       0    47.79578924    -0.12685756
      19     ang       4       1       3       0   110.58740341     0.03804677
      20     ang       1       2       7       0   124.28187120    -0.06004089
      21     ang       1       2      11       0   121.49318484     0.00065643
      22     ang       1       2       3       0   108.92583535     0.14173684
      23     ang       7       2      11       0   112.61471739     0.00549491
      24     ang       7       2       3       0    86.24837630    -0.02631066
      25     ang      11       2       3       0    85.85745539     0.10783324
      26     ang       9       3       6       0   118.34491449     0.00053366
      27     ang       9       3       8       0   118.68035882    -0.00520663
      28     ang       9       3       2       0    98.86060290    -0.01333038
      29     ang       9       3      11       0   127.86314638     0.00291224
      30     ang       9       3       1       0    86.72102853     0.00026215
      31     ang       6       3       8       0   118.53076799     0.00164974
      32     ang       6       3       2       0    96.26991123    -0.00086471
      33     ang       6       3      11       0    82.18652762     0.02292487
      34     ang       6       3       1       0    84.69857430     0.00067973
      35     ang       8       3       2       0    95.99568125     0.02119566
      36     ang       8       3      11       0    80.68787920    -0.01848335
      37     ang       8       3       1       0   119.27376927     0.00627967
      38     ang      11       3       1       0    45.41547789     0.01628149
      39     ang       1       5      10       0   124.07173513    -0.00231004
      40     ang       1       5      12       0   115.51442912     0.00028648
      41     ang      10       5      12       0   120.41383550     0.00192848
      42     ang       2      11       3       0    65.13045029    -0.12541903
      43     dih       2       1       5      10   177.09063562    -0.01199158
      44     dih       2       1       5      12    -2.91515162    -0.02840459
      45     dih       4       1       5      10    -4.35434173    -0.17499754
      46     dih       4       1       5      12   175.63987103    -0.19141054
      47     dih       3       1       5      10   124.70728370     0.05698000
      48     dih       3       1       5      12   -55.29850353     0.04056700
      49     dih       5       1       2       7     7.87886957    -0.17846563
      50     dih       5       1       2      11   172.32939996    -0.43683402
      51     dih       5       1       2       3   269.25053560    -0.21108943
      52     dih       4       1       2       7   189.36046224    -0.00755692
      53     dih       4       1       2      11    -6.18900736    -0.26592531
      54     dih       4       1       2       3    90.73212827    -0.04018072
      55     dih       3       1       2       7    98.62833397     0.03262380
      56     dih       3       1       2      11   263.07886437    -0.22574459
      57     dih       1       2      11       3   109.69399552     0.23285670
      58     dih       7       2      11       3   -84.18956771    -0.02497169
      59     dih       1       2       3       9    59.41396920     0.01532860
      60     dih       1       2       3       6   -60.62122929     0.01803743
      61     dih       1       2       3       8   179.72965186     0.01181189
      62     dih       1       2       3      11   238.07119844    -0.05331518
      63     dih       7       2       3       9   -65.63321755     0.06682221
      64     dih       7       2       3       6   174.33158395     0.06953105
      65     dih       7       2       3       8    54.68246510     0.06330550
      66     dih       7       2       3      11   113.02401169    -0.00182157
      67     dih       7       2       3       1   234.95281324     0.05149362
      68     dih      11       2       3       9   181.34277076     0.06864378
      69     dih      11       2       3       6    61.30757227     0.07135262
      70     dih      11       2       3       8   -58.34154659     0.06512707
      71     dih      11       2       3       1   121.92880156     0.05331518
      72     dih       9       3      11       2     1.68062088     0.08678260
      73     dih       6       3      11       2   241.65850717     0.06593120
      74     dih       8       3      11       2   120.92499972     0.06582191
      75     dih       1       3      11       2   -28.09503380     0.04316125
      76     dih       5       1       3       9    -7.98683032    -0.17394354
      77     dih       5       1       3       6   233.13714515    -0.17436125
      78     dih       5       1       3       8   113.27644935    -0.17832502
      79     dih       5       1       3       2   113.58468237    -0.19191465
      80     dih       5       1       3      11   148.89042064    -0.20534661
      81     dih       2       1       3       9   238.42848732     0.01797111
      82     dih       2       1       3       6   119.55246278     0.01755340
      83     dih       2       1       3       8    -0.30823302     0.01358963
      84     dih       2       1       3      11    35.30573827    -0.01343196
      85     dih       4       1       3       9   125.05435211     0.02173436
      86     dih       4       1       3       6     6.17832757     0.02131665
      87     dih       4       1       3       8   246.31763177     0.01735288
      88     dih       4       1       3       2   246.62586479     0.00376325
      89     dih       4       1       3      11   -78.06839694    -0.00966871
 
----------------------------------------------------------------------
Geometry Convergence after Step   3       (Hartree/Angstrom,Angstrom)
----------------------------------------------------------------------
current energy                               -2.33441677 Hartree
energy change                      -0.00067525     0.00012000    F
constrained gradient max            0.01528343     0.00100000    F
constrained gradient rms            0.00458962     0.00066667    F
gradient max                        0.01528343
gradient rms                        0.00458962
cart. step max                      0.06566646     0.01000000    F
cart. step rms                      0.02218032     0.00666667    F
 
 
--------
Geometry
--------
Formula: C4H6FO
Atoms
  Index Symbol   x (angstrom)   y (angstrom)   z (angstrom)
      1      C     0.79255815    -0.25832807     0.89893049
      2      C     0.80997704    -0.23814110    -0.44973171
      3      C    -1.55202685    -0.46816451    -1.31073907
      4      H     0.86463278    -1.19346792     1.44849650
      5      C     0.74412841     0.99144817     1.65225752
      6      H    -1.74006246    -1.43467876    -0.85916396
      7      H     0.84894096     0.66783928    -1.04835924
      8      H    -1.29327441    -0.42972702    -2.36252567
      9      H    -1.98864201     0.41021485    -0.84982368
     10      O     0.70357607     1.05693412     2.87216753
     11      F     1.09117251    -1.33675378    -1.17442841
     12      H     0.77521426     1.92040637     1.03970818
 
Total System Charge             0.00000
 
 *** GOStep4 ***

 Energy gradients wrt nuclear displacements
 ==========================================

     Atom      Cartesian (a.u./angstrom)
                 X         Y         Z
 ----------------------------------------
     1 C    -0.004311 -0.001974 -0.000953
     2 C    -0.013794  0.000934  0.001658
     3 C     0.014637 -0.003753  0.002230
     4 H     0.002087 -0.000063  0.000140
     5 C     0.002473  0.005019 -0.003783
     6 H    -0.001204 -0.000021 -0.000416
     7 H     0.001725 -0.000657  0.000205
     8 H    -0.000786  0.000079 -0.000211
     9 H     0.000773  0.000334  0.000321
    10 O    -0.000588 -0.000770  0.000192
    11 F    -0.003068  0.003206 -0.001722
    12 H     0.002056 -0.002334  0.002338
 ----------------------------------------
 Mulliken charges used for AMS results%charges...
Hessian eigenvector     1(     0.003) has overlap with TSRC:    0.52687E-01
Hessian eigenvector     2(     0.006) has overlap with TSRC:    0.65734E-02
Hessian eigenvector     3(     0.009) has overlap with TSRC:    0.99879E-01
Hessian eigenvector     4(     0.010) has overlap with TSRC:    0.16191E+00
Hessian eigenvector     5(     0.012) has overlap with TSRC:    0.26425E+00
Hessian eigenvector     6(     0.015) has overlap with TSRC:    0.18012E+00
Hessian eigenvector     7(     0.028) has overlap with TSRC:    0.20597E-01
Hessian eigenvector     8(     0.037) has overlap with TSRC:    0.13335E+00
Hessian eigenvector     9(     0.051) has overlap with TSRC:    0.75956E-02
Hessian eigenvector    10(     0.062) has overlap with TSRC:    0.25710E-02
Hessian eigenvector    11(     0.068) has overlap with TSRC:    0.43714E-01
Hessian eigenvector    12(     0.080) has overlap with TSRC:    0.17390E-01
Hessian eigenvector    13(     0.081) has overlap with TSRC:    0.21647E-01
Hessian eigenvector    14(     0.088) has overlap with TSRC:    0.18256E-01
Hessian eigenvector    15(     0.093) has overlap with TSRC:    0.19217E-01
Hessian eigenvector    16(     0.102) has overlap with TSRC:    0.22102E+00
Hessian eigenvector    17(     0.121) has overlap with TSRC:    0.15558E+00
Hessian eigenvector    18(     0.144) has overlap with TSRC:    0.73358E-01
Hessian eigenvector    19(     0.226) has overlap with TSRC:    0.14743E-02
Hessian eigenvector    20(     0.250) has overlap with TSRC:    0.65015E-02
Hessian eigenvector    21(     0.387) has overlap with TSRC:    0.97265E-02
Hessian eigenvector    22(     0.467) has overlap with TSRC:    0.90128E-01
Hessian eigenvector    23(     0.498) has overlap with TSRC:    0.14281E-01
Hessian eigenvector    24(     0.501) has overlap with TSRC:    0.32348E-02
Hessian eigenvector    25(     0.501) has overlap with TSRC:    0.58512E-03
Hessian eigenvector    26(     0.503) has overlap with TSRC:    0.18516E-03
Hessian eigenvector    27(     0.503) has overlap with TSRC:    0.31144E-04
Hessian eigenvector    28(     0.503) has overlap with TSRC:    0.17147E-03
Hessian eigenvector    29(     0.526) has overlap with TSRC:    0.89755E-03
Hessian eigenvector    30(     0.601) has overlap with TSRC:    0.96941E-03
Hessian eigenvector     5 has the largest overlap with TSRC:  0.26425
           Primitive Internal Coordinates (atoms in internal order)
-------------------------------------------------------------------------------
    index    type      i       j       k       l   value(A,deg)     Max Ovl Vect
-------------------------------------------------------------------------------
       1     bnd       1       5       0       0     1.46006428     0.00194642
       2     bnd       1       2       0       0     1.34892575     0.00751288
       3     bnd       3       9       0       0     1.08380168     0.00009814
       4     bnd       1       4       0       0     1.08706215     0.00113831
       5     bnd       3       6       0       0     1.08324847     0.00009704
       6     bnd       2       7       0       0     1.08658803    -0.00108569
       7     bnd       3       8       0       0     1.08382901     0.00007528
       8     bnd       5      10       0       0     1.22233928     0.00061452
       9     bnd       2      11       0       0     1.34581054     0.01804561
      10     bnd       5      12       0       0     1.11316952    -0.01366900
      11     bnd       2       3       0       0     2.52454092    -0.37793335
      12     bnd       3      11       0       0     2.78559343    -0.07810356
      13     bnd       1       3       0       0     3.22858324    -0.07023980
      14     ang       5       1       2       0   120.22999905     0.02846991
      15     ang       5       1       4       0   118.53558118    -0.02465440
      16     ang       5       1       3       0   112.62317388    -0.08821836
      17     ang       2       1       4       0   121.16272455    -0.00916203
      18     ang       2       1       3       0    47.62930687    -0.12837386
      19     ang       4       1       3       0   109.76980236    -0.01367659
      20     ang       1       2       7       0   124.31603894    -0.02563294
      21     ang       1       2      11       0   121.92845646    -0.03001241
      22     ang       1       2       3       0   109.11971675     0.14411978
      23     ang       7       2      11       0   112.11578542    -0.01208036
      24     ang       7       2       3       0    85.50483767     0.03298256
      25     ang      11       2       3       0    86.41424636     0.09924075
      26     ang       9       3       6       0   118.41851128    -0.00240284
      27     ang       9       3       8       0   118.69443327    -0.00332717
      28     ang       9       3       2       0    99.09259410    -0.01963228
      29     ang       9       3      11       0   127.89129729    -0.00104043
      30     ang       9       3       1       0    87.06600612    -0.01713957
      31     ang       6       3       8       0   118.53079858     0.00058875
      32     ang       6       3       2       0    95.82723188     0.01716983
      33     ang       6       3      11       0    82.30496531     0.00719996
      34     ang       6       3       1       0    84.18803912     0.02977995
      35     ang       8       3       2       0    95.99099817     0.01440453
      36     ang       8       3      11       0    80.32905675     0.00592518
      37     ang       8       3       1       0   119.24191127    -0.00126635
      38     ang      11       3       1       0    45.38820881     0.00803761
      39     ang       1       5      10       0   124.18645887    -0.00606878
      40     ang       1       5      12       0   115.43460271     0.00607116
      41     ang      10       5      12       0   120.35785688     0.00216786
      42     ang       2      11       3       0    64.75744289    -0.11781335
      43     dih       2       1       5      10   178.74115378    -0.34505300
      44     dih       2       1       5      12    -2.92926416     0.02982415
      45     dih       4       1       5      10    -4.30194190    -0.03000681
      46     dih       4       1       5      12   174.02764016     0.34487034
      47     dih       3       1       5      10   125.76716873    -0.15301040
      48     dih       3       1       5      12   -55.90324921     0.22186675
      49     dih       5       1       2       7     3.75199519     0.35652420
      50     dih       5       1       2      11   167.99089966     0.02927479
      51     dih       5       1       2       3   265.92454982     0.23324247
      52     dih       4       1       2       7   186.87632252     0.02608987
      53     dih       4       1       2      11    -8.88477300    -0.30115954
      54     dih       4       1       2       3    89.04887716    -0.09719186
      55     dih       3       1       2       7    97.82744537     0.12328173
      56     dih       3       1       2      11   262.06634984    -0.20396768
      57     dih       1       2      11       3   110.34298238     0.22694134
      58     dih       7       2      11       3   -83.67136728    -0.09005338
      59     dih       1       2       3       9    59.74816820    -0.01934460
      60     dih       1       2       3       6   -60.30486394    -0.01629523
      61     dih       1       2       3       8   180.12694839    -0.02378764
      62     dih       1       2       3      11   237.37684601    -0.01785359
      63     dih       7       2       3       9   -65.08991208    -0.02797934
      64     dih       7       2       3       6   174.85705578    -0.02492996
      65     dih       7       2       3       8    55.28886811    -0.03242238
      66     dih       7       2       3      11   112.53876573    -0.02648833
      67     dih       7       2       3       1   235.16191972    -0.00863473
      68     dih      11       2       3       9   182.37132219    -0.00149101
      69     dih      11       2       3       6    62.31829005     0.00155837
      70     dih      11       2       3       8   -57.24989762    -0.00593405
      71     dih      11       2       3       1   122.62315399     0.01785359
      72     dih       9       3      11       2     2.96752450    -0.00181344
      73     dih       6       3      11       2   242.74427005    -0.00437312
      74     dih       8       3      11       2   121.95080221    -0.00159598
      75     dih       1       3      11       2   -27.84259797     0.02877687
      76     dih       5       1       3       9   -10.35525030     0.09335019
      77     dih       5       1       3       6   230.68388304     0.09735850
      78     dih       5       1       3       8   111.13071202     0.07819711
      79     dih       5       1       3       2   110.98601785     0.10556630
      80     dih       5       1       3      11   145.76972953     0.11516920
      81     dih       2       1       3       9   238.65873185    -0.01221611
      82     dih       2       1       3       6   119.69786519    -0.00820780
      83     dih       2       1       3       8     0.14469417    -0.02736919
      84     dih       2       1       3      11    34.78371168     0.00960290
      85     dih       4       1       3       9   124.04969762    -0.02165889
      86     dih       4       1       3       6     5.08883096    -0.01765058
      87     dih       4       1       3       8   245.53565994    -0.03681197
      88     dih       4       1       3       2   245.39096577    -0.00944278
      89     dih       4       1       3      11   -79.82532255     0.00016012
 
----------------------------------------------------------------------
Geometry Convergence after Step   4       (Hartree/Angstrom,Angstrom)
----------------------------------------------------------------------
current energy                               -2.33430892 Hartree
energy change                       0.00010785     0.00012000    T
constrained gradient max            0.01462749     0.00100000    F
constrained gradient rms            0.00389409     0.00066667    F
gradient max                        0.01462749
gradient rms                        0.00389409
cart. step max                      0.07748847     0.01000000    F
cart. step rms                      0.02333810     0.00666667    F
 
 
--------
Geometry
--------
Formula: C4H6FO
Atoms
  Index Symbol   x (angstrom)   y (angstrom)   z (angstrom)
      1      C     0.83238602    -0.26142324     0.88814039
      2      C     0.84005542    -0.24874580    -0.46034905
      3      C    -1.54890893    -0.44996662    -1.28898624
      4      H     0.87890954    -1.19596978     1.44115937
      5      C     0.73452926     0.98516919     1.64159221
      6      H    -1.74154202    -1.41290462    -0.83174078
      7      H     0.89237896     0.64809841    -1.07164896
      8      H    -1.30287344    -0.41796066    -2.34402126
      9      H    -1.96882288     0.43479168    -0.82473357
     10      O     0.65518714     1.04788130     2.85962610
     11      F     1.08716958    -1.35587042    -1.17869333
     12      H     0.69772579     1.91448219     1.02644359
 
Total System Charge             0.00000
 
 *** GOStep5 ***

 Energy gradients wrt nuclear displacements
 ==========================================

     Atom      Cartesian (a.u./angstrom)
                 X         Y         Z
 ----------------------------------------
     1 C    -0.001595 -0.002069 -0.002081
     2 C    -0.014356 -0.001319  0.000540
     3 C     0.015296 -0.003814  0.002527
     4 H    -0.000147  0.000285  0.000352
     5 C     0.011154  0.003215 -0.000961
     6 H    -0.001296 -0.000004 -0.000450
     7 H     0.002928 -0.001830 -0.001166
     8 H    -0.000740  0.000011 -0.000193
     9 H     0.000642  0.000283  0.000362
    10 O    -0.004111 -0.000637  0.000003
    11 F    -0.004998  0.006903 -0.000026
    12 H    -0.002776 -0.001024  0.001092
 ----------------------------------------
 Mulliken charges used for AMS results%charges...
Hessian eigenvector     1(    -0.002) has overlap with TSRC:    0.53644E-01
Hessian eigenvector     1 has the largest overlap with TSRC:  0.05364
           Primitive Internal Coordinates (atoms in internal order)
-------------------------------------------------------------------------------
    index    type      i       j       k       l   value(A,deg)     Max Ovl Vect
-------------------------------------------------------------------------------
       1     bnd       1       5       0       0     1.45988297    -0.00292545
       2     bnd       1       2       0       0     1.34857083    -0.00553768
       3     bnd       3       9       0       0     1.08381526    -0.00003630
       4     bnd       1       4       0       0     1.08690922     0.00089261
       5     bnd       3       6       0       0     1.08324998     0.00006908
       6     bnd       2       7       0       0     1.08662545     0.00059759
       7     bnd       3       8       0       0     1.08381582    -0.00005590
       8     bnd       5      10       0       0     1.22222524    -0.00138198
       9     bnd       2      11       0       0     1.34268717    -0.00729341
      10     bnd       5      12       0       0     1.11507174     0.00454566
      11     bnd       2       3       0       0     2.53658828     0.07685689
      12     bnd       3      11       0       0     2.78957633     0.02439851
      13     bnd       1       3       0       0     3.23202640     0.02209696
      14     ang       5       1       2       0   120.55911746     0.04047158
      15     ang       5       1       4       0   118.32517455    -0.02093380
      16     ang       5       1       3       0   110.36988742    -0.20545012
      17     ang       2       1       4       0   121.10501886    -0.02449807
      18     ang       2       1       3       0    48.02307637     0.02259819
      19     ang       4       1       3       0   108.91172735    -0.01074271
      20     ang       1       2       7       0   124.78970182     0.02814103
      21     ang       1       2      11       0   121.88850114    -0.01717063
      22     ang       1       2       3       0   108.69633359    -0.02370980
      23     ang       7       2      11       0   111.75938803    -0.00319622
      24     ang       7       2       3       0    85.81636070     0.00655130
      25     ang      11       2       3       0    86.16699115    -0.01601144
      26     ang       9       3       6       0   118.42205191    -0.00105796
      27     ang       9       3       8       0   118.73901896     0.00266733
      28     ang       9       3       2       0    99.21871399     0.00355789
      29     ang       9       3      11       0   127.90017655    -0.00014917
      30     ang       9       3       1       0    87.09360925    -0.01660047
      31     ang       6       3       8       0   118.52328075     0.00117041
      32     ang       6       3       2       0    95.74525291     0.00522564
      33     ang       6       3      11       0    82.10702355    -0.03036580
      34     ang       6       3       1       0    84.17693680     0.02388488
      35     ang       8       3       2       0    95.84624588    -0.01521738
      36     ang       8       3      11       0    80.41911906     0.02512422
      37     ang       8       3       1       0   119.12682192    -0.01392940
      38     ang      11       3       1       0    45.25703124    -0.01007546
      39     ang       1       5      10       0   124.22880621    -0.00298285
      40     ang       1       5      12       0   115.41319810     0.00156065
      41     ang      10       5      12       0   120.32277346    -0.00060093
      42     ang       2      11       3       0    65.13151865     0.02132765
      43     dih       2       1       5      10   176.21588380     0.01402034
      44     dih       2       1       5      12    -1.62425720    -0.33543309
      45     dih       4       1       5      10    -2.60786403     0.30649538
      46     dih       4       1       5      12   179.55199497    -0.04295805
      47     dih       3       1       5      10   123.75454201     0.08241068
      48     dih       3       1       5      12   -54.08559899    -0.26704274
      49     dih       5       1       2       7     7.40632842     0.33418645
      50     dih       5       1       2      11   171.96037046     0.37116997
      51     dih       5       1       2       3   269.28150296     0.32888777
      52     dih       4       1       2       7   186.19703618     0.02764081
      53     dih       4       1       2      11    -9.24892178     0.06462432
      54     dih       4       1       2       3    88.07221071     0.02234213
      55     dih       3       1       2       7    98.12482546     0.00529868
      56     dih       3       1       2      11   262.67886750     0.04228220
      57     dih       1       2      11       3   109.67546978    -0.03963465
      58     dih       7       2      11       3   -83.94582508     0.00037361
      59     dih       1       2       3       9    59.52411078    -0.05632943
      60     dih       1       2       3       6   -60.53904039    -0.05725328
      61     dih       1       2       3       8   179.94028751    -0.05620045
      62     dih       1       2       3      11   237.56961517     0.02637267
      63     dih       7       2       3       9   -65.87066187    -0.08518206
      64     dih       7       2       3       6   174.06618696    -0.08610590
      65     dih       7       2       3       8    54.54551486    -0.08505307
      66     dih       7       2       3      11   112.17484252    -0.00247995
      67     dih       7       2       3       1   234.60522735    -0.02885262
      68     dih      11       2       3       9   181.95449561    -0.08270211
      69     dih      11       2       3       6    61.89134445    -0.08362596
      70     dih      11       2       3       8   -57.62932766    -0.08257312
      71     dih      11       2       3       1   122.43038483    -0.02637267
      72     dih       9       3      11       2     2.44519880    -0.10439169
      73     dih       6       3      11       2   242.37716273    -0.07748439
      74     dih       8       3      11       2   121.55978692    -0.08068246
      75     dih       1       3      11       2   -28.01303248    -0.01476995
      76     dih       5       1       3       9    -8.29527659     0.17334627
      77     dih       5       1       3       6   232.74299497     0.17530640
      78     dih       5       1       3       8   113.22799177     0.16236034
      79     dih       5       1       3       2   113.29599280     0.22702647
      80     dih       5       1       3      11   148.09472706     0.23931751
      81     dih       2       1       3       9   238.40873062    -0.05368021
      82     dih       2       1       3       6   119.44700217    -0.05172007
      83     dih       2       1       3       8    -0.06800102    -0.06466613
      84     dih       2       1       3      11    34.79873427     0.01229104
      85     dih       4       1       3       9   123.17370551    -0.02776131
      86     dih       4       1       3       6     4.21197707    -0.02580117
      87     dih       4       1       3       8   244.69697387    -0.03874723
      88     dih       4       1       3       2   244.76497489     0.02591890
      89     dih       4       1       3      11   -80.43629084     0.03820994
 
----------------------------------------------------------------------
Geometry Convergence after Step   5       (Hartree/Angstrom,Angstrom)
----------------------------------------------------------------------
current energy                               -2.33465100 Hartree
energy change                      -0.00034208     0.00012000    F
constrained gradient max            0.01528323     0.00100000    F
constrained gradient rms            0.00449180     0.00066667    F
gradient max                        0.01528323
gradient rms                        0.00449180
cart. step max                      0.04336609     0.01000000    F
cart. step rms                      0.01618086     0.00666667    F
 
 
--------
Geometry
--------
Formula: C4H6FO
Atoms
  Index Symbol   x (angstrom)   y (angstrom)   z (angstrom)
      1      C     0.80911356    -0.26267851     0.89479570
      2      C     0.84802335    -0.23486988    -0.45239486
      3      C    -1.55920618    -0.46345837    -1.30210426
      4      H     0.83934159    -1.19925691     1.44509517
      5      C     0.75876415     0.98622430     1.64950972
      6      H    -1.74470982    -1.42269326    -0.83426701
      7      H     0.89536054     0.66860231    -1.05424627
      8      H    -1.30804025    -0.44265865    -2.35620516
      9      H    -1.98916971     0.42326267    -0.85097317
     10      O     0.69855323     1.05164534     2.86859001
     11      F     1.09357000    -1.33201495    -1.18436454
     12      H     0.71459398     1.91547756     1.03335315
 
Total System Charge             0.00000
 
 *** GOStep6 ***

 Energy gradients wrt nuclear displacements
 ==========================================

     Atom      Cartesian (a.u./angstrom)
                 X         Y         Z
 ----------------------------------------
     1 C    -0.007459 -0.003700 -0.000092
     2 C    -0.011961 -0.000406 -0.001011
     3 C     0.016911 -0.003415  0.003792
     4 H    -0.000399  0.000479  0.000768
     5 C     0.018997  0.002470 -0.002332
     6 H    -0.001442 -0.000079 -0.000661
     7 H     0.001419 -0.001962 -0.001595
     8 H    -0.000927 -0.000159 -0.000224
     9 H     0.000374  0.000258  0.000149
    10 O    -0.005909 -0.000514  0.000678
    11 F    -0.004495  0.007468 -0.000198
    12 H    -0.005110 -0.000440  0.000727
 ----------------------------------------
 Mulliken charges used for AMS results%charges...
Hessian eigenvector     1(    -0.002) has overlap with TSRC:    0.24483E+00
Hessian eigenvector     1 has the largest overlap with TSRC:  0.24483
           Primitive Internal Coordinates (atoms in internal order)
-------------------------------------------------------------------------------
    index    type      i       j       k       l   value(A,deg)     Max Ovl Vect
-------------------------------------------------------------------------------
       1     bnd       1       5       0       0     1.46009813    -0.00418560
       2     bnd       1       2       0       0     1.34803921     0.01609723
       3     bnd       3       9       0       0     1.08381830    -0.00026387
       4     bnd       1       4       0       0     1.08670251     0.00195362
       5     bnd       3       6       0       0     1.08324276    -0.00010808
       6     bnd       2       7       0       0     1.08661305     0.00099419
       7     bnd       3       8       0       0     1.08381071     0.00003386
       8     bnd       5      10       0       0     1.22231829     0.00126210
       9     bnd       2      11       0       0     1.34156628     0.01445971
      10     bnd       5      12       0       0     1.11584567    -0.00566526
      11     bnd       2       3       0       0     2.56300853    -0.35108633
      12     bnd       3      11       0       0     2.79382795    -0.02589070
      13     bnd       1       3       0       0     3.23660630    -0.07078628
      14     ang       5       1       2       0   119.99454357     0.01748279
      15     ang       5       1       4       0   118.45047832     0.00967966
      16     ang       5       1       3       0   112.25181665    -0.03172812
      17     ang       2       1       4       0   121.53714978    -0.02714847
      18     ang       2       1       3       0    49.00912126    -0.11590843
      19     ang       4       1       3       0   108.09617016     0.12101563
      20     ang       1       2       7       0   124.88555853    -0.03251311
      21     ang       1       2      11       0   122.25424939    -0.01662462
      22     ang       1       2       3       0   107.60000181     0.12764730
      23     ang       7       2      11       0   111.70322765     0.01019860
      24     ang       7       2       3       0    86.06903780    -0.07824605
      25     ang      11       2       3       0    85.30120418     0.11194840
      26     ang       9       3       6       0   118.47531138    -0.00434221
      27     ang       9       3       8       0   118.75506324    -0.00355041
      28     ang       9       3       2       0    99.30182965     0.00310856
      29     ang       9       3      11       0   127.84227124     0.01767907
      30     ang       9       3       1       0    87.53560243    -0.03920502
      31     ang       6       3       8       0   118.47184459     0.00381319
      32     ang       6       3       2       0    95.54544417     0.01293481
      33     ang       6       3      11       0    82.47881348    -0.04106118
      34     ang       6       3       1       0    83.51692901     0.06558151
      35     ang       8       3       2       0    95.91600960    -0.00654067
      36     ang       8       3      11       0    80.03250084     0.03527921
      37     ang       8       3       1       0   119.30088967    -0.01782712
      38     ang      11       3       1       0    45.24261345     0.00997634
      39     ang       1       5      10       0   124.26369280     0.00021185
      40     ang       1       5      12       0   115.35752992    -0.00217567
      41     ang      10       5      12       0   120.27847203     0.00330332
      42     ang       2      11       3       0    66.10639336    -0.12449558
      43     dih       2       1       5      10   178.69877557    -0.35363541
      44     dih       2       1       5      12     2.34415163    -0.12225252
      45     dih       4       1       5      10    -2.81336351    -0.35414877
      46     dih       4       1       5      12   180.83201255    -0.12276587
      47     dih       3       1       5      10   124.30016055    -0.20247669
      48     dih       3       1       5      12   -52.05446339     0.02890620
      49     dih       5       1       2       7     3.21825626     0.10301351
      50     dih       5       1       2      11   169.89009270    -0.08277337
      51     dih       5       1       2       3   265.54641587     0.13184902
      52     dih       4       1       2       7   184.77818218     0.10398035
      53     dih       4       1       2      11    -8.54998139    -0.08180653
      54     dih       4       1       2       3    87.10634179     0.13281586
      55     dih       3       1       2       7    97.67184039    -0.02883551
      56     dih       3       1       2      11   264.34367682    -0.21462239
      57     dih       1       2      11       3   107.87129138     0.21685179
      58     dih       7       2      11       3   -83.87211568     0.03221950
      59     dih       1       2       3       9    60.76379862    -0.13962097
      60     dih       1       2       3       6   -59.32270577    -0.13881562
      61     dih       1       2       3       8   181.23190562    -0.14407068
      62     dih       1       2       3      11   237.60862180    -0.03492731
      63     dih       7       2       3       9   -64.66163070    -0.09536040
      64     dih       7       2       3       6   175.25186491    -0.09455505
      65     dih       7       2       3       8    55.80647630    -0.09981010
      66     dih       7       2       3      11   112.18319248     0.00933326
      67     dih       7       2       3       1   234.57457068     0.04426057
      68     dih      11       2       3       9   183.15517682    -0.10469366
      69     dih      11       2       3       6    63.06867243    -0.10388832
      70     dih      11       2       3       8   -56.37671618    -0.10914337
      71     dih      11       2       3       1   122.39137820     0.03492731
      72     dih       9       3      11       2     3.94398288    -0.13160764
      73     dih       6       3      11       2   243.51847929    -0.09705811
      74     dih       8       3      11       2   122.75893075    -0.10338836
      75     dih       1       3      11       2   -28.17033337     0.03034988
      76     dih       5       1       3       9    -9.36234924    -0.08770981
      77     dih       5       1       3       6   231.61315693    -0.08003502
      78     dih       5       1       3       8   112.50808814    -0.12143016
      79     dih       5       1       3       2   111.10294327     0.04429073
      80     dih       5       1       3      11   145.79027048     0.03725804
      81     dih       2       1       3       9   239.53470749    -0.13200054
      82     dih       2       1       3       6   120.51021366    -0.12432575
      83     dih       2       1       3       8     1.40514486    -0.16572089
      84     dih       2       1       3      11    34.68732721    -0.00703268
      85     dih       4       1       3       9   123.10865831     0.00111999
      86     dih       4       1       3       6     4.08416448     0.00879478
      87     dih       4       1       3       8   244.97909568    -0.03260036
      88     dih       4       1       3       2   243.57395082     0.13312053
      89     dih       4       1       3      11   -81.73872198     0.12608784
 
----------------------------------------------------------------------
Geometry Convergence after Step   6       (Hartree/Angstrom,Angstrom)
----------------------------------------------------------------------
current energy                               -2.33464753 Hartree
energy change                       0.00000347     0.00012000    T
constrained gradient max            0.01901411     0.00100000    F
[...]
 
Total System Charge             0.00000
 
 *** GOStep107 ***

 Energy gradients wrt nuclear displacements
 ==========================================

     Atom      Cartesian (a.u./angstrom)
                 X         Y         Z
 ----------------------------------------
     1 C    -0.001407  0.001042  0.000478
     2 C     0.001000 -0.002437 -0.002525
     3 C     0.002312  0.000678  0.000719
     4 H     0.000201 -0.000346 -0.000712
     5 C    -0.000031 -0.000251 -0.000109
     6 H     0.000346  0.000097  0.000038
     7 H    -0.000436  0.001004  0.001428
     8 H    -0.000227 -0.000207 -0.000035
     9 H    -0.000068 -0.000044 -0.000087
    10 O     0.000087 -0.000039 -0.000043
    11 F    -0.002005  0.000229  0.000930
    12 H     0.000228  0.000274 -0.000082
 ----------------------------------------
 Mulliken charges used for AMS results%charges...
Hessian eigenvector     1(    -0.000) has overlap with TSRC:    0.37646E-01
Hessian eigenvector     1 has the largest overlap with TSRC:  0.03765
           Primitive Internal Coordinates (atoms in internal order)
-------------------------------------------------------------------------------
    index    type      i       j       k       l   value(A,deg)     Max Ovl Vect
-------------------------------------------------------------------------------
       1     bnd       1       5       0       0     1.46608420    -0.00050515
       2     bnd       1       2       0       0     1.33855643    -0.00266137
       3     bnd       3       9       0       0     1.08289528     0.00004903
       4     bnd       1       4       0       0     1.08633703     0.00020444
       5     bnd       3       6       0       0     1.08279927     0.00002894
       6     bnd       2       7       0       0     1.08913858     0.00004353
       7     bnd       3       8       0       0     1.08267234    -0.00009499
       8     bnd       5      10       0       0     1.21862694     0.00013263
       9     bnd       2      11       0       0     1.33717663    -0.00211491
      10     bnd       5      12       0       0     1.11654376    -0.00006044
      11     bnd       3      11       0       0     3.58023427    -0.04165445
      12     bnd       1       3       0       0     4.15113113    -0.03044463
      13     bnd       2       3       0       0     4.18286690    -0.05217367
      14     ang       5       1       2       0   120.02179367     0.00567214
      15     ang       5       1       4       0   118.84364542    -0.00320320
      16     ang       5       1       3       0   140.57126143     0.00282058
      17     ang       2       1       4       0   121.13329095    -0.00163597
      18     ang       2       1       3       0    82.10093750    -0.00918926
      19     ang       4       1       3       0    51.60682103     0.01768504
      20     ang       1       2       7       0   124.75815649     0.00238577
      21     ang       1       2      11       0   122.69915071    -0.00277532
      22     ang       1       2       3       0    79.41909999     0.00769807
      23     ang       7       2      11       0   112.54040176     0.00043769
      24     ang       7       2       3       0   139.55675715    -0.01901659
      25     ang      11       2       3       0    54.68646817     0.00307869
      26     ang       9       3       6       0   119.95483657    -0.00183362
      27     ang       9       3       8       0   120.10515752    -0.00058510
      28     ang       9       3      11       0   114.44083068    -0.03297754
      29     ang       9       3       1       0    97.30213039     0.05729336
      30     ang       9       3       2       0   101.59710021    -0.00331734
      31     ang       6       3       8       0   119.89846978     0.00261727
      32     ang       6       3      11       0    87.41255628     0.08908947
      33     ang       6       3       1       0    69.63934063    -0.03119512
      34     ang       6       3       2       0    83.29834247     0.03093231
      35     ang       8       3      11       0    70.30303764    -0.04762567
      36     ang       8       3       1       0   104.66637461    -0.01736004
      37     ang       8       3       2       0    87.14183536    -0.01436035
      38     ang      11       3       1       0    34.36385271     0.00162706
      39     ang       1       5      10       0   124.23166514    -0.00058184
      40     ang       1       5      12       0   115.15579082     0.00055221
      41     ang      10       5      12       0   120.61254359     0.00003356
      42     ang       2      11       3       0   107.56937970    -0.00548578
      43     dih       2       1       5      10   180.53665403     0.02037275
      44     dih       2       1       5      12     0.52889813     0.01893068
      45     dih       4       1       5      10     0.13138309     0.00204942
      46     dih       4       1       5      12   180.12362719     0.00060734
      47     dih       3       1       5      10    63.60903323     0.02596652
      48     dih       3       1       5      12   243.60127734     0.02452444
      49     dih       5       1       2       7    -0.76827117    -0.01709452
      50     dih       5       1       2      11   179.82395040    -0.02046230
      51     dih       5       1       2       3   214.86762686     0.00040774
      52     dih       4       1       2       7   179.64645629     0.00147142
      53     dih       4       1       2      11     0.23867786    -0.00189636
      54     dih       4       1       2       3    35.28235432     0.01897368
      55     dih       3       1       2       7   144.36410197    -0.01750226
      56     dih       3       1       2      11   -35.04367646    -0.02087004
      57     dih       1       2      11       3    43.76574338     0.02738064
      58     dih       7       2      11       3   224.29253224     0.02434142
      59     dih       9       3      11       2    45.91270115     0.21422668
      60     dih       6       3      11       2   -75.99061582     0.17673094
      61     dih       8       3      11       2   160.90533394     0.19641313
      62     dih       1       3      11       2   -19.42266724    -0.01123207
      63     dih       5       1       3       9    23.96669740     0.20688258
      64     dih       5       1       3       6   264.66601540     0.22729238
      65     dih       5       1       3       8   147.76415473     0.22498738
      66     dih       5       1       3      11   147.44494451     0.01079388
      67     dih       5       1       3       2   128.79839956    -0.00087898
      68     dih       2       1       3       9   255.16829784     0.20776156
      69     dih       2       1       3       6   135.86761583     0.22817136
      70     dih       2       1       3       8    18.96575516     0.22586636
      71     dih       2       1       3      11    18.64654495     0.01167286
      72     dih       4       1       3       9   114.27853262     0.21943384
      73     dih       4       1       3       6    -5.02214939     0.23984363
      74     dih       4       1       3       8   238.07598994     0.23753863
      75     dih       4       1       3      11   237.75677973     0.02334513
      76     dih       4       1       3       2   219.11023478     0.01167227
      77     dih       1       2       3       9    78.18788181     0.21969249
      78     dih       1       2       3       6   -41.09462464     0.21756160
      79     dih       1       2       3       8   198.34903317     0.21562542
      80     dih       1       2       3      11   216.31021889     0.02160896
      81     dih       7       2       3       9   -54.25940115     0.21996984
      82     dih       7       2       3       6   186.45809240     0.21783895
      83     dih       7       2       3       8    65.90175021     0.21590277
      84     dih       7       2       3      11    83.86293594     0.02188631
      85     dih       7       2       3       1   227.55271704     0.00027735
      86     dih      11       2       3       9   221.87766292     0.19808353
      87     dih      11       2       3       6   102.59515646     0.19595263
      88     dih      11       2       3       8   -17.96118573     0.19401646
      89     dih      11       2       3       1   143.68978111    -0.02160896
 Increase Hessian eigenvalue threshold to   2.000000000000000E-004
 
----------------------------------------------------------------------
Geometry Convergence after Step 107       (Hartree/Angstrom,Angstrom)
----------------------------------------------------------------------
current energy                               -2.34476975 Hartree
energy change                      -0.00003164     0.00012000    T
constrained gradient max            0.00252441     0.00100000    F
constrained gradient rms            0.00094624     0.00066667    F
gradient max                        0.00252441
gradient rms                        0.00094624
cart. step max                      0.03533991     0.01000000    F
cart. step rms                      0.01590175     0.00666667    F
 
 
--------
Geometry
--------
Formula: C4H6FO
Atoms
  Index Symbol   x (angstrom)   y (angstrom)   z (angstrom)
      1      C     0.84087782     0.10676508     0.82867443
      2      C     1.45829828     0.21940164    -0.35359124
      3      C    -2.38618938    -1.02565976    -1.56948188
      4      H     0.08511968    -0.65517252     0.99728608
      5      C     1.18828870     1.01348527     1.92718130
      6      H    -2.30822426    -1.66983689    -0.70261187
      7      H     2.21911460     0.96223589    -0.58929335
      8      H    -1.93287688    -1.32410307    -2.50629528
      9      H    -2.94887644    -0.10246294    -1.50816726
     10      O     0.68347943     0.97218147     3.03556389
     11      F     1.18705612    -0.58254751    -1.38893736
     12      H     1.97012678     1.77329497     1.68646101
 
Total System Charge             0.00000
 
 *** GOStep108 ***

 Energy gradients wrt nuclear displacements
 ==========================================

     Atom      Cartesian (a.u./angstrom)
                 X         Y         Z
 ----------------------------------------
     1 C    -0.001462  0.000969  0.000366
     2 C     0.001011 -0.002084 -0.002290
     3 C     0.002206  0.000697  0.000673
     4 H     0.000201 -0.000360 -0.000673
     5 C     0.000099 -0.000217 -0.000096
     6 H     0.000337  0.000093  0.000042
     7 H    -0.000399  0.000961  0.001365
     8 H    -0.000230 -0.000203 -0.000032
     9 H    -0.000079 -0.000054 -0.000089
    10 O     0.000066 -0.000064 -0.000065
    11 F    -0.001948  0.000020  0.000856
    12 H     0.000198  0.000243 -0.000057
 ----------------------------------------
 Mulliken charges used for AMS results%charges...
Hessian eigenvector     1(    -0.000) has overlap with TSRC:    0.30004E-01
Hessian eigenvector     1 has the largest overlap with TSRC:  0.03000
           Primitive Internal Coordinates (atoms in internal order)
-------------------------------------------------------------------------------
    index    type      i       j       k       l   value(A,deg)     Max Ovl Vect
-------------------------------------------------------------------------------
       1     bnd       1       5       0       0     1.46613545    -0.00055156
       2     bnd       1       2       0       0     1.33852424    -0.00278818
       3     bnd       3       9       0       0     1.08289823     0.00005777
       4     bnd       1       4       0       0     1.08634670     0.00017979
       5     bnd       3       6       0       0     1.08282332     0.00001501
       6     bnd       2       7       0       0     1.08912794     0.00002264
       7     bnd       3       8       0       0     1.08267262    -0.00008354
       8     bnd       5      10       0       0     1.21862644     0.00013140
       9     bnd       2      11       0       0     1.33739909    -0.00287426
      10     bnd       5      12       0       0     1.11648010     0.00011883
      11     bnd       3      11       0       0     3.60513914    -0.03264375
      12     bnd       1       3       0       0     4.17702076    -0.02238721
      13     bnd       2       3       0       0     4.22003002    -0.04144501
      14     ang       5       1       2       0   120.02932069     0.00672360
      15     ang       5       1       4       0   118.83685175    -0.00403517
      16     ang       5       1       3       0   141.34319073     0.00344408
      17     ang       2       1       4       0   121.13196440    -0.00191655
      18     ang       2       1       3       0    82.65015434    -0.00793214
      19     ang       4       1       3       0    50.31919488     0.01420288
      20     ang       1       2       7       0   124.80365471     0.00236216
      21     ang       1       2      11       0   122.66761981    -0.00163797
      22     ang       1       2       3       0    79.01453881     0.00686273
      23     ang       7       2      11       0   112.52688075    -0.00068888
      24     ang       7       2       3       0   140.82904418    -0.01627544
      25     ang      11       2       3       0    54.21615757     0.00247878
      26     ang       9       3       6       0   119.95073940    -0.00183479
      27     ang       9       3       8       0   120.10293720    -0.00062472
      28     ang       9       3      11       0   114.04129051    -0.03361737
      29     ang       9       3       1       0    97.92090388     0.05774874
      30     ang       9       3       2       0   101.86066614    -0.00282820
      31     ang       6       3       8       0   119.90585418     0.00264877
      32     ang       6       3      11       0    87.80295564     0.08918040
      33     ang       6       3       1       0    69.26955154    -0.03181914
      34     ang       6       3       2       0    83.06534090     0.02989091
      35     ang       8       3      11       0    70.25834639    -0.04766288
      36     ang       8       3       1       0   104.36152020    -0.01779329
      37     ang       8       3       2       0    87.08798588    -0.01438896
      38     ang      11       3       1       0    34.12494935     0.00101119
      39     ang       1       5      10       0   124.21862697    -0.00032151
      40     ang       1       5      12       0   115.16743789     0.00035477
      41     ang      10       5      12       0   120.61393151    -0.00002920
      42     ang       2      11       3       0   108.26967173    -0.00422619
      43     dih       2       1       5      10   180.61915579     0.01911984
      44     dih       2       1       5      12     0.59729896     0.01763373
      45     dih       4       1       5      10     0.12827173     0.00215180
      46     dih       4       1       5      12   180.10641491     0.00066569
      47     dih       3       1       5      10    61.53661703     0.01987639
      48     dih       3       1       5      12   241.51476020     0.01839028
      49     dih       5       1       2       7    -0.82716181    -0.01647950
      50     dih       5       1       2      11   179.70433281    -0.01893993
      51     dih       5       1       2       3   213.39586857    -0.00195736
      52     dih       4       1       2       7   179.67520232     0.00069423
      53     dih       4       1       2      11     0.20669694    -0.00176620
      54     dih       4       1       2       3    33.89823270     0.01521637
      55     dih       3       1       2       7   145.77696962    -0.01452215
      56     dih       3       1       2      11   -33.69153576    -0.01698258
      57     dih       1       2      11       3    42.16544964     0.02240430
      58     dih       7       2      11       3   222.63791448     0.02016947
      59     dih       9       3      11       2    48.25874008     0.21793187
      60     dih       6       3      11       2   -73.74445201     0.18043300
      61     dih       8       3      11       2   163.30824093     0.20010772
      62     dih       1       3      11       2   -18.83146045    -0.00902137
      63     dih       5       1       3       9    26.40509107     0.21002567
      64     dih       5       1       3       6   267.30740574     0.23051376
      65     dih       5       1       3       8   150.34652863     0.22816202
      66     dih       5       1       3      11   148.26764887     0.01243515
      67     dih       5       1       3       2   130.28109027     0.00312305
      68     dih       2       1       3       9   256.12400080     0.20690261
      69     dih       2       1       3       6   137.02631547     0.22739071
      70     dih       2       1       3       8    20.06543836     0.22503897
      71     dih       2       1       3      11    17.98655860     0.00931210
      72     dih       4       1       3       9   114.46250245     0.21653510
      73     dih       4       1       3       6    -4.63518288     0.23702320
      74     dih       4       1       3       8   238.40394001     0.23467145
      75     dih       4       1       3      11   236.32506024     0.01894458
      76     dih       4       1       3       2   218.33850165     0.00963249
      77     dih       1       2       3       9    79.27492360     0.21891165
      78     dih       1       2       3       6   -39.95808920     0.21695989
      79     dih       1       2       3       8   199.43888663     0.21484548
      80     dih       1       2       3      11   215.14426641     0.01732430
      81     dih       7       2       3       9   -53.74406786     0.21815382
      82     dih       7       2       3       6   187.02291934     0.21620206
      83     dih       7       2       3       8    66.41989517     0.21408765
      84     dih       7       2       3      11    82.12527496     0.01656647
      85     dih       7       2       3       1   226.98100854    -0.00075783
      86     dih      11       2       3       9   224.13065719     0.20158735
      87     dih      11       2       3       6   104.89764438     0.19963560
      88     dih      11       2       3       8   -15.70537978     0.19752118
      89     dih      11       2       3       1   144.85573359    -0.01732430
 Increase Hessian eigenvalue threshold to   4.000000000000000E-004
 
----------------------------------------------------------------------
Geometry Convergence after Step 108       (Hartree/Angstrom,Angstrom)
----------------------------------------------------------------------
current energy                               -2.34482872 Hartree
energy change                      -0.00005897     0.00012000    T
constrained gradient max            0.00228945     0.00100000    F
constrained gradient rms            0.00088410     0.00066667    F
gradient max                        0.00228945
gradient rms                        0.00088410
cart. step max                      0.03359461     0.01000000    F
cart. step rms                      0.01576665     0.00666667    F
 
 
--------
Geometry
--------
Formula: C4H6FO
Atoms
  Index Symbol   x (angstrom)   y (angstrom)   z (angstrom)
      1      C     0.84293771     0.12063960     0.82662664
      2      C     1.46895803     0.23336885    -0.35105502
      3      C    -2.40481296    -1.04077998    -1.57672325
      4      H     0.07288975    -0.62938731     0.98360636
      5      C     1.20075335     1.01016753     1.93585023
      6      H    -2.32931000    -1.66569548    -0.69562776
      7      H     2.24425876     0.96444837    -0.57598773
      8      H    -1.94521098    -1.35769768    -2.50436370
      9      H    -2.97053552    -0.11819529    -1.53832057
     10      O     0.68946943     0.96688552     3.04118342
     11      F     1.18940885    -0.55427610    -1.39519786
     12      H     1.99738802     1.75810359     1.70679771
 
Total System Charge             0.00000
 
 *** GOStep109 ***
