
 *******************************************************************************
 *                                                                             *
 *  --------------------------------                                           *
 *   Amsterdam Modeling Suite (AMS)              2021.102                      *
 *  --------------------------------                                           *
 *                                               r95042 2021-06-07             *
 *                                                                             *
 *                                                                             *
 *                              =================                              *
 *                              |               |                              *
 *                              |     A M S     |                              *
 *                              |               |                              *
 *                              =================                              *
 *                                                                             *
 *                                                                             *
 *   Online information and documentation:  https://www.scm.com/support/       *
 *   E-mail:  support@scm.com   info@scm.com                                   *
 *                                                                             *
 *   Scientific publications using AMS results must be properly referenced     *
 *   See the User Manuals (or the web site) for recommended citations          *
 *   The terms and conditions of the End User License Agreement apply to       *
 *   the use of AMS, https://www.scm.com/license-terms/                        *
 *                                                                             *
 **********************  x86_64_linux_intel / intelmpi  ************************
 
 Licensed to: VU/FEW (+ SARA) / ALGEMEEN / Amsterdam / THE NETHERLANDS
 SCM User ID: u7668
  
 AMS 2021.102  RunTime: Jan20-2022 14:26:33  ShM Nodes: 1  Procs: 1

 AMS jobname: 3.no_catalyst_H_F.TS
 AMS jobid  : 212932543

 Start   directory: /scistor/tc/yhk800/MasterProject/calculations/no_catalyst_H_F/3.no_catalyst_H_F.TS/
 Results directory: /scistor/tc/yhk800/MasterProject/calculations/no_catalyst_H_F/3.no_catalyst_H_F.TS/
 Scratch directory: /scratch/3542/amstmp_3.no_catalyst_H_F.TS_kid0.212932543/

 RNG seed: 148225845 1040475992 1523702503 1312948750 -1010232404 -1944742939 575622660 556720323



                      ************************************************************************
                      *  ADF 2021.102  RunTime: Jan20-2022 14:26:33  ShM Nodes: 1  Procs: 1  *
                      ************************************************************************
  
       *****************************
       *  TRANSITION STATE SEARCH  *
       *****************************

Optimization Method                    Quasi Newton
Optimization Coordinates               Delocalized Coordinates
Optimize lattice                       F
 
 ------------------------------------------------------
 Convergence criteria (Hartree,Angstrom)
 ------------------------------------------------------
 Maximum gradient               0.001000000000
 Maximum rms gradient           0.000666666667
 Maximum step allowed           0.010000000000
 Maximum rms step allowed       0.006666666667
 Maximum energy change allowe   0.000120000000
 Maximum stress energy allowe   0.000500000000
 
Initial model Hessian                  Automatic Hessian
 
------------------------------------
Quasi-Newton Optimizer Parameters
------------------------------------
Hessian Update Method                  Bofill
Maximum number of steps                  250
First GDIIS cycle                          0
Maximum GDIIS vectors                      0
Trust radius (bohr)                        0.200000
Trust radius varies                        F
Constraints converged at all steps         T
Use projector                              T
 
 Rigid motions settings for: old optimizer
 Atomic rotations (x,y,z):     T T T
 Atomic translations (x,y,z):  T T T
 Tolerance:                   1.000000000000000E-006
 
           1  TSRC entries:
    i   type      a1    a2    a3    a4    coef
    1 Distance     2     3               -1.000
 
--------
Geometry
--------
Formula: C4H6FO
Atoms
  Index Symbol   x (angstrom)   y (angstrom)   z (angstrom)
      1      C     0.81668000    -0.23471900     0.88197500
      2      C     0.81678400    -0.23413100    -0.47719300
      3      C    -1.53160000    -0.46998000    -1.30857600
      4      H     0.85636200    -1.16386700     1.44859300
      5      C     0.73893400     1.00063500     1.66014300
      6      H    -1.75224300    -1.42324600    -0.84366900
      7      H     0.86540100     0.70149500    -1.02879400
      8      H    -1.29572100    -0.45322200    -2.36675600
      9      H    -1.93437200     0.42729600    -0.85485600
     10      O     0.73088900     1.05622100     2.88164900
     11      F     1.05157196    -1.41471295    -1.21149598
     12      H     0.69350848     1.89581258     1.07576845
 
Total System Charge             0.00000
 
 
----------------
ADF Engine Input
----------------
 
 NumericalQuality VeryGood
 SCF
 Converge 1.0e-6
 Iterations 99
 End
 SYMMETRY NOSYM
 SpinPolarization 1.0
 Unrestricted Yes
 XC
 GGA OLYP
 End
 basis
 core None
 type TZ2P
 End
 

 Title: *** (NO TITLE) ***

 Using automatic Hessian for delocalized coordinates.
 *** GOStep1 ***

 Energy gradients wrt nuclear displacements
 ==========================================

     Atom      Cartesian (a.u./angstrom)
                 X         Y         Z
 ----------------------------------------
     1 C    -0.001486  0.019358  0.006405
     2 C    -0.010149  0.044878 -0.003165
     3 C     0.013236 -0.005252  0.002168
     4 H    -0.000718  0.000636  0.003725
     5 C    -0.001259  0.037647 -0.015180
     6 H    -0.002000  0.000048 -0.000524
     7 H    -0.002203  0.012334  0.017772
     8 H    -0.001140  0.000323 -0.000938
     9 H     0.001787 -0.000448  0.000027
    10 O    -0.000082  0.004174 -0.001130
    11 F     0.001860 -0.066739 -0.036641
    12 H     0.002154 -0.046959  0.027482
 ----------------------------------------
 Mulliken charges used for AMS results%charges...
           Primitive Internal Coordinates (atoms in internal order)
-------------------------------------------------------------------------------
    index    type      i       j       k       l   value(A,deg)     TSRC Vect
-------------------------------------------------------------------------------
       1     bnd       1       5       0       0     1.46208392     0.00000000
       2     bnd       1       2       0       0     1.35916813     0.10315886
       3     bnd       3       9       0       0     1.08313958     0.00000000
       4     bnd       1       4       0       0     1.08901177     0.00000000
       5     bnd       3       6       0       0     1.08329955     0.00000000
       6     bnd       2       7       0       0     1.08720894     0.00000000
       7     bnd       3       8       0       0     1.08428070     0.00000000
       8     bnd       5      10       0       0     1.22279656    -0.00000000
       9     bnd       2      11       0       0     1.41000000     0.03676003
      10     bnd       5      12       0       0     1.07000000    -0.00000000
      11     bnd       2       3       0       0     2.50234487    -0.35887021
      12     bnd       3      11       0       0     2.75222133    -0.15957066
      13     bnd       1       3       0       0     3.21998143    -0.19387568
      14     ang       5       1       2       0   122.13193049     0.00530576
      15     ang       5       1       4       0   116.48149708    -0.01751154
      16     ang       5       1       3       0   112.64562536     0.00890526
      17     ang       2       1       4       0   121.37727346     0.01181694
      18     ang       2       1       3       0    47.13980479    -0.06057879
      19     ang       4       1       3       0   108.55407601     0.03621682
      20     ang       1       2       7       0   120.51279539     0.00310371
      21     ang       1       2      11       0   121.36128198    -0.02631792
      22     ang       1       2       3       0   109.39804563     0.03460659
      23     ang       7       2      11       0   116.67222795     0.00714605
      24     ang       7       2       3       0    87.39281970    -0.02244698
      25     ang      11       2       3       0    84.51010433     0.05535709
      26     ang       9       3       6       0   118.25885447    -0.00057754
      27     ang       9       3       8       0   118.48323850     0.00069000
      28     ang       9       3       2       0    97.56929804    -0.00386000
      29     ang       9       3      11       0   128.21390110     0.02572575
      30     ang       9       3       1       0    85.73843521    -0.01649501
      31     ang       6       3       8       0   118.47247906    -0.00035183
      32     ang       6       3       2       0    97.55621160     0.00784235
      33     ang       6       3      11       0    82.75975470    -0.00909544
      34     ang       6       3       1       0    85.46171991    -0.00608310
      35     ang       8       3       2       0    96.81291220    -0.00342000
      36     ang       8       3      11       0    80.53456734    -0.01606283
      37     ang       8       3       1       0   120.27444570     0.02255234
      38     ang      11       3       1       0    46.88964471     0.04580478
      39     ang       1       5      10       0   124.78014579     0.00000000
      40     ang       1       5      12       0   114.73739870     0.00000000
      41     ang      10       5      12       0   120.48134627    -0.00000000
      42     ang       2      11       3       0    64.82849652    -0.08487942
      43     dih       2       1       5      10   179.74813341    -0.02997891
      44     dih       2       1       5      12    -0.63506965    -0.02997891
      45     dih       4       1       5      10     0.84367616    -0.00719439
      46     dih       4       1       5      12   180.46047311    -0.00719439
      47     dih       3       1       5      10   127.21624574     0.03717330
      48     dih       3       1       5      12   -53.16695732     0.03717330
      49     dih       5       1       2       7     6.57009342     0.02349142
      50     dih       5       1       2      11   172.35502844    -0.05271864
      51     dih       5       1       2       3   267.85385074     0.02752071
      52     dih       4       1       2       7   185.42152053    -0.00071568
      53     dih       4       1       2      11    -8.79354445    -0.07692573
      54     dih       4       1       2       3    86.70527785     0.00331362
      55     dih       3       1       2       7    98.71624268    -0.00402930
      56     dih       3       1       2      11   264.50117770    -0.08023936
      57     dih       1       2      11       3   109.40048400     0.07164399
      58     dih       7       2      11       3   -84.29422319    -0.00209407
      59     dih       1       2       3       9    60.36685908     0.00058381
      60     dih       1       2       3       6   -59.59533627     0.00026548
      61     dih       1       2       3       8   180.39271465    -0.00029465
      62     dih       1       2       3      11   238.63730923     0.00491410
      63     dih       7       2       3       9   -61.15415106     0.00027518
      64     dih       7       2       3       6   178.88365359    -0.00004315
      65     dih       7       2       3       8    58.87170451    -0.00060329
      66     dih       7       2       3      11   117.11629909     0.00460546
      67     dih       7       2       3       1   238.47898986    -0.00030863
      68     dih      11       2       3       9   181.72954985    -0.00433029
      69     dih      11       2       3       6    61.76735450    -0.00464862
      70     dih      11       2       3       8   -58.24459458    -0.00520875
      71     dih      11       2       3       1   121.36269077    -0.00491410
      72     dih       9       3      11       2     2.18228113    -0.00467341
      73     dih       6       3      11       2   241.69106591    -0.00441990
      74     dih       8       3      11       2   121.13490928    -0.01044677
      75     dih       1       3      11       2   -27.75476779    -0.01050167
      76     dih       5       1       3       9    -6.70885435     0.00031044
      77     dih       5       1       3       6   234.46351100    -0.00205957
      78     dih       5       1       3       8   113.97123608    -0.00348105
      79     dih       5       1       3       2   113.51971531    -0.00324925
      80     dih       5       1       3      11   150.13784247     0.00411839
      81     dih       2       1       3       9   239.77143035     0.00355969
      82     dih       2       1       3       6   120.94379569     0.00118967
      83     dih       2       1       3       8     0.45152078    -0.00023181
      84     dih       2       1       3      11    36.61812716     0.00736764
      85     dih       4       1       3       9   123.80841936     0.01411574
      86     dih       4       1       3       6     4.98078471     0.01174572
      87     dih       4       1       3       8   244.48850980     0.01032425
      88     dih       4       1       3       2   244.03698902     0.01055605
      89     dih       4       1       3      11   -79.34488382     0.01792369
Hessian eigenvector     1(     0.006) has overlap with TSRC:    0.97751E-04
Hessian eigenvector     2(     0.009) has overlap with TSRC:    0.39271E-01
Hessian eigenvector     3(     0.010) has overlap with TSRC:    0.48040E-01
Hessian eigenvector     4(     0.012) has overlap with TSRC:    0.77383E-01
Hessian eigenvector     5(     0.012) has overlap with TSRC:    0.16999E-01
Hessian eigenvector     6(     0.014) has overlap with TSRC:    0.34419E+00
Hessian eigenvector     7(     0.024) has overlap with TSRC:    0.11362E+00
Hessian eigenvector     8(     0.039) has overlap with TSRC:    0.11841E+00
Hessian eigenvector     9(     0.051) has overlap with TSRC:    0.61540E-02
Hessian eigenvector    10(     0.062) has overlap with TSRC:    0.90123E-02
Hessian eigenvector    11(     0.072) has overlap with TSRC:    0.25896E-01
Hessian eigenvector    12(     0.080) has overlap with TSRC:    0.26429E-01
Hessian eigenvector    13(     0.084) has overlap with TSRC:    0.18923E-01
Hessian eigenvector    14(     0.086) has overlap with TSRC:    0.21334E-01
Hessian eigenvector    15(     0.093) has overlap with TSRC:    0.14577E-01
Hessian eigenvector    16(     0.104) has overlap with TSRC:    0.21253E+00
Hessian eigenvector    17(     0.121) has overlap with TSRC:    0.16155E+00
Hessian eigenvector    18(     0.161) has overlap with TSRC:    0.12509E+00
Hessian eigenvector    19(     0.226) has overlap with TSRC:    0.17605E-07
Hessian eigenvector    20(     0.249) has overlap with TSRC:    0.42921E-08
Hessian eigenvector    21(     0.457) has overlap with TSRC:    0.30996E-01
Hessian eigenvector    22(     0.466) has overlap with TSRC:    0.88585E-01
Hessian eigenvector    23(     0.500) has overlap with TSRC:    0.16708E-14
Hessian eigenvector    24(     0.501) has overlap with TSRC:    0.17069E-14
Hessian eigenvector    25(     0.503) has overlap with TSRC:    0.57463E-16
Hessian eigenvector    26(     0.503) has overlap with TSRC:    0.16650E-14
Hessian eigenvector    27(     0.503) has overlap with TSRC:    0.13780E-15
Hessian eigenvector    28(     0.509) has overlap with TSRC:    0.58639E-15
Hessian eigenvector    29(     0.526) has overlap with TSRC:    0.24902E-14
Hessian eigenvector    30(     0.601) has overlap with TSRC:    0.89382E-15
Hessian eigenvector     6 has the largest overlap with TSRC:  0.34419
           Primitive Internal Coordinates (atoms in internal order)
-------------------------------------------------------------------------------
    index    type      i       j       k       l   value(A,deg)     Max Ovl Vect
-------------------------------------------------------------------------------
       1     bnd       1       5       0       0     1.46208392    -0.00000000
       2     bnd       1       2       0       0     1.35916813    -0.01226140
       3     bnd       3       9       0       0     1.08313958     0.00000000
       4     bnd       1       4       0       0     1.08901177    -0.00000000
       5     bnd       3       6       0       0     1.08329955    -0.00000000
       6     bnd       2       7       0       0     1.08720894    -0.00000000
       7     bnd       3       8       0       0     1.08428070    -0.00000000
       8     bnd       5      10       0       0     1.22279656    -0.00000000
       9     bnd       2      11       0       0     1.41000000    -0.00217351
      10     bnd       5      12       0       0     1.07000000    -0.00000000
      11     bnd       2       3       0       0     2.50234487     0.48675430
      12     bnd       3      11       0       0     2.75222133     0.04054398
      13     bnd       1       3       0       0     3.21998143     0.07621296
      14     ang       5       1       2       0   122.13193049    -0.00311982
      15     ang       5       1       4       0   116.48149708    -0.01552183
      16     ang       5       1       3       0   112.64562536    -0.01378813
      17     ang       2       1       4       0   121.37727346     0.01906394
      18     ang       2       1       3       0    47.13980479     0.17037923
      19     ang       4       1       3       0   108.55407601    -0.10040904
      20     ang       1       2       7       0   120.51279539     0.03022139
      21     ang       1       2      11       0   121.36128198     0.01807194
      22     ang       1       2       3       0   109.39804563    -0.19225276
      23     ang       7       2      11       0   116.67222795     0.04616697
      24     ang       7       2       3       0    87.39281970    -0.03057505
      25     ang      11       2       3       0    84.51010433    -0.15643273
      26     ang       9       3       6       0   118.25885447     0.00020353
      27     ang       9       3       8       0   118.48323850     0.00123278
      28     ang       9       3       2       0    97.56929804     0.00513380
      29     ang       9       3      11       0   128.21390110    -0.00835873
      30     ang       9       3       1       0    85.73843521     0.00381447
      31     ang       6       3       8       0   118.47247906    -0.00157722
      32     ang       6       3       2       0    97.55621160     0.00751281
      33     ang       6       3      11       0    82.75975470    -0.00000203
      34     ang       6       3       1       0    85.46171991    -0.01306836
      35     ang       8       3       2       0    96.81291220    -0.01231417
      36     ang       8       3      11       0    80.53456734     0.00796458
      37     ang       8       3       1       0   120.27444570     0.00946858
      38     ang      11       3       1       0    46.88964471    -0.00808137
      39     ang       1       5      10       0   124.78014579    -0.00008220
      40     ang       1       5      12       0   114.73739870    -0.00009812
      41     ang      10       5      12       0   120.48134627    -0.00008506
      42     ang       2      11       3       0    64.82849652     0.17045125
      43     dih       2       1       5      10   179.74813341     0.18246375
      44     dih       2       1       5      12    -0.63506965     0.13662353
      45     dih       4       1       5      10     0.84367616     0.15738488
      46     dih       4       1       5      12   180.46047311     0.11154466
      47     dih       3       1       5      10   127.21624574    -0.01223476
      48     dih       3       1       5      12   -53.16695732    -0.05807498
      49     dih       5       1       2       7     6.57009342    -0.23300562
      50     dih       5       1       2      11   172.35502844     0.22753389
      51     dih       5       1       2       3   267.85385074    -0.08347042
      52     dih       4       1       2       7   185.42152053    -0.20710061
      53     dih       4       1       2      11    -8.79354445     0.25343890
      54     dih       4       1       2       3    86.70527785    -0.05756542
      55     dih       3       1       2       7    98.71624268    -0.14953520
      56     dih       3       1       2      11   264.50117770     0.31100431
      57     dih       1       2      11       3   109.40048400    -0.31993600
      58     dih       7       2      11       3   -84.29422319     0.12176147
      59     dih       1       2       3       9    60.36685908     0.02910410
      60     dih       1       2       3       6   -59.59533627     0.02598737
      61     dih       1       2       3       8   180.39271465     0.02873802
      62     dih       1       2       3      11   238.63730923     0.05571757
      63     dih       7       2       3       9   -61.15415106     0.03971362
      64     dih       7       2       3       6   178.88365359     0.03659690
      65     dih       7       2       3       8    58.87170451     0.03934755
      66     dih       7       2       3      11   117.11629909     0.06632709
      67     dih       7       2       3       1   238.47898986     0.01060952
      68     dih      11       2       3       9   181.72954985    -0.02661347
      69     dih      11       2       3       6    61.76735450    -0.02973020
      70     dih      11       2       3       8   -58.24459458    -0.02697955
      71     dih      11       2       3       1   121.36269077    -0.05571757
      72     dih       9       3      11       2     2.18228113    -0.03386269
      73     dih       6       3      11       2   241.69106591    -0.03148513
      74     dih       8       3      11       2   121.13490928    -0.02788135
      75     dih       1       3      11       2   -27.75476779    -0.04837239
      76     dih       5       1       3       9    -6.70885435     0.04265635
      77     dih       5       1       3       6   234.46351100     0.04127009
      78     dih       5       1       3       8   113.97123608     0.04899865
      79     dih       5       1       3       2   113.51971531     0.01590200
      80     dih       5       1       3      11   150.13784247     0.02918918
      81     dih       2       1       3       9   239.77143035     0.02675435
      82     dih       2       1       3       6   120.94379569     0.02536809
      83     dih       2       1       3       8     0.45152078     0.03309665
      84     dih       2       1       3      11    36.61812716     0.01328718
      85     dih       4       1       3       9   123.80841936    -0.07314012
      86     dih       4       1       3       6     4.98078471    -0.07452638
      87     dih       4       1       3       8   244.48850980    -0.06679782
      88     dih       4       1       3       2   244.03698902    -0.09989447
      89     dih       4       1       3      11   -79.34488382    -0.08660730
 
----------------------------------------------------------------------
Geometry Convergence after Step   1       (Hartree/Angstrom,Angstrom)
----------------------------------------------------------------------
current energy                               -2.32899209 Hartree
energy change                      -2.32899209     0.00012000    F
constrained gradient max            0.06673731     0.00100000    F
constrained gradient rms            0.01949590     0.00066667    F
gradient max                        0.06673731
gradient rms                        0.01949590
cart. step max                      0.04142341     0.01000000    F
cart. step rms                      0.01547213     0.00666667    F
 
 
--------
Geometry
--------
Formula: C4H6FO
Atoms
  Index Symbol   x (angstrom)   y (angstrom)   z (angstrom)
      1      C     0.81780134    -0.24874701     0.88423480
      2      C     0.82407131    -0.23371452    -0.46365661
      3      C    -1.54234030    -0.46392005    -1.30178526
      4      H     0.86332859    -1.18246107     1.44135562
      5      C     0.73362585     0.99348108     1.64914370
      6      H    -1.75109768    -1.42000396    -0.83736035
      7      H     0.89046238     0.67618296    -1.05346765
      8      H    -1.29917809    -0.44525733    -2.35790839
      9      H    -1.95658260     0.42904420    -0.84854819
     10      O     0.71112916     1.03863448     2.87133861
     11      F     1.06715454    -1.37328954    -1.18033493
     12      H     0.69781993     1.91763239     1.05377713
 
Total System Charge             0.00000
 
 *** GOStep2 ***

 Energy gradients wrt nuclear displacements
 ==========================================

     Atom      Cartesian (a.u./angstrom)
                 X         Y         Z
 ----------------------------------------
     1 C     0.000468  0.000995 -0.005031
     2 C    -0.015117  0.023372  0.006833
     3 C     0.015224 -0.004878  0.002502
     4 H     0.000106 -0.000598  0.002167
     5 C     0.000660  0.017438 -0.009659
     6 H    -0.001752  0.000116 -0.000671
     7 H     0.002124  0.003743  0.006247
     8 H    -0.001053  0.000019 -0.000374
     9 H     0.001059  0.000103  0.000345
    10 O    -0.000189 -0.001768  0.001372
    11 F    -0.002113 -0.024010 -0.012740
    12 H     0.000583 -0.014533  0.009009
 ----------------------------------------
 Mulliken charges used for AMS results%charges...
Hessian eigenvector     1(     0.006) has overlap with TSRC:    0.26727E-01
Hessian eigenvector     2(     0.009) has overlap with TSRC:    0.11194E+00
Hessian eigenvector     3(     0.010) has overlap with TSRC:    0.12342E+00
Hessian eigenvector     4(     0.011) has overlap with TSRC:    0.19971E+00
Hessian eigenvector     5(     0.012) has overlap with TSRC:    0.77483E-01
Hessian eigenvector     6(     0.014) has overlap with TSRC:    0.27417E+00
Hessian eigenvector     7(     0.029) has overlap with TSRC:    0.59303E-01
Hessian eigenvector     8(     0.037) has overlap with TSRC:    0.10049E+00
Hessian eigenvector     9(     0.051) has overlap with TSRC:    0.11483E-01
Hessian eigenvector    10(     0.062) has overlap with TSRC:    0.85063E-02
Hessian eigenvector    11(     0.067) has overlap with TSRC:    0.23853E-01
Hessian eigenvector    12(     0.080) has overlap with TSRC:    0.25618E-01
Hessian eigenvector    13(     0.082) has overlap with TSRC:    0.25428E-02
Hessian eigenvector    14(     0.088) has overlap with TSRC:    0.17690E-01
Hessian eigenvector    15(     0.093) has overlap with TSRC:    0.18494E-01
Hessian eigenvector    16(     0.103) has overlap with TSRC:    0.21343E+00
Hessian eigenvector    17(     0.121) has overlap with TSRC:    0.15718E+00
Hessian eigenvector    18(     0.149) has overlap with TSRC:    0.87317E-01
Hessian eigenvector    19(     0.226) has overlap with TSRC:    0.26588E-03
Hessian eigenvector    20(     0.250) has overlap with TSRC:    0.58956E-02
Hessian eigenvector    21(     0.386) has overlap with TSRC:    0.13043E-01
Hessian eigenvector    22(     0.467) has overlap with TSRC:    0.89562E-01
Hessian eigenvector    23(     0.498) has overlap with TSRC:    0.13637E-01
Hessian eigenvector    24(     0.501) has overlap with TSRC:    0.37992E-02
Hessian eigenvector    25(     0.501) has overlap with TSRC:    0.10725E-03
Hessian eigenvector    26(     0.503) has overlap with TSRC:    0.20557E-03
Hessian eigenvector    27(     0.503) has overlap with TSRC:    0.51548E-05
Hessian eigenvector    28(     0.503) has overlap with TSRC:    0.25663E-03
Hessian eigenvector    29(     0.526) has overlap with TSRC:    0.72033E-03
Hessian eigenvector    30(     0.601) has overlap with TSRC:    0.87804E-03
Hessian eigenvector     6 has the largest overlap with TSRC:  0.27417
           Primitive Internal Coordinates (atoms in internal order)
-------------------------------------------------------------------------------
    index    type      i       j       k       l   value(A,deg)     Max Ovl Vect
-------------------------------------------------------------------------------
       1     bnd       1       5       0       0     1.46126719    -0.00046435
       2     bnd       1       2       0       0     1.34798981    -0.01166346
       3     bnd       3       9       0       0     1.08369999     0.00011575
       4     bnd       1       4       0       0     1.08824551    -0.00059642
       5     bnd       3       6       0       0     1.08322047     0.00000606
       6     bnd       2       7       0       0     1.08636930    -0.00006165
       7     bnd       3       8       0       0     1.08391523    -0.00007810
       8     bnd       5      10       0       0     1.22323561    -0.00029099
       9     bnd       2      11       0       0     1.36797241    -0.01723617
      10     bnd       5      12       0       0     1.09990866     0.00873525
      11     bnd       2       3       0       0     2.52098356     0.39023131
      12     bnd       3      11       0       0     2.76607418     0.04743801
      13     bnd       1       3       0       0     3.22416682     0.07184103
      14     ang       5       1       2       0   120.94435966    -0.02420845
      15     ang       5       1       4       0   117.63375012    -0.01761052
      16     ang       5       1       3       0   111.68325578    -0.01635570
      17     ang       2       1       4       0   121.41817274     0.03948511
      18     ang       2       1       3       0    47.63801831     0.13227478
      19     ang       4       1       3       0   108.69117272    -0.17807487
      20     ang       1       2       7       0   123.53899314     0.05269917
      21     ang       1       2      11       0   121.02397003     0.01629682
      22     ang       1       2       3       0   109.08995429    -0.14776170
      23     ang       7       2      11       0   113.72986246    -0.01490869
      24     ang       7       2       3       0    87.32609248     0.03855930
      25     ang      11       2       3       0    85.21340931    -0.11648673
      26     ang       9       3       6       0   118.31399899     0.00328352
      27     ang       9       3       8       0   118.62483625     0.00465636
      28     ang       9       3       2       0    98.30957603     0.00806399
      29     ang       9       3      11       0   127.81705448    -0.00852268
      30     ang       9       3       1       0    86.63222234     0.02586116
      31     ang       6       3       8       0   118.43636585    -0.00607252
      32     ang       6       3       2       0    96.83208855    -0.00847405
      33     ang       6       3      11       0    82.69292181     0.01507003
      34     ang       6       3       1       0    84.79524073    -0.04069462
      35     ang       8       3       2       0    96.41807078    -0.00394675
      36     ang       8       3      11       0    80.60754514    -0.01391995
      37     ang       8       3       1       0   119.68683243     0.01128396
      38     ang      11       3       1       0    45.70060857    -0.01086887
      39     ang       1       5      10       0   123.74170736    -0.00091047
      40     ang       1       5      12       0   115.64527642     0.00147286
      41     ang      10       5      12       0   120.61145112    -0.00095190
      42     ang       2      11       3       0    65.25989888     0.13236639
      43     dih       2       1       5      10   179.26797804     0.21355818
      44     dih       2       1       5      12    -1.18578894     0.14627732
      45     dih       4       1       5      10    -0.04033104     0.35057595
      46     dih       4       1       5      12   179.50590198     0.28329509
      47     dih       3       1       5      10   126.64628659     0.06603212
      48     dih       3       1       5      12   -53.80748038    -0.00124874
      49     dih       5       1       2       7     7.71865432    -0.10069941
      50     dih       5       1       2      11   171.88711563     0.15727709
      51     dih       5       1       2       3   267.92035669    -0.07611298
      52     dih       4       1       2       7   187.00058347    -0.24500999
      53     dih       4       1       2      11    -8.83095522     0.01296651
      54     dih       4       1       2       3    87.20228584    -0.22042356
      55     dih       3       1       2       7    99.79829763    -0.02458643
      56     dih       3       1       2      11   263.96675893     0.23339007
      57     dih       1       2      11       3   109.42787208    -0.24333239
      58     dih       7       2      11       3   -84.95441392     0.01421702
      59     dih       1       2       3       9    60.66898711     0.07585704
      60     dih       1       2       3       6   -59.34838791     0.07255519
      61     dih       1       2       3       8   180.90997084     0.08151342
      62     dih       1       2       3      11   238.78047860     0.03893497
      63     dih       7       2       3       9   -64.02066938     0.02849977
      64     dih       7       2       3       6   175.96195561     0.02519792
      65     dih       7       2       3       8    56.22031435     0.03415615
      66     dih       7       2       3      11   114.09082211    -0.00842230
      67     dih       7       2       3       1   235.31034351    -0.04735727
      68     dih      11       2       3       9   181.88850851     0.03692207
      69     dih      11       2       3       6    61.87113350     0.03362022
      70     dih      11       2       3       8   -57.87050775     0.04257845
      71     dih      11       2       3       1   121.21952140    -0.03893497
      72     dih       9       3      11       2     2.36574670     0.04629874
      73     dih       6       3      11       2   241.98157942     0.03204559
      74     dih       8       3      11       2   121.46314016     0.03900477
      75     dih       1       3      11       2   -28.17070832    -0.03661927
      76     dih       5       1       3       9    -7.48970268     0.05620570
      77     dih       5       1       3       6   233.66467124     0.05104940
      78     dih       5       1       3       8   113.76608397     0.08107189
      79     dih       5       1       3       2   112.72518112    -0.01270366
      80     dih       5       1       3      11   148.80272858    -0.00741214
      81     dih       2       1       3       9   239.78511619     0.06890936
      82     dih       2       1       3       6   120.93949012     0.06375305
      83     dih       2       1       3       8     1.04090285     0.09377555
      84     dih       2       1       3      11    36.07754746     0.00529152
      85     dih       4       1       3       9   123.92024763    -0.12935060
      86     dih       4       1       3       6     5.07462156    -0.13450690
      87     dih       4       1       3       8   245.17603429    -0.10448441
      88     dih       4       1       3       2   244.13513144    -0.19825996
      89     dih       4       1       3      11   -79.78732111    -0.19296844
 
----------------------------------------------------------------------
Geometry Convergence after Step   2       (Hartree/Angstrom,Angstrom)
----------------------------------------------------------------------
current energy                               -2.33374151 Hartree
energy change                      -0.00474943     0.00012000    F
constrained gradient max            0.02401306     0.00100000    F
constrained gradient rms            0.00852654     0.00066667    F
gradient max                        0.02401306
gradient rms                        0.00852654
cart. step max                      0.05007942     0.01000000    F
cart. step rms                      0.01484439     0.00666667    F
 
 
--------
Geometry
--------
Formula: C4H6FO
Atoms
  Index Symbol   x (angstrom)   y (angstrom)   z (angstrom)
      1      C     0.82166328    -0.25505116     0.88716181
      2      C     0.82934203    -0.24792871    -0.46124608
      3      C    -1.54765363    -0.45273977    -1.29567262
      4      H     0.91214791    -1.18766804     1.43873538
      5      C     0.72416194     0.98925728     1.64573182
      6      H    -1.75032565    -1.41463588    -0.84057927
      7      H     0.88932114     0.65121149    -1.06812797
      8      H    -1.30049589    -0.42087909    -2.35048424
      9      H    -1.96430268     0.43387078    -0.83206345
     10      O     0.66104974     1.04471324     2.86543949
     11      F     1.07173845    -1.37136563    -1.17164345
     12      H     0.70954780     1.91879712     1.03953706
 
Total System Charge             0.00000
 
 *** GOStep3 ***

 Energy gradients wrt nuclear displacements
 ==========================================

     Atom      Cartesian (a.u./angstrom)
                 X         Y         Z
 ----------------------------------------
     1 C    -0.004807 -0.000178 -0.002947
     2 C    -0.013238  0.006593  0.002270
     3 C     0.015296 -0.004412  0.002369
     4 H     0.003749  0.000121  0.000045
     5 C     0.003427  0.007842 -0.003772
     6 H    -0.001522  0.000078 -0.000462
     7 H     0.003722  0.000439  0.002138
     8 H    -0.000801  0.000109 -0.000235
     9 H     0.000822  0.000210  0.000425
    10 O    -0.001745 -0.000825  0.000753
    11 F    -0.005365 -0.004643 -0.004525
    12 H     0.000463 -0.005333  0.003942
 ----------------------------------------
 Mulliken charges used for AMS results%charges...
Hessian eigenvector     1(     0.004) has overlap with TSRC:    0.57115E-01
Hessian eigenvector     2(     0.007) has overlap with TSRC:    0.38502E-01
Hessian eigenvector     3(     0.009) has overlap with TSRC:    0.12596E+00
Hessian eigenvector     4(     0.010) has overlap with TSRC:    0.12244E-01
Hessian eigenvector     5(     0.012) has overlap with TSRC:    0.26201E+00
Hessian eigenvector     6(     0.013) has overlap with TSRC:    0.23440E+00
Hessian eigenvector     7(     0.029) has overlap with TSRC:    0.38889E-01
Hessian eigenvector     8(     0.037) has overlap with TSRC:    0.12424E+00
Hessian eigenvector     9(     0.051) has overlap with TSRC:    0.87574E-02
Hessian eigenvector    10(     0.062) has overlap with TSRC:    0.35133E-02
Hessian eigenvector    11(     0.068) has overlap with TSRC:    0.42349E-01
Hessian eigenvector    12(     0.080) has overlap with TSRC:    0.21763E-01
Hessian eigenvector    13(     0.081) has overlap with TSRC:    0.14596E-01
Hessian eigenvector    14(     0.088) has overlap with TSRC:    0.15507E-01
Hessian eigenvector    15(     0.093) has overlap with TSRC:    0.19697E-01
Hessian eigenvector    16(     0.103) has overlap with TSRC:    0.21683E+00
Hessian eigenvector    17(     0.121) has overlap with TSRC:    0.15567E+00
Hessian eigenvector    18(     0.146) has overlap with TSRC:    0.79155E-01
Hessian eigenvector    19(     0.226) has overlap with TSRC:    0.85797E-03
Hessian eigenvector    20(     0.250) has overlap with TSRC:    0.61193E-02
Hessian eigenvector    21(     0.387) has overlap with TSRC:    0.10717E-01
Hessian eigenvector    22(     0.467) has overlap with TSRC:    0.89271E-01
Hessian eigenvector    23(     0.498) has overlap with TSRC:    0.14195E-01
Hessian eigenvector    24(     0.501) has overlap with TSRC:    0.35285E-02
Hessian eigenvector    25(     0.501) has overlap with TSRC:    0.27891E-03
Hessian eigenvector    26(     0.503) has overlap with TSRC:    0.19973E-03
Hessian eigenvector    27(     0.503) has overlap with TSRC:    0.34668E-05
Hessian eigenvector    28(     0.503) has overlap with TSRC:    0.23040E-03
Hessian eigenvector    29(     0.526) has overlap with TSRC:    0.92644E-03
Hessian eigenvector    30(     0.601) has overlap with TSRC:    0.95124E-03
Hessian eigenvector     5 has the largest overlap with TSRC:  0.26201
           Primitive Internal Coordinates (atoms in internal order)
-------------------------------------------------------------------------------
    index    type      i       j       k       l   value(A,deg)     Max Ovl Vect
-------------------------------------------------------------------------------
       1     bnd       1       5       0       0     1.46056101     0.00120200
       2     bnd       1       2       0       0     1.34844856     0.01062671
       3     bnd       3       9       0       0     1.08379341    -0.00013235
       4     bnd       1       4       0       0     1.08728796     0.00112989
       5     bnd       3       6       0       0     1.08324975    -0.00001801
       6     bnd       2       7       0       0     1.08644200    -0.00015522
       7     bnd       3       8       0       0     1.08384944     0.00010663
       8     bnd       5      10       0       0     1.22259778     0.00080098
       9     bnd       2      11       0       0     1.35112211     0.02479334
      10     bnd       5      12       0       0     1.10983331    -0.01441089
      11     bnd       2       3       0       0     2.52751333    -0.37498902
      12     bnd       3      11       0       0     2.77857366    -0.05198016
      13     bnd       1       3       0       0     3.22761670    -0.06990724
      14     ang       5       1       2       0   121.01306425    -0.02972414
      15     ang       5       1       4       0   118.21817042     0.01834635
      16     ang       5       1       3       0   110.75821949     0.17441975
      17     ang       2       1       4       0   120.75275302     0.01414208
      18     ang       2       1       3       0    47.79578924    -0.12685756
      19     ang       4       1       3       0   110.58740341     0.03804677
      20     ang       1       2       7       0   124.28187120    -0.06004089
      21     ang       1       2      11       0   121.49318484     0.00065643
      22     ang       1       2       3       0   108.92583535     0.14173684
      23     ang       7       2      11       0   112.61471739     0.00549491
      24     ang       7       2       3       0    86.24837630    -0.02631066
      25     ang      11       2       3       0    85.85745539     0.10783324
      26     ang       9       3       6       0   118.34491449     0.00053366
      27     ang       9       3       8       0   118.68035882    -0.00520663
      28     ang       9       3       2       0    98.86060290    -0.01333038
      29     ang       9       3      11       0   127.86314638     0.00291224
      30     ang       9       3       1       0    86.72102853     0.00026215
      31     ang       6       3       8       0   118.53076799     0.00164974
      32     ang       6       3       2       0    96.26991123    -0.00086471
      33     ang       6       3      11       0    82.18652762     0.02292487
      34     ang       6       3       1       0    84.69857430     0.00067973
      35     ang       8       3       2       0    95.99568125     0.02119566
      36     ang       8       3      11       0    80.68787920    -0.01848335
      37     ang       8       3       1       0   119.27376927     0.00627967
      38     ang      11       3       1       0    45.41547789     0.01628149
      39     ang       1       5      10       0   124.07173513    -0.00231004
      40     ang       1       5      12       0   115.51442912     0.00028648
      41     ang      10       5      12       0   120.41383550     0.00192848
      42     ang       2      11       3       0    65.13045029    -0.12541903
      43     dih       2       1       5      10   177.09063562    -0.01199158
      44     dih       2       1       5      12    -2.91515162    -0.02840459
      45     dih       4       1       5      10    -4.35434173    -0.17499754
      46     dih       4       1       5      12   175.63987103    -0.19141054
      47     dih       3       1       5      10   124.70728370     0.05698000
      48     dih       3       1       5      12   -55.29850353     0.04056700
      49     dih       5       1       2       7     7.87886957    -0.17846563
      50     dih       5       1       2      11   172.32939996    -0.43683402
      51     dih       5       1       2       3   269.25053560    -0.21108943
      52     dih       4       1       2       7   189.36046224    -0.00755692
      53     dih       4       1       2      11    -6.18900736    -0.26592531
      54     dih       4       1       2       3    90.73212827    -0.04018072
      55     dih       3       1       2       7    98.62833397     0.03262380
      56     dih       3       1       2      11   263.07886437    -0.22574459
      57     dih       1       2      11       3   109.69399552     0.23285670
      58     dih       7       2      11       3   -84.18956771    -0.02497169
      59     dih       1       2       3       9    59.41396920     0.01532860
      60     dih       1       2       3       6   -60.62122929     0.01803743
      61     dih       1       2       3       8   179.72965186     0.01181189
      62     dih       1       2       3      11   238.07119844    -0.05331518
      63     dih       7       2       3       9   -65.63321755     0.06682221
      64     dih       7       2       3       6   174.33158395     0.06953105
      65     dih       7       2       3       8    54.68246510     0.06330550
      66     dih       7       2       3      11   113.02401169    -0.00182157
      67     dih       7       2       3       1   234.95281324     0.05149362
      68     dih      11       2       3       9   181.34277076     0.06864378
      69     dih      11       2       3       6    61.30757227     0.07135262
      70     dih      11       2       3       8   -58.34154659     0.06512707
      71     dih      11       2       3       1   121.92880156     0.05331518
      72     dih       9       3      11       2     1.68062088     0.08678260
      73     dih       6       3      11       2   241.65850717     0.06593120
      74     dih       8       3      11       2   120.92499972     0.06582191
      75     dih       1       3      11       2   -28.09503380     0.04316125
      76     dih       5       1       3       9    -7.98683032    -0.17394354
      77     dih       5       1       3       6   233.13714515    -0.17436125
      78     dih       5       1       3       8   113.27644935    -0.17832502
      79     dih       5       1       3       2   113.58468237    -0.19191465
      80     dih       5       1       3      11   148.89042064    -0.20534661
      81     dih       2       1       3       9   238.42848732     0.01797111
      82     dih       2       1       3       6   119.55246278     0.01755340
      83     dih       2       1       3       8    -0.30823302     0.01358963
      84     dih       2       1       3      11    35.30573827    -0.01343196
      85     dih       4       1       3       9   125.05435211     0.02173436
      86     dih       4       1       3       6     6.17832757     0.02131665
      87     dih       4       1       3       8   246.31763177     0.01735288
      88     dih       4       1       3       2   246.62586479     0.00376325
      89     dih       4       1       3      11   -78.06839694    -0.00966871
 
----------------------------------------------------------------------
Geometry Convergence after Step   3       (Hartree/Angstrom,Angstrom)
----------------------------------------------------------------------
current energy                               -2.33441677 Hartree
energy change                      -0.00067525     0.00012000    F
constrained gradient max            0.01528343     0.00100000    F
constrained gradient rms            0.00458962     0.00066667    F
gradient max                        0.01528343
gradient rms                        0.00458962
cart. step max                      0.06566646     0.01000000    F
cart. step rms                      0.02218032     0.00666667    F
 
 
--------
Geometry
--------
Formula: C4H6FO
Atoms
  Index Symbol   x (angstrom)   y (angstrom)   z (angstrom)
      1      C     0.79255815    -0.25832807     0.89893049
      2      C     0.80997704    -0.23814110    -0.44973171
      3      C    -1.55202685    -0.46816451    -1.31073907
      4      H     0.86463278    -1.19346792     1.44849650
      5      C     0.74412841     0.99144817     1.65225752
      6      H    -1.74006246    -1.43467876    -0.85916396
      7      H     0.84894096     0.66783928    -1.04835924
      8      H    -1.29327441    -0.42972702    -2.36252567
      9      H    -1.98864201     0.41021485    -0.84982368
     10      O     0.70357607     1.05693412     2.87216753
     11      F     1.09117251    -1.33675378    -1.17442841
     12      H     0.77521426     1.92040637     1.03970818
 
Total System Charge             0.00000
 
 *** GOStep4 ***

 Energy gradients wrt nuclear displacements
 ==========================================

     Atom      Cartesian (a.u./angstrom)
                 X         Y         Z
 ----------------------------------------
     1 C    -0.004311 -0.001974 -0.000953
     2 C    -0.013794  0.000934  0.001658
     3 C     0.014637 -0.003753  0.002230
     4 H     0.002087 -0.000063  0.000140
     5 C     0.002473  0.005019 -0.003783
     6 H    -0.001204 -0.000021 -0.000416
     7 H     0.001725 -0.000657  0.000205
     8 H    -0.000786  0.000079 -0.000211
     9 H     0.000773  0.000334  0.000321
    10 O    -0.000588 -0.000770  0.000192
    11 F    -0.003068  0.003206 -0.001722
    12 H     0.002056 -0.002334  0.002338
 ----------------------------------------
 Mulliken charges used for AMS results%charges...
Hessian eigenvector     1(     0.003) has overlap with TSRC:    0.52687E-01
Hessian eigenvector     2(     0.006) has overlap with TSRC:    0.65734E-02
Hessian eigenvector     3(     0.009) has overlap with TSRC:    0.99879E-01
Hessian eigenvector     4(     0.010) has overlap with TSRC:    0.16191E+00
Hessian eigenvector     5(     0.012) has overlap with TSRC:    0.26425E+00
Hessian eigenvector     6(     0.015) has overlap with TSRC:    0.18012E+00
Hessian eigenvector     7(     0.028) has overlap with TSRC:    0.20597E-01
Hessian eigenvector     8(     0.037) has overlap with TSRC:    0.13335E+00
Hessian eigenvector     9(     0.051) has overlap with TSRC:    0.75956E-02
Hessian eigenvector    10(     0.062) has overlap with TSRC:    0.25710E-02
Hessian eigenvector    11(     0.068) has overlap with TSRC:    0.43714E-01
Hessian eigenvector    12(     0.080) has overlap with TSRC:    0.17390E-01
Hessian eigenvector    13(     0.081) has overlap with TSRC:    0.21647E-01
Hessian eigenvector    14(     0.088) has overlap with TSRC:    0.18256E-01
Hessian eigenvector    15(     0.093) has overlap with TSRC:    0.19217E-01
Hessian eigenvector    16(     0.102) has overlap with TSRC:    0.22102E+00
Hessian eigenvector    17(     0.121) has overlap with TSRC:    0.15558E+00
Hessian eigenvector    18(     0.144) has overlap with TSRC:    0.73358E-01
Hessian eigenvector    19(     0.226) has overlap with TSRC:    0.14743E-02
Hessian eigenvector    20(     0.250) has overlap with TSRC:    0.65015E-02
Hessian eigenvector    21(     0.387) has overlap with TSRC:    0.97265E-02
Hessian eigenvector    22(     0.467) has overlap with TSRC:    0.90128E-01
Hessian eigenvector    23(     0.498) has overlap with TSRC:    0.14281E-01
Hessian eigenvector    24(     0.501) has overlap with TSRC:    0.32348E-02
Hessian eigenvector    25(     0.501) has overlap with TSRC:    0.58512E-03
Hessian eigenvector    26(     0.503) has overlap with TSRC:    0.18516E-03
Hessian eigenvector    27(     0.503) has overlap with TSRC:    0.31144E-04
Hessian eigenvector    28(     0.503) has overlap with TSRC:    0.17147E-03
Hessian eigenvector    29(     0.526) has overlap with TSRC:    0.89755E-03
Hessian eigenvector    30(     0.601) has overlap with TSRC:    0.96941E-03
Hessian eigenvector     5 has the largest overlap with TSRC:  0.26425
           Primitive Internal Coordinates (atoms in internal order)
-------------------------------------------------------------------------------
    index    type      i       j       k       l   value(A,deg)     Max Ovl Vect
-------------------------------------------------------------------------------
       1     bnd       1       5       0       0     1.46006428     0.00194642
       2     bnd       1       2       0       0     1.34892575     0.00751288
       3     bnd       3       9       0       0     1.08380168     0.00009814
       4     bnd       1       4       0       0     1.08706215     0.00113831
       5     bnd       3       6       0       0     1.08324847     0.00009704
       6     bnd       2       7       0       0     1.08658803    -0.00108569
       7     bnd       3       8       0       0     1.08382901     0.00007528
       8     bnd       5      10       0       0     1.22233928     0.00061452
       9     bnd       2      11       0       0     1.34581054     0.01804561
      10     bnd       5      12       0       0     1.11316952    -0.01366900
      11     bnd       2       3       0       0     2.52454092    -0.37793335
      12     bnd       3      11       0       0     2.78559343    -0.07810356
      13     bnd       1       3       0       0     3.22858324    -0.07023980
      14     ang       5       1       2       0   120.22999905     0.02846991
      15     ang       5       1       4       0   118.53558118    -0.02465440
      16     ang       5       1       3       0   112.62317388    -0.08821836
      17     ang       2       1       4       0   121.16272455    -0.00916203
      18     ang       2       1       3       0    47.62930687    -0.12837386
      19     ang       4       1       3       0   109.76980236    -0.01367659
      20     ang       1       2       7       0   124.31603894    -0.02563294
      21     ang       1       2      11       0   121.92845646    -0.03001241
      22     ang       1       2       3       0   109.11971675     0.14411978
      23     ang       7       2      11       0   112.11578542    -0.01208036
      24     ang       7       2       3       0    85.50483767     0.03298256
      25     ang      11       2       3       0    86.41424636     0.09924075
      26     ang       9       3       6       0   118.41851128    -0.00240284
      27     ang       9       3       8       0   118.69443327    -0.00332717
      28     ang       9       3       2       0    99.09259410    -0.01963228
      29     ang       9       3      11       0   127.89129729    -0.00104043
      30     ang       9       3       1       0    87.06600612    -0.01713957
      31     ang       6       3       8       0   118.53079858     0.00058875
      32     ang       6       3       2       0    95.82723188     0.01716983
      33     ang       6       3      11       0    82.30496531     0.00719996
      34     ang       6       3       1       0    84.18803912     0.02977995
      35     ang       8       3       2       0    95.99099817     0.01440453
      36     ang       8       3      11       0    80.32905675     0.00592518
      37     ang       8       3       1       0   119.24191127    -0.00126635
      38     ang      11       3       1       0    45.38820881     0.00803761
      39     ang       1       5      10       0   124.18645887    -0.00606878
      40     ang       1       5      12       0   115.43460271     0.00607116
      41     ang      10       5      12       0   120.35785688     0.00216786
      42     ang       2      11       3       0    64.75744289    -0.11781335
      43     dih       2       1       5      10   178.74115378    -0.34505300
      44     dih       2       1       5      12    -2.92926416     0.02982415
      45     dih       4       1       5      10    -4.30194190    -0.03000681
      46     dih       4       1       5      12   174.02764016     0.34487034
      47     dih       3       1       5      10   125.76716873    -0.15301040
      48     dih       3       1       5      12   -55.90324921     0.22186675
      49     dih       5       1       2       7     3.75199519     0.35652420
      50     dih       5       1       2      11   167.99089966     0.02927479
      51     dih       5       1       2       3   265.92454982     0.23324247
      52     dih       4       1       2       7   186.87632252     0.02608987
      53     dih       4       1       2      11    -8.88477300    -0.30115954
      54     dih       4       1       2       3    89.04887716    -0.09719186
      55     dih       3       1       2       7    97.82744537     0.12328173
      56     dih       3       1       2      11   262.06634984    -0.20396768
      57     dih       1       2      11       3   110.34298238     0.22694134
      58     dih       7       2      11       3   -83.67136728    -0.09005338
      59     dih       1       2       3       9    59.74816820    -0.01934460
      60     dih       1       2       3       6   -60.30486394    -0.01629523
      61     dih       1       2       3       8   180.12694839    -0.02378764
      62     dih       1       2       3      11   237.37684601    -0.01785359
      63     dih       7       2       3       9   -65.08991208    -0.02797934
      64     dih       7       2       3       6   174.85705578    -0.02492996
      65     dih       7       2       3       8    55.28886811    -0.03242238
      66     dih       7       2       3      11   112.53876573    -0.02648833
      67     dih       7       2       3       1   235.16191972    -0.00863473
      68     dih      11       2       3       9   182.37132219    -0.00149101
      69     dih      11       2       3       6    62.31829005     0.00155837
      70     dih      11       2       3       8   -57.24989762    -0.00593405
      71     dih      11       2       3       1   122.62315399     0.01785359
      72     dih       9       3      11       2     2.96752450    -0.00181344
      73     dih       6       3      11       2   242.74427005    -0.00437312
      74     dih       8       3      11       2   121.95080221    -0.00159598
      75     dih       1       3      11       2   -27.84259797     0.02877687
      76     dih       5       1       3       9   -10.35525030     0.09335019
      77     dih       5       1       3       6   230.68388304     0.09735850
      78     dih       5       1       3       8   111.13071202     0.07819711
      79     dih       5       1       3       2   110.98601785     0.10556630
      80     dih       5       1       3      11   145.76972953     0.11516920
      81     dih       2       1       3       9   238.65873185    -0.01221611
      82     dih       2       1       3       6   119.69786519    -0.00820780
      83     dih       2       1       3       8     0.14469417    -0.02736919
      84     dih       2       1       3      11    34.78371168     0.00960290
      85     dih       4       1       3       9   124.04969762    -0.02165889
      86     dih       4       1       3       6     5.08883096    -0.01765058
      87     dih       4       1       3       8   245.53565994    -0.03681197
      88     dih       4       1       3       2   245.39096577    -0.00944278
      89     dih       4       1       3      11   -79.82532255     0.00016012
 
----------------------------------------------------------------------
Geometry Convergence after Step   4       (Hartree/Angstrom,Angstrom)
----------------------------------------------------------------------
current energy                               -2.33430892 Hartree
energy change                       0.00010785     0.00012000    T
constrained gradient max            0.01462749     0.00100000    F
constrained gradient rms            0.00389409     0.00066667    F
gradient max                        0.01462749
gradient rms                        0.00389409
cart. step max                      0.07748847     0.01000000    F
cart. step rms                      0.02333810     0.00666667    F
 
 
--------
Geometry
--------
Formula: C4H6FO
Atoms
  Index Symbol   x (angstrom)   y (angstrom)   z (angstrom)
      1      C     0.83238602    -0.26142324     0.88814039
      2      C     0.84005542    -0.24874580    -0.46034905
      3      C    -1.54890893    -0.44996662    -1.28898624
      4      H     0.87890954    -1.19596978     1.44115937
      5      C     0.73452926     0.98516919     1.64159221
      6      H    -1.74154202    -1.41290462    -0.83174078
      7      H     0.89237896     0.64809841    -1.07164896
      8      H    -1.30287344    -0.41796066    -2.34402126
      9      H    -1.96882288     0.43479168    -0.82473357
     10      O     0.65518714     1.04788130     2.85962610
     11      F     1.08716958    -1.35587042    -1.17869333
     12      H     0.69772579     1.91448219     1.02644359
 
Total System Charge             0.00000
 
 *** GOStep5 ***

 Energy gradients wrt nuclear displacements
 ==========================================

     Atom      Cartesian (a.u./angstrom)
                 X         Y         Z
 ----------------------------------------
     1 C    -0.001595 -0.002069 -0.002081
     2 C    -0.014356 -0.001319  0.000540
     3 C     0.015296 -0.003814  0.002527
     4 H    -0.000147  0.000285  0.000352
     5 C     0.011154  0.003215 -0.000961
     6 H    -0.001296 -0.000004 -0.000450
     7 H     0.002928 -0.001830 -0.001166
     8 H    -0.000740  0.000011 -0.000193
     9 H     0.000642  0.000283  0.000362
    10 O    -0.004111 -0.000637  0.000003
    11 F    -0.004998  0.006903 -0.000026
    12 H    -0.002776 -0.001024  0.001092
 ----------------------------------------
 Mulliken charges used for AMS results%charges...
Hessian eigenvector     1(    -0.002) has overlap with TSRC:    0.53644E-01
Hessian eigenvector     1 has the largest overlap with TSRC:  0.05364
           Primitive Internal Coordinates (atoms in internal order)
-------------------------------------------------------------------------------
    index    type      i       j       k       l   value(A,deg)     Max Ovl Vect
-------------------------------------------------------------------------------
       1     bnd       1       5       0       0     1.45988297    -0.00292545
       2     bnd       1       2       0       0     1.34857083    -0.00553768
       3     bnd       3       9       0       0     1.08381526    -0.00003630
       4     bnd       1       4       0       0     1.08690922     0.00089261
       5     bnd       3       6       0       0     1.08324998     0.00006908
       6     bnd       2       7       0       0     1.08662545     0.00059759
       7     bnd       3       8       0       0     1.08381582    -0.00005590
       8     bnd       5      10       0       0     1.22222524    -0.00138198
       9     bnd       2      11       0       0     1.34268717    -0.00729341
      10     bnd       5      12       0       0     1.11507174     0.00454566
      11     bnd       2       3       0       0     2.53658828     0.07685689
      12     bnd       3      11       0       0     2.78957633     0.02439851
      13     bnd       1       3       0       0     3.23202640     0.02209696
      14     ang       5       1       2       0   120.55911746     0.04047158
      15     ang       5       1       4       0   118.32517455    -0.02093380
      16     ang       5       1       3       0   110.36988742    -0.20545012
      17     ang       2       1       4       0   121.10501886    -0.02449807
      18     ang       2       1       3       0    48.02307637     0.02259819
      19     ang       4       1       3       0   108.91172735    -0.01074271
      20     ang       1       2       7       0   124.78970182     0.02814103
      21     ang       1       2      11       0   121.88850114    -0.01717063
      22     ang       1       2       3       0   108.69633359    -0.02370980
      23     ang       7       2      11       0   111.75938803    -0.00319622
      24     ang       7       2       3       0    85.81636070     0.00655130
      25     ang      11       2       3       0    86.16699115    -0.01601144
      26     ang       9       3       6       0   118.42205191    -0.00105796
      27     ang       9       3       8       0   118.73901896     0.00266733
      28     ang       9       3       2       0    99.21871399     0.00355789
      29     ang       9       3      11       0   127.90017655    -0.00014917
      30     ang       9       3       1       0    87.09360925    -0.01660047
      31     ang       6       3       8       0   118.52328075     0.00117041
      32     ang       6       3       2       0    95.74525291     0.00522564
      33     ang       6       3      11       0    82.10702355    -0.03036580
      34     ang       6       3       1       0    84.17693680     0.02388488
      35     ang       8       3       2       0    95.84624588    -0.01521738
      36     ang       8       3      11       0    80.41911906     0.02512422
      37     ang       8       3       1       0   119.12682192    -0.01392940
      38     ang      11       3       1       0    45.25703124    -0.01007546
      39     ang       1       5      10       0   124.22880621    -0.00298285
      40     ang       1       5      12       0   115.41319810     0.00156065
      41     ang      10       5      12       0   120.32277346    -0.00060093
      42     ang       2      11       3       0    65.13151865     0.02132765
      43     dih       2       1       5      10   176.21588380     0.01402034
      44     dih       2       1       5      12    -1.62425720    -0.33543309
      45     dih       4       1       5      10    -2.60786403     0.30649538
      46     dih       4       1       5      12   179.55199497    -0.04295805
      47     dih       3       1       5      10   123.75454201     0.08241068
      48     dih       3       1       5      12   -54.08559899    -0.26704274
      49     dih       5       1       2       7     7.40632842     0.33418645
      50     dih       5       1       2      11   171.96037046     0.37116997
      51     dih       5       1       2       3   269.28150296     0.32888777
      52     dih       4       1       2       7   186.19703618     0.02764081
      53     dih       4       1       2      11    -9.24892178     0.06462432
      54     dih       4       1       2       3    88.07221071     0.02234213
      55     dih       3       1       2       7    98.12482546     0.00529868
      56     dih       3       1       2      11   262.67886750     0.04228220
      57     dih       1       2      11       3   109.67546978    -0.03963465
      58     dih       7       2      11       3   -83.94582508     0.00037361
      59     dih       1       2       3       9    59.52411078    -0.05632943
      60     dih       1       2       3       6   -60.53904039    -0.05725328
      61     dih       1       2       3       8   179.94028751    -0.05620045
      62     dih       1       2       3      11   237.56961517     0.02637267
      63     dih       7       2       3       9   -65.87066187    -0.08518206
      64     dih       7       2       3       6   174.06618696    -0.08610590
      65     dih       7       2       3       8    54.54551486    -0.08505307
      66     dih       7       2       3      11   112.17484252    -0.00247995
      67     dih       7       2       3       1   234.60522735    -0.02885262
      68     dih      11       2       3       9   181.95449561    -0.08270211
      69     dih      11       2       3       6    61.89134445    -0.08362596
      70     dih      11       2       3       8   -57.62932766    -0.08257312
      71     dih      11       2       3       1   122.43038483    -0.02637267
      72     dih       9       3      11       2     2.44519880    -0.10439169
      73     dih       6       3      11       2   242.37716273    -0.07748439
      74     dih       8       3      11       2   121.55978692    -0.08068246
      75     dih       1       3      11       2   -28.01303248    -0.01476995
      76     dih       5       1       3       9    -8.29527659     0.17334627
      77     dih       5       1       3       6   232.74299497     0.17530640
      78     dih       5       1       3       8   113.22799177     0.16236034
      79     dih       5       1       3       2   113.29599280     0.22702647
      80     dih       5       1       3      11   148.09472706     0.23931751
      81     dih       2       1       3       9   238.40873062    -0.05368021
      82     dih       2       1       3       6   119.44700217    -0.05172007
      83     dih       2       1       3       8    -0.06800102    -0.06466613
      84     dih       2       1       3      11    34.79873427     0.01229104
      85     dih       4       1       3       9   123.17370551    -0.02776131
      86     dih       4       1       3       6     4.21197707    -0.02580117
      87     dih       4       1       3       8   244.69697387    -0.03874723
      88     dih       4       1       3       2   244.76497489     0.02591890
      89     dih       4       1       3      11   -80.43629084     0.03820994
 
----------------------------------------------------------------------
Geometry Convergence after Step   5       (Hartree/Angstrom,Angstrom)
----------------------------------------------------------------------
current energy                               -2.33465100 Hartree
energy change                      -0.00034208     0.00012000    F
constrained gradient max            0.01528323     0.00100000    F
constrained gradient rms            0.00449180     0.00066667    F
gradient max                        0.01528323
gradient rms                        0.00449180
cart. step max                      0.04336609     0.01000000    F
cart. step rms                      0.01618086     0.00666667    F
 
 
--------
Geometry
--------
Formula: C4H6FO
Atoms
  Index Symbol   x (angstrom)   y (angstrom)   z (angstrom)
      1      C     0.80911356    -0.26267851     0.89479570
      2      C     0.84802335    -0.23486988    -0.45239486
      3      C    -1.55920618    -0.46345837    -1.30210426
      4      H     0.83934159    -1.19925691     1.44509517
      5      C     0.75876415     0.98622430     1.64950972
      6      H    -1.74470982    -1.42269326    -0.83426701
      7      H     0.89536054     0.66860231    -1.05424627
      8      H    -1.30804025    -0.44265865    -2.35620516
      9      H    -1.98916971     0.42326267    -0.85097317
     10      O     0.69855323     1.05164534     2.86859001
     11      F     1.09357000    -1.33201495    -1.18436454
     12      H     0.71459398     1.91547756     1.03335315
 
Total System Charge             0.00000
 
 *** GOStep6 ***

 Energy gradients wrt nuclear displacements
 ==========================================

     Atom      Cartesian (a.u./angstrom)
                 X         Y         Z
 ----------------------------------------
     1 C    -0.007459 -0.003700 -0.000092
     2 C    -0.011961 -0.000406 -0.001011
     3 C     0.016911 -0.003415  0.003792
     4 H    -0.000399  0.000479  0.000768
     5 C     0.018997  0.002470 -0.002332
     6 H    -0.001442 -0.000079 -0.000661
     7 H     0.001419 -0.001962 -0.001595
     8 H    -0.000927 -0.000159 -0.000224
     9 H     0.000374  0.000258  0.000149
    10 O    -0.005909 -0.000514  0.000678
    11 F    -0.004495  0.007468 -0.000198
    12 H    -0.005110 -0.000440  0.000727
 ----------------------------------------
 Mulliken charges used for AMS results%charges...
Hessian eigenvector     1(    -0.002) has overlap with TSRC:    0.24483E+00
Hessian eigenvector     1 has the largest overlap with TSRC:  0.24483
           Primitive Internal Coordinates (atoms in internal order)
-------------------------------------------------------------------------------
    index    type      i       j       k       l   value(A,deg)     Max Ovl Vect
-------------------------------------------------------------------------------
       1     bnd       1       5       0       0     1.46009813    -0.00418560
       2     bnd       1       2       0       0     1.34803921     0.01609723
       3     bnd       3       9       0       0     1.08381830    -0.00026387
       4     bnd       1       4       0       0     1.08670251     0.00195362
       5     bnd       3       6       0       0     1.08324276    -0.00010808
       6     bnd       2       7       0       0     1.08661305     0.00099419
       7     bnd       3       8       0       0     1.08381071     0.00003386
       8     bnd       5      10       0       0     1.22231829     0.00126210
       9     bnd       2      11       0       0     1.34156628     0.01445971
      10     bnd       5      12       0       0     1.11584567    -0.00566526
      11     bnd       2       3       0       0     2.56300853    -0.35108633
      12     bnd       3      11       0       0     2.79382795    -0.02589070
      13     bnd       1       3       0       0     3.23660630    -0.07078628
      14     ang       5       1       2       0   119.99454357     0.01748279
      15     ang       5       1       4       0   118.45047832     0.00967966
      16     ang       5       1       3       0   112.25181665    -0.03172812
      17     ang       2       1       4       0   121.53714978    -0.02714847
      18     ang       2       1       3       0    49.00912126    -0.11590843
      19     ang       4       1       3       0   108.09617016     0.12101563
      20     ang       1       2       7       0   124.88555853    -0.03251311
      21     ang       1       2      11       0   122.25424939    -0.01662462
      22     ang       1       2       3       0   107.60000181     0.12764730
      23     ang       7       2      11       0   111.70322765     0.01019860
      24     ang       7       2       3       0    86.06903780    -0.07824605
      25     ang      11       2       3       0    85.30120418     0.11194840
      26     ang       9       3       6       0   118.47531138    -0.00434221
      27     ang       9       3       8       0   118.75506324    -0.00355041
      28     ang       9       3       2       0    99.30182965     0.00310856
      29     ang       9       3      11       0   127.84227124     0.01767907
      30     ang       9       3       1       0    87.53560243    -0.03920502
      31     ang       6       3       8       0   118.47184459     0.00381319
      32     ang       6       3       2       0    95.54544417     0.01293481
      33     ang       6       3      11       0    82.47881348    -0.04106118
      34     ang       6       3       1       0    83.51692901     0.06558151
      35     ang       8       3       2       0    95.91600960    -0.00654067
      36     ang       8       3      11       0    80.03250084     0.03527921
      37     ang       8       3       1       0   119.30088967    -0.01782712
      38     ang      11       3       1       0    45.24261345     0.00997634
      39     ang       1       5      10       0   124.26369280     0.00021185
      40     ang       1       5      12       0   115.35752992    -0.00217567
      41     ang      10       5      12       0   120.27847203     0.00330332
      42     ang       2      11       3       0    66.10639336    -0.12449558
      43     dih       2       1       5      10   178.69877557    -0.35363541
      44     dih       2       1       5      12     2.34415163    -0.12225252
      45     dih       4       1       5      10    -2.81336351    -0.35414877
      46     dih       4       1       5      12   180.83201255    -0.12276587
      47     dih       3       1       5      10   124.30016055    -0.20247669
      48     dih       3       1       5      12   -52.05446339     0.02890620
      49     dih       5       1       2       7     3.21825626     0.10301351
      50     dih       5       1       2      11   169.89009270    -0.08277337
      51     dih       5       1       2       3   265.54641587     0.13184902
      52     dih       4       1       2       7   184.77818218     0.10398035
      53     dih       4       1       2      11    -8.54998139    -0.08180653
      54     dih       4       1       2       3    87.10634179     0.13281586
      55     dih       3       1       2       7    97.67184039    -0.02883551
      56     dih       3       1       2      11   264.34367682    -0.21462239
      57     dih       1       2      11       3   107.87129138     0.21685179
      58     dih       7       2      11       3   -83.87211568     0.03221950
      59     dih       1       2       3       9    60.76379862    -0.13962097
      60     dih       1       2       3       6   -59.32270577    -0.13881562
      61     dih       1       2       3       8   181.23190562    -0.14407068
      62     dih       1       2       3      11   237.60862180    -0.03492731
      63     dih       7       2       3       9   -64.66163070    -0.09536040
      64     dih       7       2       3       6   175.25186491    -0.09455505
      65     dih       7       2       3       8    55.80647630    -0.09981010
      66     dih       7       2       3      11   112.18319248     0.00933326
      67     dih       7       2       3       1   234.57457068     0.04426057
      68     dih      11       2       3       9   183.15517682    -0.10469366
      69     dih      11       2       3       6    63.06867243    -0.10388832
      70     dih      11       2       3       8   -56.37671618    -0.10914337
      71     dih      11       2       3       1   122.39137820     0.03492731
      72     dih       9       3      11       2     3.94398288    -0.13160764
      73     dih       6       3      11       2   243.51847929    -0.09705811
      74     dih       8       3      11       2   122.75893075    -0.10338836
      75     dih       1       3      11       2   -28.17033337     0.03034988
      76     dih       5       1       3       9    -9.36234924    -0.08770981
      77     dih       5       1       3       6   231.61315693    -0.08003502
      78     dih       5       1       3       8   112.50808814    -0.12143016
      79     dih       5       1       3       2   111.10294327     0.04429073
      80     dih       5       1       3      11   145.79027048     0.03725804
      81     dih       2       1       3       9   239.53470749    -0.13200054
      82     dih       2       1       3       6   120.51021366    -0.12432575
      83     dih       2       1       3       8     1.40514486    -0.16572089
      84     dih       2       1       3      11    34.68732721    -0.00703268
      85     dih       4       1       3       9   123.10865831     0.00111999
      86     dih       4       1       3       6     4.08416448     0.00879478
      87     dih       4       1       3       8   244.97909568    -0.03260036
      88     dih       4       1       3       2   243.57395082     0.13312053
      89     dih       4       1       3      11   -81.73872198     0.12608784
 
----------------------------------------------------------------------
Geometry Convergence after Step   6       (Hartree/Angstrom,Angstrom)
----------------------------------------------------------------------
current energy                               -2.33464753 Hartree
energy change                       0.00000347     0.00012000    T
constrained gradient max            0.01901411     0.00100000    F
[...]
     11      F     1.09777346    -1.33308928    -1.17948566
     12      H     0.77351366     1.92732480     1.02981575
 
Total System Charge             0.00000
 
 *** GOStep15 ***

 Energy gradients wrt nuclear displacements
 ==========================================

     Atom      Cartesian (a.u./angstrom)
                 X         Y         Z
 ----------------------------------------
     1 C    -0.003152 -0.002373 -0.002112
     2 C    -0.001620 -0.001231 -0.001789
     3 C     0.019945 -0.002050  0.006505
     4 H    -0.000085  0.000844  0.000899
     5 C    -0.007240 -0.002606 -0.001377
     6 H    -0.001621 -0.000258 -0.000793
     7 H     0.000222 -0.001815 -0.002146
     8 H    -0.000788 -0.000300 -0.000289
     9 H    -0.000363 -0.000013 -0.000039
    10 O     0.002979  0.000341  0.001280
    11 F    -0.010289  0.007640  0.000450
    12 H     0.002014  0.001821 -0.000588
 ----------------------------------------
 Mulliken charges used for AMS results%charges...
Hessian eigenvector     1(    -0.000) has overlap with TSRC:    0.22987E+00
Hessian eigenvector     1 has the largest overlap with TSRC:  0.22987
           Primitive Internal Coordinates (atoms in internal order)
-------------------------------------------------------------------------------
    index    type      i       j       k       l   value(A,deg)     Max Ovl Vect
-------------------------------------------------------------------------------
       1     bnd       1       5       0       0     1.46124559     0.00256485
       2     bnd       1       2       0       0     1.34222694    -0.01466199
       3     bnd       3       9       0       0     1.08359439     0.00007505
       4     bnd       1       4       0       0     1.08656807    -0.00077551
       5     bnd       3       6       0       0     1.08306239    -0.00002676
       6     bnd       2       7       0       0     1.08724082     0.00079491
       7     bnd       3       8       0       0     1.08373212    -0.00026271
       8     bnd       5      10       0       0     1.22100128    -0.00290053
       9     bnd       2      11       0       0     1.33689636    -0.00653199
      10     bnd       5      12       0       0     1.11835260     0.00491934
      11     bnd       2       3       0       0     2.72237583     0.32601541
      12     bnd       3      11       0       0     2.85162105     0.06047859
      13     bnd       1       3       0       0     3.29426018     0.08158871
      14     ang       5       1       2       0   120.09388363    -0.01017235
      15     ang       5       1       4       0   118.29704381    -0.00097501
      16     ang       5       1       3       0   110.75969332     0.02595509
      17     ang       2       1       4       0   121.60903317     0.01132692
      18     ang       2       1       3       0    53.64330959     0.10166638
      19     ang       4       1       3       0   104.78978909    -0.10130566
      20     ang       1       2       7       0   125.46113718     0.01338323
      21     ang       1       2      11       0   122.62573575     0.02161353
      22     ang       1       2       3       0   102.96205456    -0.11021276
      23     ang       7       2      11       0   111.76443778     0.00439814
      24     ang       7       2       3       0    87.76498205     0.04006348
      25     ang      11       2       3       0    81.57190363    -0.09006071
      26     ang       9       3       6       0   118.83310200     0.00291807
      27     ang       9       3       8       0   119.04231767     0.00432341
      28     ang       9       3       2       0    99.82531236    -0.00228169
      29     ang       9       3      11       0   127.45059109    -0.01904875
      30     ang       9       3       1       0    86.88525109     0.05890234
      31     ang       6       3       8       0   118.67341180     0.00340302
      32     ang       6       3       2       0    93.93778350    -0.02730969
      33     ang       6       3      11       0    79.73268086     0.06000572
      34     ang       6       3       1       0    83.21935311    -0.09618889
      35     ang       8       3       2       0    94.80443661     0.00486578
      36     ang       8       3      11       0    81.11838685    -0.06501127
      37     ang       8       3       1       0   118.18288222     0.01280003
      38     ang      11       3       1       0    44.24014438    -0.00983965
      39     ang       1       5      10       0   124.35780899     0.00204114
      40     ang       1       5      12       0   115.25611939    -0.00139179
      41     ang      10       5      12       0   120.35572365    -0.00013918
      42     ang       2      11       3       0    70.79830252     0.10353946
      43     dih       2       1       5      10   182.12944348     0.04256861
      44     dih       2       1       5      12     0.12468467     0.13068776
      45     dih       4       1       5      10     2.05840201     0.03185963
      46     dih       4       1       5      12   180.05364320     0.11997879
      47     dih       3       1       5      10   122.99740591    -0.08936122
      48     dih       3       1       5      12   -59.00735289    -0.00124206
      49     dih       5       1       2       7     1.88373562    -0.12404583
      50     dih       5       1       2      11   177.08072236     0.06593614
      51     dih       5       1       2       3   265.29095287    -0.10818711
      52     dih       4       1       2       7   181.95718429    -0.11296658
      53     dih       4       1       2      11    -2.84582897     0.07701539
      54     dih       4       1       2       3    85.36440154    -0.09710787
      55     dih       3       1       2       7    96.59278275    -0.01585871
      56     dih       3       1       2      11   271.78976949     0.17412326
      57     dih       1       2      11       3   100.04293248    -0.18237525
      58     dih       7       2      11       3   -84.16829907     0.00175846
      59     dih       1       2       3       9    57.37138069     0.18995326
      60     dih       1       2       3       6   -62.79536018     0.19373548
      61     dih       1       2       3       8   177.96697858     0.19500513
      62     dih       1       2       3      11   238.31947137     0.02009070
      63     dih       7       2       3       9   -68.55817561     0.17808262
      64     dih       7       2       3       6   171.27508352     0.18186484
      65     dih       7       2       3       8    52.03742228     0.18313449
      66     dih       7       2       3      11   112.38991507     0.00822005
      67     dih       7       2       3       1   234.07044370    -0.01187064
      68     dih      11       2       3       9   179.05190932     0.16986257
      69     dih      11       2       3       6    58.88516846     0.17364479
      70     dih      11       2       3       8   -60.35249279     0.17491444
      71     dih      11       2       3       1   121.68052863    -0.02009070
      72     dih       9       3      11       2    -1.17676481     0.21380484
      73     dih       6       3      11       2   240.22841172     0.16566415
      74     dih       8       3      11       2   118.77204311     0.16224223
      75     dih       1       3      11       2   -28.96806382    -0.02165311
      76     dih       5       1       3       9   -11.03560142     0.14818559
      77     dih       5       1       3       6   229.43662227     0.14060310
      78     dih       5       1       3       8   110.45830306     0.19401673
      79     dih       5       1       3       2   112.75679857    -0.03024442
      80     dih       5       1       3      11   147.20590809    -0.03119500
      81     dih       2       1       3       9   236.20760001     0.17843001
      82     dih       2       1       3       6   116.67982370     0.17084753
      83     dih       2       1       3       8    -2.29849551     0.22426115
      84     dih       2       1       3      11    34.44910952    -0.00095057
      85     dih       4       1       3       9   117.60314766     0.08293283
      86     dih       4       1       3       6    -1.92462864     0.07535034
      87     dih       4       1       3       8   239.09705215     0.12876397
      88     dih       4       1       3       2   241.39554766    -0.09549718
      89     dih       4       1       3      11   -84.15534282    -0.09644776
 
----------------------------------------------------------------------
Geometry Convergence after Step  15       (Hartree/Angstrom,Angstrom)
----------------------------------------------------------------------
current energy                               -2.33665104 Hartree
energy change                      -0.00034738     0.00012000    F
constrained gradient max            0.01993645     0.00100000    F
constrained gradient rms            0.00450100     0.00066667    F
gradient max                        0.01993645
gradient rms                        0.00450100
cart. step max                      0.03415957     0.01000000    F
cart. step rms                      0.01303980     0.00666667    F
 
 
--------
Geometry
--------
Formula: C4H6FO
Atoms
  Index Symbol   x (angstrom)   y (angstrom)   z (angstrom)
      1      C     0.82681160    -0.25119061     0.89358147
      2      C     0.95900675    -0.22802394    -0.44160391
      3      C    -1.63007010    -0.48137418    -1.30632558
      4      H     0.78244873    -1.18617463     1.44538467
      5      C     0.73981592     1.00061361     1.64307882
      6      H    -1.73986353    -1.48063045    -0.90344699
      7      H     1.03904150     0.66869271    -1.05133353
      8      H    -1.38191066    -0.36673445    -2.35500042
      9      H    -2.08474545     0.34888839    -0.77910959
     10      O     0.65290429     1.07090452     2.85885192
     11      F     1.09772517    -1.33853686    -1.17279006
     12      H     0.79503023     1.93114751     1.02550165
 
Total System Charge             0.00000
 
 *** GOStep16 ***

 Energy gradients wrt nuclear displacements
 ==========================================

     Atom      Cartesian (a.u./angstrom)
                 X         Y         Z
 ----------------------------------------
     1 C    -0.002963 -0.002207 -0.002052
     2 C    -0.002091 -0.001464 -0.001843
     3 C     0.019590 -0.002026  0.006478
     4 H     0.000016  0.000817  0.000855
     5 C    -0.007735 -0.002244 -0.001408
     6 H    -0.001546 -0.000255 -0.000764
     7 H     0.000405 -0.001747 -0.002016
     8 H    -0.000731 -0.000217 -0.000268
     9 H    -0.000392 -0.000024 -0.000049
    10 O     0.003068  0.000290  0.001306
    11 F    -0.009892  0.007405  0.000254
    12 H     0.002271  0.001671 -0.000492
 ----------------------------------------
 Mulliken charges used for AMS results%charges...
Hessian eigenvector     1(    -0.000) has overlap with TSRC:    0.40101E+00
Hessian eigenvector     1 has the largest overlap with TSRC:  0.40101
           Primitive Internal Coordinates (atoms in internal order)
-------------------------------------------------------------------------------
    index    type      i       j       k       l   value(A,deg)     Max Ovl Vect
-------------------------------------------------------------------------------
       1     bnd       1       5       0       0     1.46161840     0.00661538
       2     bnd       1       2       0       0     1.34191365    -0.02058141
       3     bnd       3       9       0       0     1.08352311    -0.00072665
       4     bnd       1       4       0       0     1.08657718    -0.00078506
       5     bnd       3       6       0       0     1.08299530    -0.00077458
       6     bnd       2       7       0       0     1.08732540     0.00178186
       7     bnd       3       8       0       0     1.08371781    -0.00041193
       8     bnd       5      10       0       0     1.22090076    -0.00420178
       9     bnd       2      11       0       0     1.33683018    -0.00900456
      10     bnd       5      12       0       0     1.11818761     0.00385204
      11     bnd       2       3       0       0     2.74139542     0.56922875
      12     bnd       3      11       0       0     2.86241622     0.18147946
      13     bnd       1       3       0       0     3.30588009     0.21954161
      14     ang       5       1       2       0   120.08555744    -0.01115420
      15     ang       5       1       4       0   118.30221394     0.00166929
      16     ang       5       1       3       0   110.89360665     0.04063642
      17     ang       2       1       4       0   121.61220549     0.00968178
      18     ang       2       1       3       0    54.00595356     0.14901111
      19     ang       4       1       3       0   104.34049386    -0.15586204
      20     ang       1       2       7       0   125.41102812     0.00867194
      21     ang       1       2      11       0   122.69002659     0.03569035
      22     ang       1       2       3       0   102.66295184    -0.15330254
      23     ang       7       2      11       0   111.76087826     0.00243996
      24     ang       7       2       3       0    88.21503743     0.08969248
      25     ang      11       2       3       0    81.29792924    -0.12620379
      26     ang       9       3       6       0   118.91186679     0.01249992
      27     ang       9       3       8       0   119.06972930     0.00918006
      28     ang       9       3       2       0    99.90499043     0.00485499
      29     ang       9       3      11       0   127.34785154    -0.02401961
      30     ang       9       3       1       0    86.25670678    -0.00740220
      31     ang       6       3       8       0   118.73727609     0.01010390
      32     ang       6       3       2       0    93.65081188    -0.05197033
      33     ang       6       3      11       0    78.63590986    -0.05589619
      34     ang       6       3       1       0    83.80211492    -0.04055543
      35     ang       8       3       2       0    94.54197929    -0.02671645
      36     ang       8       3      11       0    81.87117386     0.01161571
      37     ang       8       3       1       0   117.80008366    -0.02235000
      38     ang      11       3       1       0    44.07526518    -0.02829043
      39     ang       1       5      10       0   124.34521189     0.00108981
      40     ang       1       5      12       0   115.25007721    -0.00180293
      41     ang      10       5      12       0   120.37027776     0.00121638
      42     ang       2      11       3       0    71.20828920     0.15608474
      43     dih       2       1       5      10   181.94511443     0.03179344
      44     dih       2       1       5      12    -0.18993660     0.11872334
      45     dih       4       1       5      10     1.89067781     0.02008150
      46     dih       4       1       5      12   179.75562678     0.10701140
      47     dih       3       1       5      10   122.33322514    -0.16296405
      48     dih       3       1       5      12   -59.80182589    -0.07603415
      49     dih       5       1       2       7     1.84198562    -0.14328684
      50     dih       5       1       2      11   177.21344194     0.08200726
      51     dih       5       1       2       3   264.91720602    -0.15902963
      52     dih       4       1       2       7   181.89826598    -0.13110954
      53     dih       4       1       2      11    -2.73027770     0.09418456
      54     dih       4       1       2       3    84.97348638    -0.14685233
      55     dih       3       1       2       7    96.92477960     0.01574279
      56     dih       3       1       2      11   272.29623592     0.24103689
      57     dih       1       2      11       3    99.51363035    -0.25361476
      58     dih       7       2      11       3   -84.54713655    -0.03595000
      59     dih       1       2       3       9    55.09668581    -0.02847324
      60     dih       1       2       3       6   -65.09659292    -0.03057568
      61     dih       1       2       3       8   175.67068705    -0.02390729
      62     dih       1       2       3      11   238.29030489     0.02228252
      63     dih       7       2       3       9   -70.85974256    -0.04740101
      64     dih       7       2       3       6   168.94697871    -0.04950345
      65     dih       7       2       3       8    49.71425868    -0.04283505
      66     dih       7       2       3      11   112.33387651     0.00335475
      67     dih       7       2       3       1   234.04357162    -0.01892777
      68     dih      11       2       3       9   176.80638093    -0.05075576
      69     dih      11       2       3       6    56.61310219    -0.05285820
      70     dih      11       2       3       8   -62.61961783    -0.04618981
      71     dih      11       2       3       1   121.70969511    -0.02228252
      72     dih       9       3      11       2    -3.95851630    -0.06479846
      73     dih       6       3      11       2   238.20541699    -0.02670769
      74     dih       8       3      11       2   116.59819726    -0.04940554
      75     dih       1       3      11       2   -28.97066189    -0.02628643
      76     dih       5       1       3       9   -13.24091720    -0.06931440
      77     dih       5       1       3       6   227.12552896    -0.08815192
      78     dih       5       1       3       8   107.82001406    -0.06892178
      79     dih       5       1       3       2   112.70010140    -0.04135675
      80     dih       5       1       3      11   147.07467993    -0.04903941
      81     dih       2       1       3       9   234.05898141    -0.02795765
      82     dih       2       1       3       6   114.42542756    -0.04679517
      83     dih       2       1       3       8    -4.88008733    -0.02756503
      84     dih       2       1       3      11    34.37457854    -0.00768266
      85     dih       4       1       3       9   115.17787354    -0.16488128
      86     dih       4       1       3       6    -4.45568030    -0.18371880
      87     dih       4       1       3       8   236.23880480    -0.16448866
      88     dih       4       1       3       2   241.11889213    -0.13692363
      89     dih       4       1       3      11   -84.50652933    -0.14460628
 
----------------------------------------------------------------------
Geometry Convergence after Step  16       (Hartree/Angstrom,Angstrom)
----------------------------------------------------------------------
current energy                               -2.33689674 Hartree
energy change                      -0.00024570     0.00012000    F
constrained gradient max            0.01957970     0.00100000    F
constrained gradient rms            0.00443827     0.00066667    F
gradient max                        0.01957970
gradient rms                        0.00443827
cart. step max                      0.03667625     0.01000000    F
cart. step rms                      0.01484319     0.00666667    F
 
 
--------
Geometry
--------
Formula: C4H6FO
Atoms
  Index Symbol   x (angstrom)   y (angstrom)   z (angstrom)
      1      C     0.82702327    -0.25456420     0.89234900
      2      C     0.93462896    -0.23290561    -0.44636229
      3      C    -1.60959764    -0.47190569    -1.30157561
      4      H     0.81090598    -1.19042657     1.44431432
      5      C     0.72822781     0.99518133     1.64267513
      6      H    -1.74181025    -1.46089465    -0.88029031
      7      H     1.00236525     0.66364011    -1.05755485
      8      H    -1.36124562    -0.38355212    -2.35277736
      9      H    -2.05584594     0.37531850    -0.79434861
     10      O     0.65891107     1.06414812     2.85996992
     11      F     1.09591341    -1.34295295    -1.17498650
     12      H     0.76671815     1.92649536     1.02537564
 
Total System Charge             0.00000
 
 *** GOStep17 ***
