

 Parallel Execution: Process Information
 ==============================================================================
 Rank   Node Name                              NodeID   MyNodeRank  NodeMaster
    0   node148                                   0          0          0
    1   node148                                   0          1         -1
    2   node148                                   0          2         -1
    3   node148                                   0          3         -1
    4   node148                                   0          4         -1
    5   node148                                   0          5         -1
    6   node148                                   0          6         -1
    7   node148                                   0          7         -1
    8   node148                                   0          8         -1
    9   node148                                   0          9         -1
   10   node148                                   0         10         -1
   11   node148                                   0         11         -1
   12   node148                                   0         12         -1
   13   node148                                   0         13         -1
   14   node148                                   0         14         -1
   15   node148                                   0         15         -1
 ==============================================================================


May use up to 61423MB of RAM as shared memory on node 0

 *******************************************************************************
 *                                                                             *
 *  --------------------------------                                           *
 *   Amsterdam Modeling Suite (AMS)              2021.102                      *
 *  --------------------------------                                           *
 *                                               r95042 2021-06-07             *
 *                                                                             *
 *                                                                             *
 *                              =================                              *
 *                              |               |                              *
 *                              |     A M S     |                              *
 *                              |               |                              *
 *                              =================                              *
 *                                                                             *
 *                                                                             *
 *   Online information and documentation:  https://www.scm.com/support/       *
 *   E-mail:  support@scm.com   info@scm.com                                   *
 *                                                                             *
 *   Scientific publications using AMS results must be properly referenced     *
 *   See the User Manuals (or the web site) for recommended citations          *
 *   The terms and conditions of the End User License Agreement apply to       *
 *   the use of AMS, https://www.scm.com/license-terms/                        *
 *                                                                             *
 **********************  x86_64_linux_intel / intelmpi  ************************
 
 Licensed to: VU/FEW (+ SARA) / ALGEMEEN / Amsterdam / THE NETHERLANDS
 SCM User ID: u7668
  
 AMS 2021.102  RunTime: Jan18-2022 14:32:29  ShM Nodes: 1  Procs: 16

 AMS jobname: ams
 AMS jobid  : 1462334518

 Start   directory: /scistor/tc/yhk800/master/calculations/4.TS_TS_CH2CCHO/
 Results directory: /scistor/tc/yhk800/master/calculations/4.TS_TS_CH2CCHO/ams.results/
 Scratch directory: /scratch/3122/amstmp_ams_kid0.1462334518/


 Communication costs MPI_COMM_WORLD:      1.698 usec per message,   0.0055 usec per 8-byte item
 Communication costs for intra-node:      1.847 usec per message,   0.0053 usec per 8-byte item

 RNG seed: -1226589853 -1513159848 -1169202805 739320678 1806387744 710174366 -209429912 123811071



                     *************************************************************************
                     *  ADF 2021.102  RunTime: Jan18-2022 14:32:30  ShM Nodes: 1  Procs: 16  *
                     *************************************************************************
  
       *****************************
       *  TRANSITION STATE SEARCH  *
       *****************************

Optimization Method                    Quasi Newton
Optimization Coordinates               Delocalized Coordinates
Optimize lattice                       F
 
 ------------------------------------------------------
 Convergence criteria (Hartree,Angstrom)
 ------------------------------------------------------
 Maximum gradient               0.001000000000
 Maximum rms gradient           0.000666666667
 Maximum step allowed           0.010000000000
 Maximum rms step allowed       0.006666666667
 Maximum energy change allowe   0.000120000000
 Maximum stress energy allowe   0.000500000000
 
Initial model Hessian                  Automatic Hessian
 
------------------------------------
Quasi-Newton Optimizer Parameters
------------------------------------
Hessian Update Method                  Bofill
Maximum number of steps                  250
First GDIIS cycle                          0
Maximum GDIIS vectors                      0
Trust radius (bohr)                        0.200000
Trust radius varies                        F
Constraints converged at all steps         T
Use projector                              T
 
 Rigid motions settings for: old optimizer
 Atomic rotations (x,y,z):     T T T
 Atomic translations (x,y,z):  T T T
 Tolerance:                   1.000000000000000E-006
 
           1  TSRC entries:
    i   type      a1    a2    a3    a4    coef
    1 Distance     3     2               -1.000
 
--------
Geometry
--------
Formula: C4H7O
Atoms
  Index Symbol   x (angstrom)   y (angstrom)   z (angstrom)
      1      C     0.81668000    -0.23471900     0.88197500
      2      C     0.81678400    -0.23413100    -0.47719300
      3      C    -1.53160000    -0.46998000    -1.30857600
      4      H     0.85636200    -1.16386700     1.44859300
      5      C     0.73893400     1.00063500     1.66014300
      6      H    -1.75224300    -1.42324600    -0.84366900
      7      H     0.86540100     0.70149500    -1.02879400
      8      H     0.99741300    -1.14238600    -1.04211300
      9      H    -1.29572100    -0.45322200    -2.36675600
     10      H    -1.93437200     0.42729600    -0.85485600
     11      O     0.73088900     1.05622100     2.88164900
     12      H     0.69147400     1.93590500     1.04959600
 
Total System Charge             0.00000
 
 
----------------
ADF Engine Input
----------------
 
 BASIS
 type TZ2P
 core none
 END
 SYMMETRY NOSYM
 SCF
 ITERATIONS 99
 Converge 1.0e-6
 END
 XC
 GGA OLYP
 END
 NumericalQuality VERYGOOD
 Unrestricted Yes
 SpinPolarization 1.0
 

 Title: *** (NO TITLE) ***

 Using automatic Hessian for delocalized coordinates.
 *** GOStep1 ***

 Energy gradients wrt nuclear displacements
 ==========================================

     Atom      Cartesian (a.u./angstrom)
                 X         Y         Z
 ----------------------------------------
     1 C    -0.000006  0.000003  0.000006
     2 C     0.000005  0.000004  0.000006
     3 C     0.000013 -0.000003 -0.000015
     4 H    -0.000007 -0.000001  0.000006
     5 C    -0.000018 -0.000002  0.000008
     6 H     0.000012 -0.000005 -0.000017
     7 H     0.000006  0.000006  0.000009
     8 H     0.000013  0.000005  0.000006
     9 H     0.000021 -0.000001 -0.000011
    10 H     0.000005 -0.000005 -0.000015
    11 O    -0.000028 -0.000002  0.000009
    12 H    -0.000016  0.000001  0.000008
 ----------------------------------------
 Mulliken charges used for AMS results%charges...
           Primitive Internal Coordinates (atoms in internal order)
-------------------------------------------------------------------------------
    index    type      i       j       k       l   value(A,deg)     TSRC Vect
-------------------------------------------------------------------------------
       1     bnd       1       5       0       0     1.46208392     0.00000000
       2     bnd       1       2       0       0     1.35916813     0.04485271
       3     bnd       2       8       0       0     1.08475278     0.01213676
       4     bnd       3       9       0       0     1.08428070     0.02931224
       5     bnd       1       4       0       0     1.08901177    -0.00000000
       6     bnd       5      11       0       0     1.22279656     0.00000000
       7     bnd       3       6       0       0     1.08329955     0.02667956
       8     bnd       2       7       0       0     1.08720894     0.01631958
       9     bnd       3      10       0       0     1.08313958     0.02692818
      10     bnd       5      12       0       0     1.11792221    -0.00000000
      11     bnd       2       3       0       0     2.50234487    -0.14457942
      12     bnd       1       3       0       0     3.21998143    -0.08859406
      13     bnd       2       6       0       0     2.85450501    -0.09182541
      14     bnd       2       9       0       0     2.84273224    -0.09108276
      15     bnd       2      10       0       0     2.85464085    -0.09175289
      16     bnd       3       7       0       0     2.68258186    -0.09729532
      17     bnd       3       8       0       0     2.63040664    -0.09889125
      18     ang       5       1       2       0   122.13193049     0.00521330
      19     ang       5       1       4       0   116.48149708    -0.00688959
      20     ang       5       1       3       0   112.64562536     0.00972996
      21     ang       2       1       4       0   121.37727346     0.00159088
      22     ang       2       1       3       0    47.13980479    -0.01998351
      23     ang       4       1       3       0   108.55407601     0.00762151
      24     ang       1       2       8       0   121.36128207    -0.00636256
      25     ang       1       2       7       0   120.51279539    -0.00752004
      26     ang       1       2       3       0   109.39804563     0.00718253
      27     ang       1       2       6       0    97.36189422     0.00044815
      28     ang       1       2       9       0   131.65236189     0.01919730
      29     ang       1       2      10       0    97.60393042     0.00043665
      30     ang       8       2       7       0   116.67222788     0.00525686
      31     ang       8       2       3       0    84.51010423     0.01496267
      32     ang       8       2       6       0    74.58595099     0.00893482
      33     ang       8       2       9       0    73.32443809     0.00877501
      34     ang       8       2      10       0   106.59375967     0.02633200
      35     ang       7       2       3       0    87.39281970     0.01513870
      36     ang       7       2       6       0   109.48758492     0.02646837
      37     ang       7       2       9       0    76.25016237     0.00886922
      38     ang       7       2      10       0    77.08981866     0.00882900
      39     ang       6       2       9       0    38.16371016     0.01975452
      40     ang       6       2      10       0    38.01699289     0.01937817
      41     ang       9       2      10       0    38.16203879     0.01978232
      42     ang       9       3       6       0   118.47247906    -0.00708017
      43     ang       9       3      10       0   118.48323850    -0.00712521
      44     ang       9       3       2       0    96.81291220     0.01590552
      45     ang       9       3       1       0   120.27444570     0.02870659
      46     ang       9       3       7       0    84.29830723     0.00881196
      47     ang       9       3       8       0    83.89532510     0.00873553
      48     ang       6       3      10       0   118.25885447    -0.00663932
      49     ang       6       3       2       0    97.55621160     0.01626300
      50     ang       6       3       1       0    85.46171991     0.00884041
      51     ang       6       3       7       0   121.43376470     0.02858525
      52     ang       6       3       8       0    85.83710219     0.00879915
      53     ang      10       3       2       0    97.56929804     0.01623928
      54     ang      10       3       1       0    85.73843521     0.00883548
      55     ang      10       3       7       0    85.80331135     0.00868918
      56     ang      10       3       8       0   121.79293332     0.02850752
      57     ang       1       3       7       0    41.01789145     0.02120958
      58     ang       1       3       8       0    41.28730859     0.02120176
      59     ang       7       3       8       0    40.70893466     0.02084404
      60     ang       1       5      11       0   124.78014579     0.00000000
      61     ang       1       5      12       0   114.73739868    -0.00000000
      62     ang      11       5      12       0   120.48134629    -0.00000000
      63     ang       3       6       2       0    60.34468769    -0.02759077
      64     ang       2       7       3       0    68.72451165    -0.02745917
      65     ang       2       8       3       0    71.25376299    -0.02723151
      66     ang       3       9       2       0    60.93212808    -0.02792022
      67     ang       3      10       2       0    60.33684884    -0.02760812
      68     dih       2       1       5      11   179.74813341    -0.00793864
      69     dih       2       1       5      12    -0.63506953    -0.00793864
      70     dih       4       1       5      11     0.84367616    -0.00291827
      71     dih       4       1       5      12   180.46047322    -0.00291827
      72     dih       3       1       5      11   127.21624574     0.01085692
      73     dih       3       1       5      12   -53.16695720     0.01085692
      74     dih       5       1       2       8   172.35502852    -0.01848784
      75     dih       5       1       2       7     6.57009342     0.02224664
      76     dih       5       1       2       3   267.85385074     0.00210693
      77     dih       5       1       2       6   248.75690649    -0.00766427
      78     dih       5       1       2       9   267.65479661     0.00203478
      79     dih       5       1       2      10   -72.88759900     0.01194129
      80     dih       4       1       2       8    -8.79354437    -0.02383955
      81     dih       4       1       2       7   185.42152053     0.01689493
      82     dih       4       1       2       3    86.70527785    -0.00324478
      83     dih       4       1       2       6    67.60833360    -0.01301598
      84     dih       4       1       2       9    86.50622373    -0.00331693
      85     dih       4       1       2      10   105.96382811     0.00658958
      86     dih       3       1       2       8   264.50117778    -0.02059477
      87     dih       3       1       2       7    98.71624268     0.02013971
      88     dih       3       1       2       6   -19.09694425    -0.00977119
      89     dih       3       1       2       9    -0.19905413    -0.00007215
      90     dih       3       1       2      10    19.25855026     0.00983436
      91     dih       1       2       8       3   109.40048395     0.01689490
      92     dih       7       2       8       3   -84.29422315    -0.02401242
      93     dih       6       2       8       3    20.10982480     0.00907610
      94     dih       9       2       8       3   -19.64380592    -0.00974644
      95     dih      10       2       8       3    -0.67870886    -0.00018760
      96     dih       6       3       9       2   257.55808319    -0.02645413
      97     dih      10       3       9       2   102.45974316     0.02642177
      98     dih       1       3       9       2    -0.18104675    -0.00006504
      99     dih       7       3       9       2    20.38290605     0.01021197
     100     dih       8       3       9       2   -20.55083491    -0.01008180
     101     dih       9       3       6       2   102.00948582     0.02622844
     102     dih      10       3       6       2   257.16400671    -0.02664939
     103     dih       1       3       6       2   -20.14929510    -0.01066212
     104     dih       7       3       6       2     0.52968161     0.00012746
     105     dih       8       3       6       2    21.26116023     0.01010369
     106     dih       1       2       7       3   248.95626953    -0.01639052
     107     dih       8       2       7       3    82.52763183     0.02400038
     108     dih       6       2       7       3     0.44547776     0.00004474
     109     dih       9       2       7       3    19.49721097     0.00981781
     110     dih      10       2       7       3   -19.75505464    -0.00909139
     111     dih       9       3      10       2   257.98018397    -0.02620924
     112     dih       6       3      10       2   102.82836572     0.02666301
     113     dih       1       3      10       2    20.30570963     0.01070034
     114     dih       7       3      10       2   -20.82918846    -0.01008929
     115     dih       8       3      10       2    -0.83521146    -0.00036309
     116     dih       1       2       3       9   180.39271465    -0.00017594
     117     dih       1       2       3       6   -59.59533627    -0.00045381
     118     dih       1       2       3      10    60.36685908     0.00014555
     119     dih       1       2       3       7   121.52101014    -0.00106783
     120     dih       1       2       3       8   238.63730917     0.00074999
     121     dih       8       2       3       9   -58.24459452    -0.00092593
     122     dih       8       2       3       6    61.76735456    -0.00120379
     123     dih       8       2       3      10   181.72954991    -0.00060443
     124     dih       8       2       3       1   121.36269083    -0.00074999
     125     dih       8       2       3       7   242.88370097    -0.00181782
     126     dih       7       2       3       9    58.87170451     0.00089189
     127     dih       7       2       3       6   178.88365359     0.00061403
     128     dih       7       2       3      10   -61.15415106     0.00121339
     129     dih       7       2       3       1   238.47898986     0.00106783
     130     dih       7       2       3       8   117.11629903     0.00181782
     131     dih       6       2       3       9   239.98805092     0.00027787
     132     dih       6       2       3      10   119.96219535     0.00059936
     133     dih       6       2       3       1    59.59533627     0.00045381
     134     dih       6       2       3       7   181.11634641    -0.00061403
     135     dih       6       2       3       8   -61.76735456     0.00120379
     136     dih       9       2       3       6   120.01194908    -0.00027787
     137     dih       9       2       3      10   239.97414443     0.00032149
     138     dih       9       2       3       1   179.60728535     0.00017594
     139     dih       9       2       3       7   -58.87170451    -0.00089189
     140     dih       9       2       3       8    58.24459452     0.00092593
     141     dih      10       2       3       9   120.02585557    -0.00032149
     142     dih      10       2       3       6   240.03780465    -0.00059936
     143     dih      10       2       3       1   -60.36685908    -0.00014555
     144     dih      10       2       3       7    61.15415106    -0.00121339
     145     dih      10       2       3       8   178.27045009     0.00060443
     146     dih       5       1       3       9   113.97123608    -0.00207015
     147     dih       5       1       3       6   234.46351100     0.00233963
     148     dih       5       1       3      10    -6.70885435    -0.00667621
     149     dih       5       1       3       2   113.51971531    -0.00198495
     150     dih       5       1       3       7    81.79279287    -0.00451791
     151     dih       5       1       3       8   145.60789958     0.00025116
     152     dih       2       1       3       9     0.45152078    -0.00008520
     153     dih       2       1       3       6   120.94379569     0.00432458
     154     dih       2       1       3      10   239.77143035    -0.00469126
     155     dih       2       1       3       7   -31.72692244    -0.00253296
     156     dih       2       1       3       8    32.08818428     0.00223611
     157     dih       4       1       3       9   244.48850980     0.00279223
     158     dih       4       1       3       6     4.98078471     0.00720201
     159     dih       4       1       3      10   123.80841936    -0.00181383
     160     dih       4       1       3       2   244.03698902     0.00287743
     161     dih       4       1       3       7   212.31006658     0.00034447
     162     dih       4       1       3       8   -83.87482670     0.00511354
     163     dih       1       2       6       3   124.88764731     0.00316209
     164     dih       8       2       6       3   245.46600307    -0.00366243
     165     dih       7       2       6       3    -1.18296723     0.00044303
     166     dih       9       2       6       3   -32.05539858    -0.00274583
     167     dih      10       2       6       3    31.94330304     0.00179156
     168     dih       1       2       9       3     0.49575478    -0.00009624
     169     dih       8       2       9       3   117.92511055     0.00116478
     170     dih       7       2       9       3   241.68513846    -0.00174893
     171     dih       6       2       9       3    31.81706571     0.00181320
     172     dih      10       2       9       3   -31.80538315    -0.00187248
     173     dih       1       2      10       3   235.80616395    -0.00351465
     174     dih       8       2      10       3     1.79645288    -0.00033662
     175     dih       7       2      10       3   116.14173452     0.00408059
     176     dih       6       2      10       3   -31.95136330    -0.00172445
     177     dih       9       2      10       3    32.05169900     0.00273819
     178     dih       9       3       7       2   238.67074179    -0.00368229
     179     dih       6       3       7       2    -1.29702339     0.00036670
     180     dih      10       3       7       2   119.46891254     0.00613008
     181     dih       1       3       7       2    31.14063561     0.00348323
     182     dih       8       3       7       2   -34.07024154    -0.00141802
     183     dih       9       3       8       2   121.88461938     0.00363532
     184     dih       6       3       8       2   241.12719338    -0.00624596
     185     dih      10       3       8       2     2.01724504    -0.00015866
     186     dih       1       3       8       2   -31.01318466    -0.00349065
     187     dih       7       3       8       2    33.54015372     0.00176912
Hessian eigenvector     1(     0.004) has overlap with TSRC:    0.27495E-04
Hessian eigenvector     2(     0.008) has overlap with TSRC:    0.13513E-03
Hessian eigenvector     3(     0.008) has overlap with TSRC:    0.20633E-02
Hessian eigenvector     4(     0.009) has overlap with TSRC:    0.34718E-02
Hessian eigenvector     5(     0.010) has overlap with TSRC:    0.52698E-02
Hessian eigenvector     6(     0.020) has overlap with TSRC:    0.11533E+00
Hessian eigenvector     7(     0.021) has overlap with TSRC:    0.27815E-01
Hessian eigenvector     8(     0.024) has overlap with TSRC:    0.27869E-01
Hessian eigenvector     9(     0.024) has overlap with TSRC:    0.88090E-02
Hessian eigenvector    10(     0.031) has overlap with TSRC:    0.12662E+00
Hessian eigenvector    11(     0.048) has overlap with TSRC:    0.85214E-02
Hessian eigenvector    12(     0.055) has overlap with TSRC:    0.53777E-02
Hessian eigenvector    13(     0.062) has overlap with TSRC:    0.37763E-02
Hessian eigenvector    14(     0.063) has overlap with TSRC:    0.14635E-02
Hessian eigenvector    15(     0.067) has overlap with TSRC:    0.35428E-01
Hessian eigenvector    16(     0.073) has overlap with TSRC:    0.35704E-01
Hessian eigenvector    17(     0.094) has overlap with TSRC:    0.25086E+00
Hessian eigenvector    18(     0.105) has overlap with TSRC:    0.37064E-01
Hessian eigenvector    19(     0.217) has overlap with TSRC:    0.50617E-08
Hessian eigenvector    20(     0.245) has overlap with TSRC:    0.25630E-08
Hessian eigenvector    21(     0.361) has overlap with TSRC:    0.55290E-03
Hessian eigenvector    22(     0.364) has overlap with TSRC:    0.11213E-01
Hessian eigenvector    23(     0.374) has overlap with TSRC:    0.23709E-01
Hessian eigenvector    24(     0.379) has overlap with TSRC:    0.45595E-02
Hessian eigenvector    25(     0.381) has overlap with TSRC:    0.31351E-01
Hessian eigenvector    26(     0.420) has overlap with TSRC:    0.50824E-01
Hessian eigenvector    27(     0.487) has overlap with TSRC:    0.27545E-14
Hessian eigenvector    28(     0.500) has overlap with TSRC:    0.10978E-14
Hessian eigenvector    29(     0.526) has overlap with TSRC:    0.96928E-15
Hessian eigenvector    30(     0.601) has overlap with TSRC:    0.99242E-15
Hessian eigenvector    17 has the largest overlap with TSRC:  0.25086
           Primitive Internal Coordinates (atoms in internal order)
-------------------------------------------------------------------------------
    index    type      i       j       k       l   value(A,deg)     Max Ovl Vect
-------------------------------------------------------------------------------
       1     bnd       1       5       0       0     1.46208392    -0.00000000
       2     bnd       1       2       0       0     1.35916813    -0.04703977
       3     bnd       2       8       0       0     1.08475278    -0.01310125
       4     bnd       3       9       0       0     1.08428070    -0.00678970
       5     bnd       1       4       0       0     1.08901177     0.00000000
       6     bnd       5      11       0       0     1.22279656     0.00000000
       7     bnd       3       6       0       0     1.08329955    -0.00908953
       8     bnd       2       7       0       0     1.08720894    -0.01262861
       9     bnd       3      10       0       0     1.08313958    -0.00942798
      10     bnd       5      12       0       0     1.11792221     0.00000000
      11     bnd       2       3       0       0     2.50234487     0.35477042
      12     bnd       1       3       0       0     3.21998143     0.43137155
      13     bnd       2       6       0       0     2.85450501     0.32217987
      14     bnd       2       9       0       0     2.84273224     0.33795918
      15     bnd       2      10       0       0     2.85464085     0.32394831
      16     bnd       3       7       0       0     2.68258186     0.31497413
      17     bnd       3       8       0       0     2.63040664     0.31772999
      18     ang       5       1       2       0   122.13193049    -0.05319227
      19     ang       5       1       4       0   116.48149708     0.13146343
      20     ang       5       1       3       0   112.64562536    -0.03640602
      21     ang       2       1       4       0   121.37727346    -0.07902893
      22     ang       2       1       3       0    47.13980479    -0.02334630
      23     ang       4       1       3       0   108.55407601    -0.05678427
      24     ang       1       2       8       0   121.36128207    -0.00774939
      25     ang       1       2       7       0   120.51279539    -0.01577894
      26     ang       1       2       3       0   109.39804563     0.07326078
      27     ang       1       2       6       0    97.36189422     0.08524595
      28     ang       1       2       9       0   131.65236189     0.04581651
      29     ang       1       2      10       0    97.60393042     0.08370635
      30     ang       8       2       7       0   116.67222788     0.00657491
      31     ang       8       2       3       0    84.51010423    -0.00080418
      32     ang       8       2       6       0    74.58595099     0.00839950
      33     ang       8       2       9       0    73.32443809     0.01325123
      34     ang       8       2      10       0   106.59375967    -0.02701456
      35     ang       7       2       3       0    87.39281970    -0.00252664
      36     ang       7       2       6       0   109.48758492    -0.02849627
      37     ang       7       2       9       0    76.25016237     0.01184237
      38     ang       7       2      10       0    77.08981866     0.00738329
      39     ang       6       2       9       0    38.16371016    -0.04562580
      40     ang       6       2      10       0    38.01699289    -0.04371288
      41     ang       9       2      10       0    38.16203879    -0.04591854
      42     ang       9       3       6       0   118.47247906    -0.00261998
      43     ang       9       3      10       0   118.48323850    -0.00321866
      44     ang       9       3       2       0    96.81291220     0.00721150
      45     ang       9       3       1       0   120.27444570    -0.04269399
      46     ang       9       3       7       0    84.29830723     0.02375381
      47     ang       9       3       8       0    83.89532510     0.02469009
      48     ang       6       3      10       0   118.25885447     0.00323600
      49     ang       6       3       2       0    97.55621160    -0.00114100
      50     ang       6       3       1       0    85.46171991     0.02586711
      51     ang       6       3       7       0   121.43376470    -0.03139614
      52     ang       6       3       8       0    85.83710219     0.01251645
      53     ang      10       3       2       0    97.56929804    -0.00005906
      54     ang      10       3       1       0    85.73843521     0.02484911
      55     ang      10       3       7       0    85.80331135     0.01296225
      56     ang      10       3       8       0   121.79293332    -0.03170183
      57     ang       1       3       7       0    41.01789145    -0.06962931
      58     ang       1       3       8       0    41.28730859    -0.06967102
      59     ang       7       3       8       0    40.70893466    -0.04989765
      60     ang       1       5      11       0   124.78014579     0.00000025
      61     ang       1       5      12       0   114.73739868     0.00000036
      62     ang      11       5      12       0   120.48134629     0.00000028
      63     ang       3       6       2       0    60.34468769     0.02713383
      64     ang       2       7       3       0    68.72451165     0.03281033
      65     ang       2       8       3       0    71.25376299     0.03249137
      66     ang       3       9       2       0    60.93212808     0.02024116
      67     ang       3      10       2       0    60.33684884     0.02630262
      68     dih       2       1       5      11   179.74813341    -0.03157687
      69     dih       2       1       5      12    -0.63506953    -0.03142299
      70     dih       4       1       5      11     0.84367616     0.01382783
      71     dih       4       1       5      12   180.46047322     0.01398172
      72     dih       3       1       5      11   127.21624574     0.01553390
      73     dih       3       1       5      12   -53.16695720     0.01568779
      74     dih       5       1       2       8   172.35502852    -0.02326142
      75     dih       5       1       2       7     6.57009342     0.05733085
      76     dih       5       1       2       3   267.85385074     0.01988457
      77     dih       5       1       2       6   248.75690649     0.03747782
      78     dih       5       1       2       9   267.65479661     0.02118323
      79     dih       5       1       2      10   -72.88759900     0.00107121
      80     dih       4       1       2       8    -8.79354437    -0.06858518
      81     dih       4       1       2       7   185.42152053     0.01200709
      82     dih       4       1       2       3    86.70527785    -0.02543919
      83     dih       4       1       2       6    67.60833360    -0.00784594
      84     dih       4       1       2       9    86.50622373    -0.02414053
      85     dih       4       1       2      10   105.96382811    -0.04425255
      86     dih       3       1       2       8   264.50117778    -0.04314599
      87     dih       3       1       2       7    98.71624268     0.03744629
      88     dih       3       1       2       6   -19.09694425     0.01759326
      89     dih       3       1       2       9    -0.19905413     0.00129867
      90     dih       3       1       2      10    19.25855026    -0.01881336
      91     dih       1       2       8       3   109.40048395     0.08482580
      92     dih       7       2       8       3   -84.29422315     0.00423052
      93     dih       6       2       8       3    20.10982480    -0.02522786
      94     dih       9       2       8       3   -19.64380592     0.02460253
      95     dih      10       2       8       3    -0.67870886     0.00153411
      96     dih       6       3       9       2   257.55808319    -0.00223411
      97     dih      10       3       9       2   102.45974316     0.00334915
      98     dih       1       3       9       2    -0.18104675     0.00154012
      99     dih       7       3       9       2    20.38290605    -0.02548427
     100     dih       8       3       9       2   -20.55083491     0.02657947
     101     dih       9       3       6       2   102.00948582     0.00707864
     102     dih      10       3       6       2   257.16400671    -0.00010431
     103     dih       1       3       6       2   -20.14929510     0.04214846
     104     dih       7       3       6       2     0.52968161    -0.00188346
     105     dih       8       3       6       2    21.26116023    -0.02874300
     106     dih       1       2       7       3   248.95626953    -0.08167148
     107     dih       8       2       7       3    82.52763183    -0.00293478
     108     dih       6       2       7       3     0.44547776    -0.00147919
     109     dih       9       2       7       3    19.49721097    -0.02400753
     110     dih      10       2       7       3   -19.75505464     0.02488135
     111     dih       9       3      10       2   257.98018397    -0.00755895
     112     dih       6       3      10       2   102.82836572    -0.00052583
     113     dih       1       3      10       2    20.30570963    -0.04337680
     114     dih       7       3      10       2   -20.82918846     0.02750054
     115     dih       8       3      10       2    -0.83521146     0.00214067
     116     dih       1       2       3       9   180.39271465    -0.00238168
     117     dih       1       2       3       6   -59.59533627    -0.00372620
     118     dih       1       2       3      10    60.36685908    -0.00065402
     119     dih       1       2       3       7   121.52101014    -0.00598943
     120     dih       1       2       3       8   238.63730917     0.00106112
     121     dih       8       2       3       9   -58.24459452    -0.00344280
     122     dih       8       2       3       6    61.76735456    -0.00478733
     123     dih       8       2       3      10   181.72954991    -0.00171514
     124     dih       8       2       3       1   121.36269083    -0.00106112
     125     dih       8       2       3       7   242.88370097    -0.00705056
     126     dih       7       2       3       9    58.87170451     0.00360776
     127     dih       7       2       3       6   178.88365359     0.00226323
     128     dih       7       2       3      10   -61.15415106     0.00533541
     129     dih       7       2       3       1   238.47898986     0.00598943
     130     dih       7       2       3       8   117.11629903     0.00705056
     131     dih       6       2       3       9   239.98805092     0.00134453
     132     dih       6       2       3      10   119.96219535     0.00307218
     133     dih       6       2       3       1    59.59533627     0.00372620
     134     dih       6       2       3       7   181.11634641    -0.00226323
     135     dih       6       2       3       8   -61.76735456     0.00478733
     136     dih       9       2       3       6   120.01194908    -0.00134453
     137     dih       9       2       3      10   239.97414443     0.00172766
     138     dih       9       2       3       1   179.60728535     0.00238168
     139     dih       9       2       3       7   -58.87170451    -0.00360776
     140     dih       9       2       3       8    58.24459452     0.00344280
     141     dih      10       2       3       9   120.02585557    -0.00172766
     142     dih      10       2       3       6   240.03780465    -0.00307218
     143     dih      10       2       3       1   -60.36685908     0.00065402
     144     dih      10       2       3       7    61.15415106    -0.00533541
     145     dih      10       2       3       8   178.27045009     0.00171514
     146     dih       5       1       3       9   113.97123608    -0.04651831
     147     dih       5       1       3       6   234.46351100    -0.04405172
     148     dih       5       1       3      10    -6.70885435    -0.04737961
     149     dih       5       1       3       2   113.51971531    -0.04357678
     150     dih       5       1       3       7    81.79279287    -0.05305309
     151     dih       5       1       3       8   145.60789958    -0.03755835
     152     dih       2       1       3       9     0.45152078    -0.00294153
     153     dih       2       1       3       6   120.94379569    -0.00047494
     154     dih       2       1       3      10   239.77143035    -0.00380283
     155     dih       2       1       3       7   -31.72692244    -0.00947631
     156     dih       2       1       3       8    32.08818428     0.00601843
     157     dih       4       1       3       9   244.48850980     0.05388884
     158     dih       4       1       3       6     4.98078471     0.05635543
     159     dih       4       1       3      10   123.80841936     0.05302754
     160     dih       4       1       3       2   244.03698902     0.05683037
     161     dih       4       1       3       7   212.31006658     0.04735407
     162     dih       4       1       3       8   -83.87482670     0.06284880
     163     dih       1       2       6       3   124.88764731     0.01806418
     164     dih       8       2       6       3   245.46600307    -0.01087445
     165     dih       7       2       6       3    -1.18296723     0.00260894
     166     dih       9       2       6       3   -32.05539858     0.00516899
     167     dih      10       2       6       3    31.94330304    -0.00654997
     168     dih       1       2       9       3     0.49575478    -0.00287719
     169     dih       8       2       9       3   117.92511055     0.00361443
     170     dih       7       2       9       3   241.68513846    -0.00154805
     171     dih       6       2       9       3    31.81706571    -0.00321584
     172     dih      10       2       9       3   -31.80538315     0.00323710
     173     dih       1       2      10       3   235.80616395    -0.02206776
     174     dih       8       2      10       3     1.79645288    -0.00203644
     175     dih       7       2      10       3   116.14173452     0.00967029
     176     dih       6       2      10       3   -31.95136330     0.00615630
     177     dih       9       2      10       3    32.05169900    -0.00479391
     178     dih       9       3       7       2   238.67074179    -0.00173228
     179     dih       6       3       7       2    -1.29702339     0.00306069
     180     dih      10       3       7       2   119.46891254     0.00687014
     181     dih       1       3       7       2    31.14063561    -0.01890013
     182     dih       8       3       7       2   -34.07024154     0.01082467
     183     dih       9       3       8       2   121.88461938     0.00220440
     184     dih       6       3       8       2   241.12719338    -0.00603924
     185     dih      10       3       8       2     2.01724504    -0.00269252
     186     dih       1       3       8       2   -31.01318466     0.02105075
     187     dih       7       3       8       2    33.54015372    -0.00928866
 
---------------------------------------------------------
Geometry Convergence after Step   1       ** CONVERGED **
---------------------------------------------------------
current energy                               -2.32806329 Hartree
energy change                      -2.32806329     0.00012000    F
constrained gradient max            0.00000221     0.00100000    T
constrained gradient rms            0.00000068     0.00066667    T
gradient max                        0.00000221
gradient rms                        0.00000068
cart. step max                      0.00000425     0.01000000    T
cart. step rms                      0.00000155     0.00666667    T
 
Geometry optimization converged

Optimized geometry:
 
--------
Geometry
--------
Formula: C4H7O
Atoms
  Index Symbol   x (angstrom)   y (angstrom)   z (angstrom)
      1      C     0.81668000    -0.23471900     0.88197500
      2      C     0.81678400    -0.23413100    -0.47719300
      3      C    -1.53160000    -0.46998000    -1.30857600
      4      H     0.85636200    -1.16386700     1.44859300
      5      C     0.73893400     1.00063500     1.66014300
      6      H    -1.75224300    -1.42324600    -0.84366900
      7      H     0.86540100     0.70149500    -1.02879400
      8      H     0.99741300    -1.14238600    -1.04211300
      9      H    -1.29572100    -0.45322200    -2.36675600
     10      H    -1.93437200     0.42729600    -0.85485600
     11      O     0.73088900     1.05622100     2.88164900
     12      H     0.69147400     1.93590500     1.04959600
 
Total System Charge             0.00000
 
Performing a single point calculation on the final geometry ...

 *** adf ***



 ===========================
 A T T A C H E D   F I L E S
 ===========================
  
 Restart/scratch/3122/amstmp_ams_kid0.1462334518/GOStep1.rkf*** GOStep1 ***



 ===============================
 M O D E L   P A R A M E T E R S
 ===============================
  
 DENSITY FUNCTIONAL POTENTIAL (scf)
    LDA:                               Exchange only                           == Not Default ==
    Gradient Corrections:              OPTX LYP                                == Not Default ==

 SPIN  (restricted / unrestr.)
    Molecule:                          UNrestricted                            == Not Default ==
    Fragments:                         Restricted                               

 OTHER ASPECTS
    Relativistic Corrections:          scalar (ZORA,MAPA)                       

    Nuclear Charge Density Model:      Point Charge Nuclei                      
    Core Treatment:                    Frozen Orbital(s)                        

    Hyperfine or Zeeman Interaction:   ---                                      



 ===============
 G E O M E T R Y  ***  3D  Molecule  ***
 ===============
  

 ATOMS
 =====                            X Y Z                    CHARGE
                                (Angstrom)             Nucl     +Core       At.Mass
                       --------------------------    ----------------       -------
    1  C               0.8167   -0.2347    0.8820      6.00      6.00       12.0000
    2  C               0.8168   -0.2341   -0.4772      6.00      6.00       12.0000
    3  C              -1.5316   -0.4700   -1.3086      6.00      6.00       12.0000
    4  H               0.8564   -1.1639    1.4486      1.00      1.00        1.0078
    5  C               0.7389    1.0006    1.6601      6.00      6.00       12.0000
    6  H              -1.7522   -1.4232   -0.8437      1.00      1.00        1.0078
    7  H               0.8654    0.7015   -1.0288      1.00      1.00        1.0078
    8  H               0.9974   -1.1424   -1.0421      1.00      1.00        1.0078
    9  H              -1.2957   -0.4532   -2.3668      1.00      1.00        1.0078
   10  H              -1.9344    0.4273   -0.8549      1.00      1.00        1.0078
   11  O               0.7309    1.0562    2.8816      8.00      8.00       15.9949
   12  H               0.6915    1.9359    1.0496      1.00      1.00        1.0078


 FRAGMENTS
 =========                                     Atoms in this Fragment     Cart. coord.s (Angstrom)
                                               -------------------------------------------------------
    1  C                                                 1  C            0.8167   -0.2347    0.8820
    2  C                                                 2  C            0.8168   -0.2341   -0.4772
    3  C                                                 3  C           -1.5316   -0.4700   -1.3086
    4  C                                                 5  C            0.7389    1.0006    1.6601
    5  H                                                 4  H            0.8564   -1.1639    1.4486
    6  H                                                 6  H           -1.7522   -1.4232   -0.8437
    7  H                                                 7  H            0.8654    0.7015   -1.0288
    8  H                                                 8  H            0.9974   -1.1424   -1.0421
    9  H                                                 9  H           -1.2957   -0.4532   -2.3668
   10  H                                                10  H           -1.9344    0.4273   -0.8549
   11  H                                                12  H            0.6915    1.9359    1.0496
   12  O                                                11  O            0.7309    1.0562    2.8816


 Interatomic Distance Matrix (Angstrom)
 --------------------------------------

   1)     0.000
   2)     1.359   0.000
   3)     3.220   2.502   0.000
   4)     1.089   2.139   3.713   0.000
   5)     1.462   2.470   4.016   2.178   0.000
   6)     3.315   2.855   1.083   3.482   4.284   0.000
   7)     2.128   1.087   2.683   3.101   2.708   3.377   0.000
   8)     2.135   1.085   2.630   2.495   3.459   2.771   1.849   0.000
   9)     3.881   2.843   1.084   4.438   4.740   1.863   2.792   2.736   0.000
  10)     3.320   2.855   1.083   3.953   3.715   1.860   2.819   3.331   1.863   0.000
  11)     2.382   3.599   5.001   2.645   1.223   5.118   3.929   4.506   5.825   4.633
          0.000
  12)     2.181   2.656   4.036   3.130   1.118   4.565   2.424   3.734   4.618   3.577
          2.033   0.000

 Min. Distance =    1.0831
 Max. Distance =    5.8251



 =====================================
 S Y M M E T R Y ,   E L E C T R O N S
 =====================================
  
 Symmetry: NOSYM

 Irreducible Representations, including subspecies
 -------------------------------------------------
 A


 Configuration of Valence Electrons
 ==================================
 ( determined in the SCF procedure )

 Total:   20 (Spin-A)  + 19 (Spin-B)

 Net Charge: 0 (Nuclei minus Electrons)
 Spin polar: 1 (Spin_A minus Spin_B electrons)

 Aufbau principle for MO occupations will be applied through SCF cycle no.      49
 Thereafter, the program will assign electrons to MOs that are spatially
 similar to the occupied MOs in a "reference" cycle ("KeepOrbitals").
 The reference cycle is always the PREVIOUS cycle: it will evolve with
 the SCF procedure.
1
 ***************************************************************************************************



                                      ****************************************
                                      *  B U I L D : (Fragments, Functions)  *
                                      ****************************************
  



 =======
 S F O s  ***  (Symmetrized Fragment Orbitals)  ***
 =======
  
 SFOs are linear combinations of (valence) Fragment Orbitals (FOs), such that the SFOs transform as the
 irreducible representations of the (molecular) symmetry group. Each SFO is therefore characterized by
 an irrep of the molecule and by a few (or only one) generating FOs.
 The SFOs constitute a symmetry-adapted basis for the Fock matrix. The MO eigenvector coefficients in
 this basis provide a direct interpretation of the MOs in terms of Frontier Orbital Theory.

 The SFOs are combined with auxiliary Core Functions (CFs) to ensure orthogonalization on the (frozen)
 Core Orbitals (COs). The Core-orthogonalized SFOs (CSFOs) constitute the true Fock basis.

 The FOs, and hence also the (C)SFOs are combinations of the elementary basis functions (BAS). The basis
 functions that participate in the description of the SFOs depend on the irrep. The indices of the
 involved functions are printed below for each irrep.
 (The complete list of primitive basis functions is printed in another section)

 Total nr. of (C)SFOs (summation over all irreps) :   207

 NOTE: a (C)SFO that is defined as a combination of more than one FO is usually NOT normalized.



                                       === A ===
 Nr. of SFOs :  207
 Cartesian basis functions that participate in this irrep (total number =   234) :
      1     2     3     4     5     6     9    12     7    10
     13     8    11    14    15    16    17    18    19    20
     21    22    23    24    25    26    27    28    29    30
     31    32    33    34    35    36    39    42    37    40
     43    38    41    44    45    46    47    48    49    50
     51    52    53    54    55    56    57    58    59    60
     61    62    63    64    65    66    69    72    67    70
     73    68    71    74    75    76    77    78    79    80
     81    82    83    84    85    86    87    88    89    90
     91    92    93    94    95    96    99   102    97   100
    103    98   101   104   105   106   107   108   109   110
    111   112   113   114   115   116   117   118   119   120
    121   122   123   124   125   126   127   128   129   130
    131   132   133   134   135   136   137   138   139   140
    141   142   143   144   145   146   147   148   149   150
    151   152   153   154   155   156   157   158   159   160
    161   162   163   164   165   166   167   168   169   170
    171   172   173   174   175   176   177   178   179   180
    181   182   183   184   185   186   187   188   189   190
    191   192   193   194   195   196   197   198   199   200
    201   202   203   204   205   206   207   208   209   210
    213   216   211   214   217   212   215   218   219   220
    221   222   223   224   225   226   227   228   229   230
    231   232   233   234

    SFO  (index         Fragment          Generating    Expansion in Fragment Orbitals
  indx  incl.CFs)   Occup   Orb.Energy   FragmentType  Coeff.   Orbital     on Fragment
 --------------------------------------------------------------------------------------
     1       1      2.000     -10.064 au  C             1.00      1 S               1
                        (    -273.865 eV)
     2       2      2.000      -0.507 au  C             1.00      2 S               1
                        (     -13.802 eV)
     3       3       --         0.384 au  C             1.00      3 S               1
                        (      10.456 eV)
     4       4       --         5.458 au  C             1.00      4 S               1
                        (     148.511 eV)
     5       5       --        49.970 au  C             1.00      5 S               1
                        (    1359.766 eV)
     6       6      0.667      -0.189 au  C             1.00      1 P:x             1
                        (      -5.135 eV)
     7       7       --         0.168 au  C             1.00      2 P:x             1
                        (       4.559 eV)
     8       8       --         2.056 au  C             1.00      3 P:x             1
                        (      55.959 eV)
     9       9      0.667      -0.189 au  C             1.00      1 P:y             1
                        (      -5.135 eV)
    10      10       --         0.168 au  C             1.00      2 P:y             1
                        (       4.559 eV)
    11      11       --         2.056 au  C             1.00      3 P:y             1
                        (      55.959 eV)
    12      12      0.667      -0.189 au  C             1.00      1 P:z             1
                        (      -5.135 eV)
    13      13       --         0.168 au  C             1.00      2 P:z             1
                        (       4.559 eV)
    14      14       --         2.056 au  C             1.00      3 P:z             1
                        (      55.959 eV)
    15      15       --         1.235 au  C             1.00      1 D:z2            1
                        (      33.605 eV)
    16      16       --         1.235 au  C             1.00      1 D:x2-y2         1
                        (      33.605 eV)
    17      17       --         1.235 au  C             1.00      1 D:xy            1
                        (      33.605 eV)
    18      18       --         1.235 au  C             1.00      1 D:xz            1
                        (      33.605 eV)
    19      19       --         1.235 au  C             1.00      1 D:yz            1
                        (      33.605 eV)
    20      20       --         4.005 au  C             1.00      1 F:z3            1
                        (     108.969 eV)
    21      21       --         4.005 au  C             1.00      1 F:z             1
                        (     108.969 eV)
    22      22       --         4.005 au  C             1.00      1 F:xyz           1
                        (     108.969 eV)
    23      23       --         4.005 au  C             1.00      1 F:z2x           1
                        (     108.969 eV)
    24      24       --         4.005 au  C             1.00      1 F:z2y           1
                        (     108.969 eV)
    25      25       --         4.005 au  C             1.00      1 F:x             1
                        (     108.969 eV)
    26      26       --         4.005 au  C             1.00      1 F:y             1
                        (     108.969 eV)
    27      27      2.000     -10.064 au  C             1.00      1 S               2
                        (    -273.865 eV)
    28      28      2.000      -0.507 au  C             1.00      2 S               2
                        (     -13.802 eV)
    29      29       --         0.384 au  C             1.00      3 S               2
                        (      10.456 eV)
    30      30       --         5.458 au  C             1.00      4 S               2
                        (     148.511 eV)
    31      31       --        49.970 au  C             1.00      5 S               2
                        (    1359.766 eV)
    32      32      0.667      -0.189 au  C             1.00      1 P:x             2
                        (      -5.135 eV)
    33      33       --         0.168 au  C             1.00      2 P:x             2
                        (       4.559 eV)
    34      34       --         2.056 au  C             1.00      3 P:x             2
                        (      55.959 eV)
    35      35      0.667      -0.189 au  C             1.00      1 P:y             2
                        (      -5.135 eV)
    36      36       --         0.168 au  C             1.00      2 P:y             2
                        (       4.559 eV)
    37      37       --         2.056 au  C             1.00      3 P:y             2
                        (      55.959 eV)
    38      38      0.667      -0.189 au  C             1.00      1 P:z             2
                        (      -5.135 eV)
    39      39       --         0.168 au  C             1.00      2 P:z             2
                        (       4.559 eV)
    40      40       --         2.056 au  C             1.00      3 P:z             2
                        (      55.959 eV)
    41      41       --         1.235 au  C             1.00      1 D:z2            2
                        (      33.605 eV)
    42      42       --         1.235 au  C             1.00      1 D:x2-y2         2
                        (      33.605 eV)
    43      43       --         1.235 au  C             1.00      1 D:xy            2
                        (      33.605 eV)
    44      44       --         1.235 au  C             1.00      1 D:xz            2
                        (      33.605 eV)
    45      45       --         1.235 au  C             1.00      1 D:yz            2
                        (      33.605 eV)
    46      46       --         4.005 au  C             1.00      1 F:z3            2
                        (     108.969 eV)
    47      47       --         4.005 au  C             1.00      1 F:z             2
                        (     108.969 eV)
    48      48       --         4.005 au  C             1.00      1 F:xyz           2
                        (     108.969 eV)
    49      49       --         4.005 au  C             1.00      1 F:z2x           2
                        (     108.969 eV)
    50      50       --         4.005 au  C             1.00      1 F:z2y           2
                        (     108.969 eV)
    51      51       --         4.005 au  C             1.00      1 F:x             2
                        (     108.969 eV)
    52      52       --         4.005 au  C             1.00      1 F:y             2
                        (     108.969 eV)
    53      53      2.000     -10.064 au  C             1.00      1 S               3
                        (    -273.865 eV)
    54      54      2.000      -0.507 au  C             1.00      2 S               3
                        (     -13.802 eV)
    55      55       --         0.384 au  C             1.00      3 S               3
                        (      10.456 eV)
    56      56       --         5.458 au  C             1.00      4 S               3
                        (     148.511 eV)
    57      57       --        49.970 au  C             1.00      5 S               3
                        (    1359.766 eV)
    58      58      0.667      -0.189 au  C             1.00      1 P:x             3
                        (      -5.135 eV)
    59      59       --         0.168 au  C             1.00      2 P:x             3
                        (       4.559 eV)
    60      60       --         2.056 au  C             1.00      3 P:x             3
                        (      55.959 eV)
    61      61      0.667      -0.189 au  C             1.00      1 P:y             3
                        (      -5.135 eV)
    62      62       --         0.168 au  C             1.00      2 P:y             3
                        (       4.559 eV)
    63      63       --         2.056 au  C             1.00      3 P:y             3
                        (      55.959 eV)
    64      64      0.667      -0.189 au  C             1.00      1 P:z             3
                        (      -5.135 eV)
    65      65       --         0.168 au  C             1.00      2 P:z             3
                        (       4.559 eV)
    66      66       --         2.056 au  C             1.00      3 P:z             3
                        (      55.959 eV)
    67      67       --         1.235 au  C             1.00      1 D:z2            3
                        (      33.605 eV)
    68      68       --         1.235 au  C             1.00      1 D:x2-y2         3
                        (      33.605 eV)
    69      69       --         1.235 au  C             1.00      1 D:xy            3
                        (      33.605 eV)
    70      70       --         1.235 au  C             1.00      1 D:xz            3
                        (      33.605 eV)
    71      71       --         1.235 au  C             1.00      1 D:yz            3
                        (      33.605 eV)
    72      72       --         4.005 au  C             1.00      1 F:z3            3
                        (     108.969 eV)
    73      73       --         4.005 au  C             1.00      1 F:z             3
                        (     108.969 eV)
    74      74       --         4.005 au  C             1.00      1 F:xyz           3
                        (     108.969 eV)
    75      75       --         4.005 au  C             1.00      1 F:z2x           3
                        (     108.969 eV)
    76      76       --         4.005 au  C             1.00      1 F:z2y           3
                        (     108.969 eV)
    77      77       --         4.005 au  C             1.00      1 F:x             3
                        (     108.969 eV)
    78      78       --         4.005 au  C             1.00      1 F:y             3
                        (     108.969 eV)
    79      79      2.000     -10.064 au  C             1.00      1 S               4
                        (    -273.865 eV)
    80      80      2.000      -0.507 au  C             1.00      2 S               4
                        (     -13.802 eV)
    81      81       --         0.384 au  C             1.00      3 S               4
                        (      10.456 eV)
    82      82       --         5.458 au  C             1.00      4 S               4
                        (     148.511 eV)
    83      83       --        49.970 au  C             1.00      5 S               4
                        (    1359.766 eV)
    84      84      0.667      -0.189 au  C             1.00      1 P:x             4
                        (      -5.135 eV)
    85      85       --         0.168 au  C             1.00      2 P:x             4
                        (       4.559 eV)
    86      86       --         2.056 au  C             1.00      3 P:x             4
                        (      55.959 eV)
    87      87      0.667      -0.189 au  C             1.00      1 P:y             4
                        (      -5.135 eV)
    88      88       --         0.168 au  C             1.00      2 P:y             4
                        (       4.559 eV)
    89      89       --         2.056 au  C             1.00      3 P:y             4
                        (      55.959 eV)
    90      90      0.667      -0.189 au  C             1.00      1 P:z             4
                        (      -5.135 eV)
    91      91       --         0.168 au  C             1.00      2 P:z             4
                        (       4.559 eV)
    92      92       --         2.056 au  C             1.00      3 P:z             4
                        (      55.959 eV)
    93      93       --         1.235 au  C             1.00      1 D:z2            4
                        (      33.605 eV)
    94      94       --         1.235 au  C             1.00      1 D:x2-y2         4
                        (      33.605 eV)
    95      95       --         1.235 au  C             1.00      1 D:xy            4
                        (      33.605 eV)
    96      96       --         1.235 au  C             1.00      1 D:xz            4
                        (      33.605 eV)
    97      97       --         1.235 au  C             1.00      1 D:yz            4
                        (      33.605 eV)
    98      98       --         4.005 au  C             1.00      1 F:z3            4
                        (     108.969 eV)
    99      99       --         4.005 au  C             1.00      1 F:z             4
                        (     108.969 eV)
   100     100       --         4.005 au  C             1.00      1 F:xyz           4
                        (     108.969 eV)
   101     101       --         4.005 au  C             1.00      1 F:z2x           4
                        (     108.969 eV)
   102     102       --         4.005 au  C             1.00      1 F:z2y           4
                        (     108.969 eV)
   103     103       --         4.005 au  C             1.00      1 F:x             4
                        (     108.969 eV)
   104     104       --         4.005 au  C             1.00      1 F:y             4
                        (     108.969 eV)
   105     105      1.000      -0.238 au  H             1.00      1 S               5
                        (      -6.484 eV)
   106     106       --         0.077 au  H             1.00      2 S               5
                        (       2.096 eV)
   107     107       --         1.521 au  H             1.00      3 S               5
                        (      41.380 eV)
   108     108       --         0.410 au  H             1.00      1 P:x             5
                        (      11.162 eV)
   109     109       --         0.410 au  H             1.00      1 P:y             5
                        (      11.162 eV)
   110     110       --         0.410 au  H             1.00      1 P:z             5
                        (      11.162 eV)
   111     111       --         2.567 au  H             1.00      1 D:z2            5
                        (      69.838 eV)
   112     112       --         2.567 au  H             1.00      1 D:x2-y2         5
                        (      69.838 eV)
   113     113       --         2.567 au  H             1.00      1 D:xy            5
                        (      69.838 eV)
   114     114       --         2.567 au  H             1.00      1 D:xz            5
                        (      69.838 eV)
   115     115       --         2.567 au  H             1.00      1 D:yz            5
                        (      69.838 eV)
   116     116      1.000      -0.238 au  H             1.00      1 S               6
                        (      -6.484 eV)
   117     117       --         0.077 au  H             1.00      2 S               6
                        (       2.096 eV)
   118     118       --         1.521 au  H             1.00      3 S               6
                        (      41.380 eV)
   119     119       --         0.410 au  H             1.00      1 P:x             6
                        (      11.162 eV)
   120     120       --         0.410 au  H             1.00      1 P:y             6
                        (      11.162 eV)
   121     121       --         0.410 au  H             1.00      1 P:z             6
                        (      11.162 eV)
   122     122       --         2.567 au  H             1.00      1 D:z2            6
                        (      69.838 eV)
   123     123       --         2.567 au  H             1.00      1 D:x2-y2         6
                        (      69.838 eV)
   124     124       --         2.567 au  H             1.00      1 D:xy            6
                        (      69.838 eV)
   125     125       --         2.567 au  H             1.00      1 D:xz            6
                        (      69.838 eV)
   126     126       --         2.567 au  H             1.00      1 D:yz            6
                        (      69.838 eV)
   127     127      1.000      -0.238 au  H             1.00      1 S               7
                        (      -6.484 eV)
   128     128       --         0.077 au  H             1.00      2 S               7
                        (       2.096 eV)
   129     129       --         1.521 au  H             1.00      3 S               7
                        (      41.380 eV)
   130     130       --         0.410 au  H             1.00      1 P:x             7
                        (      11.162 eV)
   131     131       --         0.410 au  H             1.00      1 P:y             7
                        (      11.162 eV)
   132     132       --         0.410 au  H             1.00      1 P:z             7
                        (      11.162 eV)
   133     133       --         2.567 au  H             1.00      1 D:z2            7
                        (      69.838 eV)
   134     134       --         2.567 au  H             1.00      1 D:x2-y2         7
                        (      69.838 eV)
   135     135       --         2.567 au  H             1.00      1 D:xy            7
                        (      69.838 eV)
   136     136       --         2.567 au  H             1.00      1 D:xz            7
                        (      69.838 eV)
   137     137       --         2.567 au  H             1.00      1 D:yz            7
                        (      69.838 eV)
   138     138      1.000      -0.238 au  H             1.00      1 S               8
                        (      -6.484 eV)
   139     139       --         0.077 au  H             1.00      2 S               8
                        (       2.096 eV)
   140     140       --         1.521 au  H             1.00      3 S               8
                        (      41.380 eV)
   141     141       --         0.410 au  H             1.00      1 P:x             8
                        (      11.162 eV)
   142     142       --         0.410 au  H             1.00      1 P:y             8
                        (      11.162 eV)
   143     143       --         0.410 au  H             1.00      1 P:z             8
                        (      11.162 eV)
   144     144       --         2.567 au  H             1.00      1 D:z2            8
                        (      69.838 eV)
   145     145       --         2.567 au  H             1.00      1 D:x2-y2         8
                        (      69.838 eV)
   146     146       --         2.567 au  H             1.00      1 D:xy            8
                        (      69.838 eV)
   147     147       --         2.567 au  H             1.00      1 D:xz            8
                        (      69.838 eV)
   148     148       --         2.567 au  H             1.00      1 D:yz            8
                        (      69.838 eV)
   149     149      1.000      -0.238 au  H             1.00      1 S               9
                        (      -6.484 eV)
   150     150       --         0.077 au  H             1.00      2 S               9
                        (       2.096 eV)
   151     151       --         1.521 au  H             1.00      3 S               9
                        (      41.380 eV)
   152     152       --         0.410 au  H             1.00      1 P:x             9
                        (      11.162 eV)
   153     153       --         0.410 au  H             1.00      1 P:y             9
                        (      11.162 eV)
   154     154       --         0.410 au  H             1.00      1 P:z             9
                        (      11.162 eV)
   155     155       --         2.567 au  H             1.00      1 D:z2            9
                        (      69.838 eV)
   156     156       --         2.567 au  H             1.00      1 D:x2-y2         9
                        (      69.838 eV)
   157     157       --         2.567 au  H             1.00      1 D:xy            9
                        (      69.838 eV)
   158     158       --         2.567 au  H             1.00      1 D:xz            9
                        (      69.838 eV)
   159     159       --         2.567 au  H             1.00      1 D:yz            9
                        (      69.838 eV)
   160     160      1.000      -0.238 au  H             1.00      1 S              10
                        (      -6.484 eV)
   161     161       --         0.077 au  H             1.00      2 S              10
                        (       2.096 eV)
   162     162       --         1.521 au  H             1.00      3 S              10
                        (      41.380 eV)
   163     163       --         0.410 au  H             1.00      1 P:x            10
                        (      11.162 eV)
   164     164       --         0.410 au  H             1.00      1 P:y            10
                        (      11.162 eV)
   165     165       --         0.410 au  H             1.00      1 P:z            10
                        (      11.162 eV)
   166     166       --         2.567 au  H             1.00      1 D:z2           10
                        (      69.838 eV)
   167     167       --         2.567 au  H             1.00      1 D:x2-y2        10
                        (      69.838 eV)
   168     168       --         2.567 au  H             1.00      1 D:xy           10
                        (      69.838 eV)
   169     169       --         2.567 au  H             1.00      1 D:xz           10
                        (      69.838 eV)
   170     170       --         2.567 au  H             1.00      1 D:yz           10
                        (      69.838 eV)
   171     171      1.000      -0.238 au  H             1.00      1 S              11
                        (      -6.484 eV)
   172     172       --         0.077 au  H             1.00      2 S              11
                        (       2.096 eV)
   173     173       --         1.521 au  H             1.00      3 S              11
                        (      41.380 eV)
   174     174       --         0.410 au  H             1.00      1 P:x            11
                        (      11.162 eV)
   175     175       --         0.410 au  H             1.00      1 P:y            11
                        (      11.162 eV)
   176     176       --         0.410 au  H             1.00      1 P:z            11
                        (      11.162 eV)
   177     177       --         2.567 au  H             1.00      1 D:z2           11
                        (      69.838 eV)
   178     178       --         2.567 au  H             1.00      1 D:x2-y2        11
                        (      69.838 eV)
   179     179       --         2.567 au  H             1.00      1 D:xy           11
                        (      69.838 eV)
   180     180       --         2.567 au  H             1.00      1 D:xz           11
                        (      69.838 eV)
   181     181       --         2.567 au  H             1.00      1 D:yz           11
                        (      69.838 eV)
   182     182      2.000     -18.926 au  O             1.00      1 S              12
                        (    -515.001 eV)
   183     183      2.000      -0.887 au  O             1.00      2 S              12
                        (     -24.136 eV)
   184     184       --         0.804 au  O             1.00      3 S              12
                        (      21.890 eV)
   185     185       --        13.488 au  O             1.00      4 S              12
                        (     367.032 eV)
   186     186       --       121.767 au  O             1.00      5 S              12
                        (    3313.451 eV)
   187     187      1.333      -0.329 au  O             1.00      1 P:x            12
                        (      -8.949 eV)
   188     188       --         0.351 au  O             1.00      2 P:x            12
                        (       9.557 eV)
   189     189       --         3.863 au  O             1.00      3 P:x            12
                        (     105.120 eV)
   190     190      1.333      -0.329 au  O             1.00      1 P:y            12
                        (      -8.949 eV)
   191     191       --         0.351 au  O             1.00      2 P:y            12
                        (       9.557 eV)
   192     192       --         3.863 au  O             1.00      3 P:y            12
                        (     105.120 eV)
   193     193      1.333      -0.329 au  O             1.00      1 P:z            12
                        (      -8.949 eV)
   194     194       --         0.351 au  O             1.00      2 P:z            12
                        (       9.557 eV)
   195     195       --         3.863 au  O             1.00      3 P:z            12
                        (     105.120 eV)
   196     196       --         1.072 au  O             1.00      1 D:z2           12
                        (      29.175 eV)
   197     197       --         1.072 au  O             1.00      1 D:x2-y2        12
                        (      29.175 eV)
   198     198       --         1.072 au  O             1.00      1 D:xy           12
                        (      29.175 eV)
   199     199       --         1.072 au  O             1.00      1 D:xz           12
                        (      29.175 eV)
   200     200       --         1.072 au  O             1.00      1 D:yz           12
                        (      29.175 eV)
   201     201       --         3.353 au  O             1.00      1 F:z3           12
                        (      91.230 eV)
   202     202       --         3.353 au  O             1.00      1 F:z            12
                        (      91.230 eV)
   203     203       --         3.353 au  O             1.00      1 F:xyz          12
                        (      91.230 eV)
   204     204       --         3.353 au  O             1.00      1 F:z2x          12
                        (      91.230 eV)
   205     205       --         3.353 au  O             1.00      1 F:z2y          12
                        (      91.230 eV)
   206     206       --         3.353 au  O             1.00      1 F:x            12
                        (      91.230 eV)
   207     207       --         3.353 au  O             1.00      1 F:y            12
                        (      91.230 eV)



 ================================
 (Slater-type)  F U N C T I O N S  ***  (Basis and Fit)  ***
 ================================
  

 Atom Type    1  (C)
 ==============

 Valence Basis Sets:  10
 -----------------------
   1 S    7.680000
   1 S    5.000000
   2 S    1.280000
   2 S    2.100000
   2 S    4.600000
   2 P    0.820000
   2 P    1.480000
   2 P    2.940000
   3 D    2.200000
   4 F    3.300000

 Atom Type    2  (H)
 ==============

 Valence Basis Sets:   5
 -----------------------
   1 S    0.690000
   1 S    0.920000
   1 S    1.580000
   2 P    1.250000
   3 D    2.500000

 Atom Type    3  (O)
 ==============

 Valence Basis Sets:  10
 -----------------------
   1 S    9.800000
   1 S    6.800000
   2 S    7.580000
   2 S    2.880000
   2 S    1.720000
   2 P    4.080000
   2 P    2.080000
   2 P    1.120000
   3 D    2.000000
   4 F    3.000000


 BAS: List of all Elementary Cartesian Basis Functions
 =====================================================

 The numbering in the list below (to the right of the function characteristics) is referred
 to in print-outs of MO eigenvectors and Mulliken populations in the BAS representation
 (as contrasted to the SFO representation).

 Notes:
 1. The functions are characterized by a polynomial prefactor (powers of x,y,z and r) and
    an exponential decay factor alpha.
 2. Since the basis sets are specific for an atom TYPE, the individual functions occur on
    all atoms of that type.
 3. The word 'Core' in the left margin signals that it is a Core Function (CF) : not a
    degree of freedom in the valence set, but only used to ensure orthogonalization of
    the other valence basis functions on the frozen Core Orbitals.


 (power of) X  Y  Z  R     Alpha  on Atom
            ==========     =====     ==========

 C                                    1    2    3    4
                                  ---------------------------------------------------------------------------
            0  0  0  0     7.680      1   31   61   91
            0  0  0  0     5.000      2   32   62   92
            0  0  0  1     1.280      3   33   63   93
            0  0  0  1     2.100      4   34   64   94
            0  0  0  1     4.600      5   35   65   95
            1  0  0  0     0.820      6   36   66   96
[...]
     5     C       0.008757   0.007010   0.011150
     6     H       0.032296   0.015019   0.014837
     7     H      -0.482744  -0.022409  -0.028576
     8     H       0.627177   0.055213   0.006581
     9     H       0.010284   0.010678   0.007207
    10     H      -0.079163   0.002310  -0.026287
    11     O       0.000647   0.008334   0.015049
    12     H       0.373013   0.031930   0.022008
 
 Mode:    17      Frequency (cm-1):      753.8840     Intensity (km/mol):        7.2036
 Index  Atom      ---- Displacements (x/y/z) ----
     1     C       0.015956  -0.001738   0.021111
     2     C       0.005384   0.001302  -0.001410
     3     C       0.083315   0.008230   0.030524
     4     H      -0.023770   0.010538   0.043843
     5     C       0.001762   0.006631  -0.005091
     6     H      -0.516307   0.004565  -0.221190
     7     H       0.161752   0.025170   0.049064
     8     H       0.165379   0.031974  -0.002906
     9     H      -0.532163  -0.054718  -0.125201
    10     H      -0.503645  -0.107393  -0.219614
    11     O      -0.000333  -0.005394  -0.003504
    12     H      -0.013044   0.003720  -0.005788
 
 Mode:    18      Frequency (cm-1):      899.8422     Intensity (km/mol):       17.1240
 Index  Atom      ---- Displacements (x/y/z) ----
     1     C       0.048977  -0.069291  -0.019625
     2     C      -0.021296  -0.114151  -0.065556
     3     C      -0.019605  -0.000544  -0.005978
     4     H      -0.315733   0.081235   0.262349
     5     C      -0.007883   0.128257   0.017661
     6     H       0.051110   0.000562   0.024934
     7     H       0.004157   0.204069   0.453730
     8     H       0.212329   0.260218  -0.595326
     9     H       0.053398   0.006647   0.012451
    10     H       0.034089   0.012861   0.011494
    11     O       0.000974  -0.006161   0.036272
    12     H      -0.057085   0.195750   0.129837
 
 Mode:    19      Frequency (cm-1):      922.7882     Intensity (km/mol):       10.5867
 Index  Atom      ---- Displacements (x/y/z) ----
     1     C       0.037214   0.024100   0.024867
     2     C      -0.119394   0.016245  -0.010611
     3     C      -0.059270  -0.005725  -0.018500
     4     H       0.006186   0.009966   0.004714
     5     C       0.015869  -0.034369  -0.009809
     6     H       0.084334  -0.006545   0.039703
     7     H       0.649892  -0.005151   0.010972
     8     H       0.688868   0.028112   0.213893
     9     H       0.091322   0.009320   0.019906
    10     H       0.085043   0.023995   0.042230
    11     O      -0.004534  -0.000353  -0.007771
    12     H      -0.038412  -0.057077  -0.040761
 
 Mode:    20      Frequency (cm-1):      971.1852     Intensity (km/mol):       22.3776
 Index  Atom      ---- Displacements (x/y/z) ----
     1     C      -0.121243  -0.031581  -0.008567
     2     C       0.013212  -0.014525  -0.015574
     3     C      -0.001267  -0.004968   0.001535
     4     H       0.717323   0.048649   0.065465
     5     C       0.102610   0.041794   0.003590
     6     H      -0.013099  -0.004153  -0.000945
     7     H       0.427221   0.065223   0.146430
     8     H      -0.264049   0.022974  -0.158882
     9     H       0.012519  -0.000000   0.004988
    10     H       0.011662  -0.002174   0.004875
    11     O      -0.027375  -0.003562   0.008205
    12     H      -0.377489   0.036533   0.034278
 
 Mode:    21      Frequency (cm-1):      996.8494     Intensity (km/mol):        4.8998
 Index  Atom      ---- Displacements (x/y/z) ----
     1     C      -0.034971   0.019404   0.000936
     2     C       0.012175   0.001386   0.008810
     3     C       0.001919   0.004869   0.000544
     4     H      -0.371898  -0.017934  -0.038411
     5     C       0.180545  -0.015347  -0.000841
     6     H       0.008468   0.004736   0.001851
     7     H      -0.406637  -0.033731  -0.079259
     8     H       0.291300   0.002564   0.092246
     9     H      -0.005607   0.000528  -0.001352
    10     H      -0.014558   0.001157  -0.004428
    11     O      -0.041617  -0.000109  -0.003628
    12     H      -0.741725  -0.078367  -0.025577
 
 Mode:    22      Frequency (cm-1):     1149.6379     Intensity (km/mol):       74.0490
 Index  Atom      ---- Displacements (x/y/z) ----
     1     C       0.014979  -0.190984  -0.002418
     2     C      -0.020976   0.050031   0.039619
     3     C       0.004387   0.001010   0.001728
     4     H       0.003690  -0.564605  -0.609607
     5     C      -0.006355   0.225430   0.011444
     6     H       0.001100   0.001516   0.000386
     7     H       0.021589  -0.104600  -0.206293
     8     H       0.099000  -0.075766   0.268283
     9     H      -0.000446  -0.004265   0.000819
    10     H       0.002265  -0.002144   0.006239
    11     O       0.000392  -0.033452  -0.007749
    12     H      -0.038577   0.262901   0.063385
 
 Mode:    23      Frequency (cm-1):     1254.4509     Intensity (km/mol):        1.8356
 Index  Atom      ---- Displacements (x/y/z) ----
     1     C      -0.002567   0.141082  -0.079879
     2     C      -0.006162  -0.106526   0.105710
     3     C       0.008177   0.000111   0.001762
     4     H       0.020303  -0.236132  -0.729117
     5     C      -0.001112  -0.031381   0.009714
     6     H      -0.007298   0.005794   0.007880
     7     H       0.024470   0.164167   0.572606
     8     H      -0.004261   0.008541  -0.048539
     9     H      -0.018052   0.008788  -0.004177
    10     H      -0.013543  -0.004400  -0.006614
    11     O       0.000459   0.003945  -0.013028
    12     H       0.010910  -0.048500  -0.029477
 
 Mode:    24      Frequency (cm-1):     1340.0012     Intensity (km/mol):       17.2341
 Index  Atom      ---- Displacements (x/y/z) ----
     1     C      -0.005879   0.051613   0.107032
     2     C       0.005891  -0.022547  -0.031920
     3     C      -0.006968  -0.001851  -0.000244
     4     H       0.015704  -0.125933  -0.178904
     5     C      -0.003379   0.059071  -0.000779
     6     H       0.012986  -0.008739  -0.007544
     7     H       0.030897  -0.131378  -0.243289
     8     H      -0.006123   0.175818  -0.375572
     9     H       0.003918   0.011347   0.001754
    10     H       0.012299   0.015056  -0.018417
    11     O       0.001770  -0.035804   0.041735
    12     H       0.025277  -0.395318  -0.722566
 
 Mode:    25      Frequency (cm-1):     1378.7038     Intensity (km/mol):        3.1607
 Index  Atom      ---- Displacements (x/y/z) ----
     1     C      -0.000246   0.002159   0.000180
     2     C       0.000199  -0.001766   0.000316
     3     C      -0.009827   0.090365   0.001456
     4     H       0.002169  -0.001068  -0.006166
     5     C      -0.000254   0.000243  -0.000355
     6     H       0.074254  -0.144710  -0.399657
     7     H       0.000277   0.001478   0.006213
     8     H      -0.000501   0.002414  -0.007069
     9     H       0.076696  -0.799564   0.006235
    10     H      -0.034213  -0.131807   0.376209
    11     O       0.000069  -0.000352   0.000901
    12     H       0.000813  -0.004698  -0.009097
 
 Mode:    26      Frequency (cm-1):     1382.7611     Intensity (km/mol):        1.9268
 Index  Atom      ---- Displacements (x/y/z) ----
     1     C       0.000739  -0.002496  -0.003309
     2     C       0.000460   0.001322  -0.006065
     3     C       0.030026   0.004578  -0.084913
     4     H      -0.002314   0.009098   0.016884
     5     C      -0.000605   0.006226  -0.000877
     6     H      -0.277941   0.356396   0.516491
     7     H      -0.005137   0.021096   0.027603
     8     H      -0.001560  -0.022883   0.033261
     9     H       0.121990  -0.007377  -0.042335
    10     H      -0.204651  -0.404127   0.539446
    11     O       0.000189  -0.002300   0.006410
    12     H       0.002026  -0.030355  -0.059976
 
 Mode:    27      Frequency (cm-1):     1412.9622     Intensity (km/mol):        8.4903
 Index  Atom      ---- Displacements (x/y/z) ----
     1     C       0.005479  -0.046127  -0.106199
     2     C       0.002645   0.019031  -0.024969
     3     C       0.000416  -0.000362   0.009859
     4     H      -0.014207   0.150350   0.218085
     5     C      -0.004340   0.062155  -0.003391
     6     H       0.023689  -0.033761  -0.049333
     7     H      -0.068567   0.255799   0.389770
     8     H      -0.025038  -0.292488   0.491738
     9     H      -0.015480   0.002334   0.004702
    10     H       0.018813   0.038811  -0.052457
    11     O       0.000877  -0.017705   0.063930
    12     H       0.016861  -0.253187  -0.532326
 
 Mode:    28      Frequency (cm-1):     1552.2949     Intensity (km/mol):       14.0118
 Index  Atom      ---- Displacements (x/y/z) ----
     1     C       0.004858  -0.049055  -0.279230
     2     C      -0.034071   0.012455   0.273988
     3     C       0.016905   0.001808   0.004139
     4     H      -0.017996   0.275993   0.212322
     5     C       0.000099   0.014066   0.005182
     6     H      -0.020262   0.009713   0.004183
     7     H       0.134142  -0.426262  -0.430134
     8     H       0.088992   0.421414  -0.316839
     9     H      -0.013618  -0.001706  -0.003815
    10     H      -0.016923  -0.012772   0.005424
    11     O      -0.000757   0.005378   0.042293
    12     H       0.003061  -0.104956  -0.190934
 
 Mode:    29      Frequency (cm-1):     1683.5663     Intensity (km/mol):      324.2652
 Index  Atom      ---- Displacements (x/y/z) ----
     1     C      -0.001547  -0.002514  -0.053947
     2     C      -0.007738  -0.009787  -0.029155
     3     C       0.005977   0.000854   0.002627
     4     H      -0.005017   0.139323   0.230053
     5     C      -0.005729   0.072152   0.677558
     6     H      -0.002978   0.001981  -0.000062
     7     H       0.016141   0.024995   0.003382
     8     H       0.022602  -0.033160   0.008482
     9     H       0.003994  -0.004148   0.002635
    10     H       0.000996  -0.004157   0.005872
    11     O       0.003064  -0.026498  -0.446646
    12     H       0.023232  -0.427088  -0.271136
 
 Mode:    30      Frequency (cm-1):     2803.2814     Intensity (km/mol):      111.0589
 Index  Atom      ---- Displacements (x/y/z) ----
     1     C       0.000145  -0.001372  -0.002198
     2     C      -0.000226  -0.000153   0.000886
     3     C       0.000031  -0.000091   0.000030
     4     H      -0.000393   0.008876  -0.004994
     5     C      -0.003798   0.072233  -0.038234
     6     H       0.000562   0.000717  -0.000808
     7     H      -0.000203   0.012331   0.000241
     8     H       0.000365  -0.006994   0.003413
     9     H       0.000202  -0.000260   0.000745
    10     H       0.000934   0.000657   0.000424
    11     O       0.000068  -0.000538  -0.003193
    12     H       0.043276  -0.847609   0.522163
 
 Mode:    31      Frequency (cm-1):     3061.8519     Intensity (km/mol):        0.0013
 Index  Atom      ---- Displacements (x/y/z) ----
     1     C       0.000061  -0.000143  -0.000031
     2     C      -0.000341  -0.000273   0.002208
     3     C      -0.012784  -0.001642  -0.007753
     4     H      -0.000166   0.002452  -0.001342
     5     C       0.000018  -0.000197  -0.000088
     6     H       0.101314   0.498412  -0.249837
     7     H       0.001204   0.022088  -0.012668
     8     H       0.003809  -0.018520  -0.011024
     9     H      -0.145607  -0.010867   0.583532
    10     H       0.194815  -0.468171  -0.242006
    11     O      -0.000005   0.000029   0.000076
    12     H       0.000060   0.001002  -0.000436
 
 Mode:    32      Frequency (cm-1):     3103.4303     Intensity (km/mol):        4.6297
 Index  Atom      ---- Displacements (x/y/z) ----
     1     C      -0.000372   0.009914  -0.001118
     2     C       0.010921   0.013727  -0.063140
     3     C      -0.001171  -0.000286   0.000100
     4     H       0.004609  -0.115104   0.068763
     5     C      -0.000089   0.001493   0.000519
     6     H       0.003572   0.019874  -0.009981
     7     H      -0.028477  -0.678673   0.392690
     8     H      -0.094527   0.510360   0.301965
     9     H      -0.003923  -0.000271   0.017357
    10     H       0.007121  -0.017375  -0.008842
    11     O       0.000012  -0.000204  -0.000534
    12     H       0.000837  -0.011429   0.004271
 
 Mode:    33      Frequency (cm-1):     3125.3807     Intensity (km/mol):        3.5332
 Index  Atom      ---- Displacements (x/y/z) ----
     1     C       0.003179  -0.071493   0.046155
     2     C       0.000630   0.013771  -0.011716
     3     C      -0.000347  -0.000211  -0.000202
     4     H      -0.036299   0.838481  -0.506591
     5     C      -0.000071   0.000762   0.002866
     6     H       0.000629   0.001316  -0.000233
     7     H      -0.006854  -0.152500   0.088441
     8     H       0.002219  -0.012492  -0.007972
     9     H      -0.000068   0.000210   0.001349
    10     H       0.000255   0.000037   0.000027
    11     O      -0.000002  -0.000016  -0.000773
    12     H      -0.000210   0.005927  -0.004536
 
 Mode:    34      Frequency (cm-1):     3199.5952     Intensity (km/mol):        3.0752
 Index  Atom      ---- Displacements (x/y/z) ----
     1     C       0.000442  -0.009725   0.006937
     2     C       0.008892  -0.097211  -0.011660
     3     C      -0.000639   0.003144   0.000364
     4     H      -0.004679   0.101159  -0.062457
     5     C      -0.000004   0.000126   0.000203
     6     H      -0.002789  -0.014609   0.007725
     7     H       0.022563   0.495134  -0.303846
     8     H      -0.126712   0.666789   0.420136
     9     H       0.000336   0.000431  -0.002218
    10     H       0.007900  -0.019562  -0.010198
    11     O       0.000013   0.000007  -0.000003
    12     H      -0.000325   0.004890   0.000392
 
 Mode:    35      Frequency (cm-1):     3236.2584     Intensity (km/mol):        2.8676
 Index  Atom      ---- Displacements (x/y/z) ----
     1     C      -0.000040   0.000037   0.000091
     2     C      -0.000021  -0.000191  -0.000186
     3     C       0.033347   0.011321  -0.093002
     4     H       0.000172  -0.000658   0.000487
     5     C      -0.000003   0.000025   0.000044
     6     H      -0.089201  -0.433465   0.196732
     7     H      -0.000733  -0.002523   0.000615
     8     H      -0.001207   0.004159   0.001847
     9     H      -0.177814  -0.011114   0.769315
    10     H      -0.127517   0.310348   0.139158
    11     O      -0.000000  -0.000003  -0.000007
    12     H       0.000007   0.000026  -0.000086
 
 Mode:    36      Frequency (cm-1):     3243.7275     Intensity (km/mol):        2.3528
 Index  Atom      ---- Displacements (x/y/z) ----
     1     C       0.000007   0.000119  -0.000177
     2     C      -0.000213   0.002678   0.000287
     3     C      -0.012703   0.098424   0.007428
     4     H      -0.000074  -0.002159   0.001450
     5     C       0.000020   0.000095  -0.000074
     6     H      -0.133209  -0.577369   0.294946
     7     H      -0.001981  -0.015581   0.008935
     8     H       0.005105  -0.019264  -0.011655
     9     H       0.013029   0.018758  -0.064383
    10     H       0.270551  -0.609542  -0.318941
    11     O      -0.000005  -0.000011   0.000013
    12     H       0.000129  -0.001030   0.000564

PES point character: Geometry corresponds to a transition state.
                     (Hint: Very small negative frequencies do not count towards being a
                     transition state, as they usually indicate noise on a very flat PES. See
                     the PESPointCharacter%NegativeFrequenciesTolerance keyword documentation.)




 ============================
 Statistical Thermal Analysis  ***  ideal gas assumed  ***
 ============================
  
 Pressure:                  1.000000 atm.
 Temperature:             298.150000 K



 Moments of Inertia [amu*bohr^2] and principal axis
 ==================================================

         167.2355        867.9080        951.0242
 ------------------------------------------------
           0.3958         -0.9011         -0.1773
           0.3387          0.3227         -0.8838
           0.8536          0.2897          0.4329


 The rotational contribution to the molecular entropy includes
 a term, dependent on the symmetry number sigma. The results 
 reported below were computed using sigma = 1, determined from
 the point group symmetry of the input geometry (NOSYM). 
 If this is not the correct symmetry, try symmetrizing the molecule before
 running the calculation (note: linear molecules should be aligned along one
 of the Cartesian axes).
 Contributions from frequencies below 20 1/cm are not included in vibrational sums.
 Their contributions, if any, are reported separately.


     Temp                                                        Transl      Rotat     Vibrat     Total
     ----                                                        ------      -----     ------     -----

     298.15   Entropy (cal/mol-K):                               38.699     26.426     17.371     82.496
              Nuclear Internal Energy (kcal/mol):                 0.889      0.889     60.467     62.244
              Constant Volume Heat Capacity (cal/mol-K):          2.981      2.981     17.605     23.567
          (c) Constant Volume Heat Capacity (cal/mol-K):          2.981      2.981     15.973     21.935

       Summary of energy terms
                                                   hartree              eV         kcal/mol           kJ/mol
                                      --------------------     -----------       ----------      -----------
      Energy from Engine:               -2.328063292280487        -63.3498         -1460.88         -6112.33
      Nuclear Internal Energy:           0.099192127743317          2.6992            62.24           260.43
  (c) Nuclear Internal Energy:           0.098358036940342          2.6765            61.72           258.24
      Internal Energy U:                -2.228871164537170        -60.6507         -1398.64         -5851.90
      pV/n = RT:                         0.000944186013486          0.0257             0.59             2.48
      Enthalpy H:                       -2.227926978523684        -60.6250         -1398.05         -5849.42
      -T*S:                             -0.039196420060867         -1.0666           -24.60          -102.91
  (c) -T*S:                             -0.038533734401918         -1.0486           -24.18          -101.17
      Gibbs free energy:                -2.267123398584551        -61.6916         -1422.64         -5952.33
 
 
 
  (c) The properties marked with this symbol have been corrected using 'low vibrational frequency free rotor
      interpolation corrections'. For those terms all positive frequencies are used (also ones below 20 1/cm),
      but the contribution to the partition function of small vibrational frequencies is modified as described
      in the following paper:
      S. Grimme, 'Supramolecular Binding Thermodynamics by Dispersion-Corrected Density Functional Theory'
      (Chem. Eur. J. 2012, 18, 9955-9964)
      Configuration: Dampener Frequency          :   100.000 1/cm
                     Dampener Alpha              :     4.000
                     Averaging Moment of Inertia : 1.000E-44 kg m2

--------------
Atomic charges
--------------
  Index   Atom    Charge
      1      C    0.2182
      2      C    0.4255
      3      C    0.5196
      4      H   -0.1770
      5      C    0.6294
      6      H   -0.1537
      7      H   -0.1866
      8      H   -0.1958
      9      H   -0.1626
     10      H   -0.1506
     11      O   -0.4941
     12      H   -0.2722


Dipole moment vector    (Debye):    -0.51380258   -1.11872374   -3.82939068
              magnitude (Debye):     4.02240835


Final PES point is a transition state. Transition state search successful!


AMS application finished. Exiting.
NORMAL TERMINATION
     Total cpu time:    1349.40
  Total system time:      17.60
 Total elapsed time:    1499.56
