

 Parallel Execution: Process Information
 ==============================================================================
 Rank   Node Name                              NodeID   MyNodeRank  NodeMaster
    0   node115                                   0          0          0
    1   node115                                   0          1         -1
    2   node115                                   0          2         -1
    3   node115                                   0          3         -1
 ==============================================================================


May use up to 122928MB of RAM as shared memory on node 0

 *******************************************************************************
 *                                                                             *
 *  --------------------------------                                           *
 *   Amsterdam Modeling Suite (AMS)              2021.102                      *
 *  --------------------------------                                           *
 *                                               r95042 2021-06-07             *
 *                                                                             *
 *                                                                             *
 *                              =================                              *
 *                              |               |                              *
 *                              |     A M S     |                              *
 *                              |               |                              *
 *                              =================                              *
 *                                                                             *
 *                                                                             *
 *   Online information and documentation:  https://www.scm.com/support/       *
 *   E-mail:  support@scm.com   info@scm.com                                   *
 *                                                                             *
 *   Scientific publications using AMS results must be properly referenced     *
 *   See the User Manuals (or the web site) for recommended citations          *
 *   The terms and conditions of the End User License Agreement apply to       *
 *   the use of AMS, https://www.scm.com/license-terms/                        *
 *                                                                             *
 **********************  x86_64_linux_intel / intelmpi  ************************
 
 Licensed to: VU/FEW (+ SARA) / ALGEMEEN / Amsterdam / THE NETHERLANDS
 SCM User ID: u7668
  
 AMS 2021.102  RunTime: Jan23-2022 00:09:19  ShM Nodes: 1  Procs: 4

 AMS jobname: 41.no_catalyst.H_H.P1
 AMS jobid  : 632767935

 Start   directory: /scistor/tc/yhk800/MasterProject/calculations/no_catalyst_H_H/41.no_catalyst.H_H.P1/
 Results directory: /scistor/tc/yhk800/MasterProject/calculations/no_catalyst_H_H/41.no_catalyst.H_H.P1/
 Scratch directory: /scratch/3982/amstmp_41.no_catalyst.H_H.P1_kid0.632767935/


 Communication costs MPI_COMM_WORLD:      0.920 usec per message,   0.0069 usec per 8-byte item
 Communication costs for intra-node:      0.049 usec per message,   0.0070 usec per 8-byte item

 RNG seed: -1857383838 303673621 1119245587 -897903522 1491169668 86815462 -1135863202 -1635641521



                      ************************************************************************
                      *  ADF 2021.102  RunTime: Jan23-2022 00:09:20  ShM Nodes: 1  Procs: 4  *
                      ************************************************************************
  
       ***************************
       *  GEOMETRY OPTIMIZATION  *
       ***************************

Optimization Method                    Quasi Newton
Optimization Coordinates               Delocalized Coordinates
Optimize lattice                       F
 
 ------------------------------------------------------
 Convergence criteria (Hartree,Angstrom)
 ------------------------------------------------------
 Maximum gradient               0.001000000000
 Maximum rms gradient           0.000666666667
 Maximum step allowed           0.010000000000
 Maximum rms step allowed       0.006666666667
 Maximum energy change allowe   0.000120000000
 Maximum stress energy allowe   0.000500000000
 
Initial model Hessian                  Automatic Hessian
 
------------------------------------
Quasi-Newton Optimizer Parameters
------------------------------------
Hessian Update Method                  BFGS
Maximum number of steps                  250
First GDIIS cycle                          0
Maximum GDIIS vectors                      0
Trust radius (bohr)                        0.200000
Trust radius varies                        T
Constraints converged at all steps         T
Use projector                              T
 
 Rigid motions settings for: old optimizer
 Atomic rotations (x,y,z):     T T T
 Atomic translations (x,y,z):  T T T
 Tolerance:                   1.000000000000000E-006
 
--------
Geometry
--------
Formula: C4H7O
Atoms
  Index Symbol   x (angstrom)   y (angstrom)   z (angstrom)
      1      C     0.07237900     0.45849000     0.14701600
      2      C     0.88136400    -0.76962700     0.34543400
      3      H     0.32008500    -1.64937000     0.00848400
      4      C    -1.24453700     0.48140500    -0.41210600
      5      H     0.49150900     1.42171500     0.44020400
      6      O    -1.70763628    -0.60238060    -0.72730090
      7      C     1.35798400    -0.97156700     1.79839200
      8      H     1.97578900    -1.87216200     1.87186400
      9      H     0.50807500    -1.08370100     2.47848500
     10      H     1.95613700    -0.12156000     2.14194000
     11      H     1.74870570    -0.70794881    -0.27811565
     12      H    -1.81787046     1.37262304    -0.56015713
 
Total System Charge             0.00000
 
 
----------------
ADF Engine Input
----------------
 
 NumericalQuality VeryGood
 SCF
 Converge 1.0e-6
 Iterations 99
 End
 SYMMETRY NOSYM
 SpinPolarization 1.0
 Unrestricted Yes
 XC
 GGA OLYP
 End
 basis
 core None
 type TZ2P
 End
 

 Title: *** (NO TITLE) ***

 Using automatic Hessian for delocalized coordinates.
 *** GOStep1 ***

 Energy gradients wrt nuclear displacements
 ==========================================

     Atom      Cartesian (a.u./angstrom)
                 X         Y         Z
 ----------------------------------------
     1 C    -0.009229 -0.042959 -0.009508
     2 C     0.030701  0.009068 -0.020321
     3 H     0.000821 -0.006002 -0.001375
     4 C    -0.058357  0.043038 -0.020390
     5 H    -0.008080 -0.000732 -0.003390
     6 O     0.062966  0.053605  0.032764
     7 C     0.001293 -0.003527 -0.000359
     8 H     0.000239 -0.000001  0.000594
     9 H    -0.000116  0.000503 -0.000020
    10 H    -0.000765 -0.000040 -0.001248
    11 H    -0.032383 -0.004602  0.022968
    12 H     0.012911 -0.048351  0.000287
 ----------------------------------------
 Mulliken charges used for AMS results%charges...
 
----------------------------------------------------------------------
Geometry Convergence after Step   1       (Hartree/Angstrom,Angstrom)
----------------------------------------------------------------------
current energy                               -2.37684635 Hartree
energy change                      -2.37684635     0.00012000    F
constrained gradient max            0.06296121     0.00100000    F
constrained gradient rms            0.02431219     0.00066667    F
gradient max                        0.06296121
gradient rms                        0.02431219
cart. step max                      0.14227393     0.01000000    F
cart. step rms                      0.03131910     0.00666667    F
 
 
--------
Geometry
--------
Formula: C4H7O
Atoms
  Index Symbol   x (angstrom)   y (angstrom)   z (angstrom)
      1      C     0.07254963     0.44020658     0.14798266
      2      C     0.89568439    -0.77579985     0.34845488
      3      H     0.34125395    -1.65630412     0.01049010
      4      C    -1.25221645     0.44328210    -0.41879103
      5      H     0.49401978     1.40316663     0.44778276
      6      O    -1.84991021    -0.59496735    -0.79414212
      7      C     1.36533270    -0.96289259     1.80587859
      8      H     1.99304044    -1.85601466     1.88497362
      9      H     0.51269447    -1.08463192     2.48086073
     10      H     1.95184529    -0.10570119     2.15306771
     11      H     1.78113362    -0.69926380    -0.28384865
     12      H    -1.76344366     1.40483681    -0.52856994
 
Total System Charge             0.00000
 
 *** GOStep2 ***

 Energy gradients wrt nuclear displacements
 ==========================================

     Atom      Cartesian (a.u./angstrom)
                 X         Y         Z
 ----------------------------------------
     1 C     0.010602 -0.006018  0.004250
     2 C     0.010557  0.004094 -0.008151
     3 H     0.000981 -0.001253 -0.000102
     4 C     0.001222  0.046120  0.005968
     5 H     0.002092  0.000940  0.000929
     6 O    -0.015249 -0.023557 -0.009310
     7 C    -0.000114 -0.000709  0.000098
     8 H    -0.000020  0.000058 -0.000139
     9 H     0.000071  0.000318  0.000300
    10 H    -0.000227  0.000014 -0.000087
    11 H    -0.011256 -0.001771  0.007808
    12 H     0.001342 -0.018235 -0.001563
 ----------------------------------------
 Mulliken charges used for AMS results%charges...

 dE(predicted):    -0.73679E-02, dE(actual):    -0.65613E-02, Trust radius:    0.400000, all in a.u.
 
----------------------------------------------------------------------
Geometry Convergence after Step   2       (Hartree/Angstrom,Angstrom)
----------------------------------------------------------------------
current energy                               -2.38340767 Hartree
energy change                      -0.00656132     0.00012000    F
constrained gradient max            0.04612887     0.00100000    F
constrained gradient rms            0.01045715     0.00066667    F
gradient max                        0.04612887
gradient rms                        0.01045715
cart. step max                      0.01788531     0.01000000    F
cart. step rms                      0.00559042     0.00666667    T
 
 
--------
Geometry
--------
Formula: C4H7O
Atoms
  Index Symbol   x (angstrom)   y (angstrom)   z (angstrom)
      1      C     0.06815363     0.43487931     0.14497398
      2      C     0.89523621    -0.77823770     0.34832166
      3      H     0.33994499    -1.65771640     0.01066836
      4      C    -1.25028206     0.43094482    -0.42009001
      5      H     0.48194602     1.40059667     0.44329406
      6      O    -1.85449597    -0.59010521    -0.79399437
      7      C     1.36459566    -0.96120173     1.80631122
      8      H     1.99540542    -1.85200808     1.88725272
      9      H     0.51126993    -1.08648112     2.47968299
     10      H     1.94778930    -0.10175201     2.15386480
     11      H     1.78797918    -0.69734008    -0.28887455
     12      H    -1.74555835     1.41433816    -0.51727153
 
Total System Charge             0.00000
 
 *** GOStep3 ***

 Energy gradients wrt nuclear displacements
 ==========================================

     Atom      Cartesian (a.u./angstrom)
                 X         Y         Z
 ----------------------------------------
     1 C     0.000534 -0.001457  0.000653
     2 C     0.002272  0.001214 -0.003024
     3 H     0.000146 -0.000126  0.000094
     4 C     0.004050  0.012558  0.002465
     5 H     0.001367  0.000448  0.000584
     6 O    -0.005413 -0.004708 -0.002600
     7 C    -0.000330 -0.000015  0.000462
     8 H    -0.000055  0.000057 -0.000189
     9 H     0.000094  0.000140  0.000112
    10 H     0.000043  0.000056  0.000130
    11 H    -0.002703 -0.000356  0.001926
    12 H    -0.000006 -0.007810 -0.000613
 ----------------------------------------
 Mulliken charges used for AMS results%charges...

 dE(predicted):    -0.49078E-03, dE(actual):    -0.63652E-03, Trust radius:    0.400000, all in a.u.
 
----------------------------------------------------------------------
Geometry Convergence after Step   3       (Hartree/Angstrom,Angstrom)
----------------------------------------------------------------------
current energy                               -2.38404419 Hartree
energy change                      -0.00063652     0.00012000    F
constrained gradient max            0.01256822     0.00100000    F
constrained gradient rms            0.00303872     0.00066667    F
gradient max                        0.01256822
gradient rms                        0.00303872
cart. step max                      0.01209950     0.01000000    F
cart. step rms                      0.00452253     0.00666667    T
 
 
--------
Geometry
--------
Formula: C4H7O
Atoms
  Index Symbol   x (angstrom)   y (angstrom)   z (angstrom)
      1      C     0.06228802     0.43167386     0.14703573
      2      C     0.89272058    -0.78001572     0.35120393
      3      H     0.33794856    -1.66013427     0.01468957
      4      C    -1.25523697     0.42717388    -0.41714912
      5      H     0.47111721     1.39920337     0.44331329
      6      O    -1.85427578    -0.58785040    -0.80129984
      7      C     1.36758810    -0.96180113     1.80724569
      8      H     2.00195609    -1.85027667     1.88690970
      9      H     0.51636318    -1.09069058     2.48260939
     10      H     1.94847610    -0.10014684     2.15300692
     11      H     1.78649772    -0.69661967    -0.29048396
     12      H    -1.73345885     1.42540080    -0.52294199
 
Total System Charge             0.00000
 
 *** GOStep4 ***

 Energy gradients wrt nuclear displacements
 ==========================================

     Atom      Cartesian (a.u./angstrom)
                 X         Y         Z
 ----------------------------------------
     1 C    -0.001705  0.000390 -0.002017
     2 C    -0.000596 -0.000054 -0.000357
     3 H    -0.000058  0.000145  0.000140
     4 C     0.000383 -0.000608  0.004772
     5 H     0.000297 -0.000099  0.000102
     6 O     0.000442  0.000937 -0.001289
     7 C    -0.000033 -0.000065  0.000386
     8 H     0.000004 -0.000007  0.000001
     9 H     0.000030  0.000031 -0.000054
    10 H     0.000071  0.000030  0.000032
    11 H     0.000624  0.000137 -0.000205
    12 H     0.000539 -0.000836 -0.001513
 ----------------------------------------
 Mulliken charges used for AMS results%charges...

 dE(predicted):    -0.82490E-04, dE(actual):    -0.67136E-04, Trust radius:    0.400000, all in a.u.
 
----------------------------------------------------------------------
Geometry Convergence after Step   4       (Hartree/Angstrom,Angstrom)
----------------------------------------------------------------------
current energy                               -2.38411133 Hartree
energy change                      -0.00006714     0.00012000    T
constrained gradient max            0.00477474     0.00100000    F
constrained gradient rms            0.00102312     0.00066667    F
gradient max                        0.00477474
gradient rms                        0.00102312
cart. step max                      0.02241652     0.01000000    F
cart. step rms                      0.00628941     0.00666667    T
 
 
--------
Geometry
--------
Formula: C4H7O
Atoms
  Index Symbol   x (angstrom)   y (angstrom)   z (angstrom)
      1      C     0.06454889     0.42978256     0.13891267
      2      C     0.89493557    -0.78154101     0.35026868
      3      H     0.34226455    -1.66221749     0.01177744
      4      C    -1.24847413     0.42675302    -0.43607677
      5      H     0.46797887     1.39860228     0.43605963
      6      O    -1.85932550    -0.58899006    -0.78963706
      7      C     1.36521512    -0.96136568     1.80762863
      8      H     2.00164918    -1.84809227     1.89084548
      9      H     0.51161351    -1.09222952     2.47966420
     10      H     1.94238659    -0.09782119     2.15464752
     11      H     1.79287034    -0.69777536    -0.28942564
     12      H    -1.73367903     1.43081134    -0.50052547
 
Total System Charge             0.00000
 
 *** GOStep5 ***

 Energy gradients wrt nuclear displacements
 ==========================================

     Atom      Cartesian (a.u./angstrom)
                 X         Y         Z
 ----------------------------------------
     1 C    -0.004382  0.001029  0.001547
     2 C    -0.002136 -0.000962  0.001379
     3 H    -0.000128  0.000246  0.000035
     4 C     0.003521 -0.007232 -0.010011
     5 H    -0.000546 -0.000477 -0.000503
     6 O     0.002201  0.003347  0.004951
     7 C     0.000247  0.000037  0.000327
     8 H     0.000054 -0.000068  0.000099
     9 H    -0.000032 -0.000041 -0.000145
    10 H     0.000054 -0.000015 -0.000052
    11 H     0.002493  0.000312 -0.001454
    12 H    -0.001345  0.003825  0.003826
 ----------------------------------------
 Mulliken charges used for AMS results%charges...

 dE(predicted):    -0.66241E-04, dE(actual):     0.10994E-03, Trust radius:    0.021194, all in a.u.
 
----------------------------------------------------------------------
Geometry Convergence after Step   5       (Hartree/Angstrom,Angstrom)
----------------------------------------------------------------------
current energy                               -2.38400139 Hartree
energy change                       0.00010994     0.00012000    T
constrained gradient max            0.01001026     0.00100000    F
constrained gradient rms            0.00276939     0.00066667    F
gradient max                        0.01001026
gradient rms                        0.00276939
cart. step max                      0.00588310     0.01000000    T
cart. step rms                      0.00186431     0.00666667    T
 
 
--------
Geometry
--------
Formula: C4H7O
Atoms
  Index Symbol   x (angstrom)   y (angstrom)   z (angstrom)
      1      C     0.06481782     0.43052897     0.14138118
      2      C     0.89440394    -0.78118428     0.35073502
      3      H     0.34098269    -1.66170221     0.01283161
      4      C    -1.25008054     0.42790399    -0.43212550
      5      H     0.47020036     1.39886470     0.43894103
      6      O    -1.85888262    -0.58866956    -0.79409653
      7      C     1.36608120    -0.96143561     1.80756561
      8      H     2.00208386    -1.84852233     1.88963518
      9      H     0.51335090    -1.09187453     2.48080897
     10      H     1.94414823    -0.09828727     2.15413588
     11      H     1.79007617    -0.69800602    -0.28926457
     12      H    -1.73519806     1.42830076    -0.50640857
 
Total System Charge             0.00000
 
 *** GOStep6 ***

 Energy gradients wrt nuclear displacements
 ==========================================

     Atom      Cartesian (a.u./angstrom)
                 X         Y         Z
 ----------------------------------------
     1 C    -0.001948  0.000450  0.001437
     2 C    -0.000831 -0.000430  0.000397
     3 H    -0.000050  0.000124  0.000012
     4 C     0.002878 -0.001739 -0.006195
     5 H    -0.000137 -0.000150 -0.000247
     6 O    -0.000226  0.000167  0.002412
     7 C     0.000160  0.000025  0.000233
     8 H     0.000009 -0.000026  0.000044
     9 H    -0.000018 -0.000021 -0.000076
    10 H     0.000031  0.000002 -0.000030
    11 H     0.000941  0.000175 -0.000470
    12 H    -0.000809  0.001422  0.002484
 ----------------------------------------
 Mulliken charges used for AMS results%charges...

 dE(predicted):    -0.83536E-04, dE(actual):    -0.83121E-04, Trust radius:    0.042388, all in a.u.
 
----------------------------------------------------------------------
Geometry Convergence after Step   6       (Hartree/Angstrom,Angstrom)
----------------------------------------------------------------------
current energy                               -2.38408451 Hartree
energy change                      -0.00008312     0.00012000    T
constrained gradient max            0.00619403     0.00100000    F
constrained gradient rms            0.00142279     0.00066667    F
gradient max                        0.00619403
gradient rms                        0.00142279
cart. step max                      0.01238700     0.01000000    F
cart. step rms                      0.00376093     0.00666667    T
 
 
--------
Geometry
--------
Formula: C4H7O
Atoms
  Index Symbol   x (angstrom)   y (angstrom)   z (angstrom)
      1      C     0.06259381     0.43064891     0.14648796
      2      C     0.89228010    -0.78124119     0.35243865
      3      H     0.33754609    -1.66169081     0.01630002
      4      C    -1.25385247     0.42842765    -0.42515366
      5      H     0.46886741     1.39859517     0.44491784
      6      O    -1.85589950    -0.58681775    -0.80309465
      7      C     1.36851624    -0.96169742     1.80763034
      8      H     2.00500428    -1.84863036     1.88723505
      9      H     0.51817339    -1.09242684     2.48385842
     10      H     1.94751330    -0.09853407     2.15262966
     11      H     1.78476323    -0.69863313    -0.29031474
     12      H    -1.73352192     1.42791646    -0.51879556
 
Total System Charge             0.00000
 
 *** GOStep7 ***

 Energy gradients wrt nuclear displacements
 ==========================================

     Atom      Cartesian (a.u./angstrom)
                 X         Y         Z
 ----------------------------------------
     1 C    -0.000090 -0.000009 -0.000030
     2 C     0.000035 -0.000079 -0.000180
     3 H     0.000001  0.000031  0.000018
     4 C    -0.000198 -0.000146 -0.000051
     5 H     0.000005  0.000040 -0.000067
     6 O     0.000089  0.000139  0.000063
     7 C     0.000032  0.000007  0.000114
     8 H    -0.000014  0.000009 -0.000004
     9 H    -0.000004 -0.000005 -0.000011
    10 H     0.000001  0.000009 -0.000020
    11 H    -0.000004  0.000090  0.000106
    12 H     0.000148 -0.000085  0.000061
 ----------------------------------------
 Mulliken charges used for AMS results%charges...

 dE(predicted):    -0.50579E-04, dE(actual):    -0.50439E-04, Trust radius:    0.084777, all in a.u.
 
---------------------------------------------------------
Geometry Convergence after Step   7       ** CONVERGED **
---------------------------------------------------------
current energy                               -2.38413495 Hartree
energy change                      -0.00005044     0.00012000    T
constrained gradient max            0.00019342     0.00100000    T
constrained gradient rms            0.00007752     0.00066667    T
gradient max                        0.00019342
gradient rms                        0.00007752
cart. step max                      0.00218050     0.01000000    T
cart. step rms                      0.00074080     0.00666667    T
 
Geometry optimization converged

Optimized geometry:
 
--------
Geometry
--------
Formula: C4H7O
Atoms
  Index Symbol   x (angstrom)   y (angstrom)   z (angstrom)
      1      C     0.06259381     0.43064891     0.14648796
      2      C     0.89228010    -0.78124119     0.35243865
      3      H     0.33754609    -1.66169081     0.01630002
      4      C    -1.25385247     0.42842765    -0.42515366
      5      H     0.46886741     1.39859517     0.44491784
      6      O    -1.85589950    -0.58681775    -0.80309465
      7      C     1.36851624    -0.96169742     1.80763034
      8      H     2.00500428    -1.84863036     1.88723505
      9      H     0.51817339    -1.09242684     2.48385842
     10      H     1.94751330    -0.09853407     2.15262966
     11      H     1.78476323    -0.69863313    -0.29031474
     12      H    -1.73352192     1.42791646    -0.51879556
 
Total System Charge             0.00000
 
Performing a single point calculation on the final geometry ...

 *** adf ***



 ===========================
 A T T A C H E D   F I L E S
 ===========================
  
 Restart/scratch/3982/amstmp_41.no_catalyst.H_H.P1_kid0.632767935/GOStep7.rkf
 *** GOStep7 ***



 ===============================
 M O D E L   P A R A M E T E R S
 ===============================
  
 DENSITY FUNCTIONAL POTENTIAL (scf)
    LDA:                               Exchange only                           == Not Default ==
    Gradient Corrections:              OPTX LYP                                == Not Default ==

 SPIN  (restricted / unrestr.)
    Molecule:                          UNrestricted                            == Not Default ==
    Fragments:                         Restricted                               

 OTHER ASPECTS
    Relativistic Corrections:          scalar (ZORA,MAPA)                       

    Nuclear Charge Density Model:      Point Charge Nuclei                      
    Core Treatment:                    Frozen Orbital(s)                        

    Hyperfine or Zeeman Interaction:   ---                                      



 ===============
 G E O M E T R Y  ***  3D  Molecule  ***
 ===============
  

 ATOMS
 =====                            X Y Z                    CHARGE
                                (Angstrom)             Nucl     +Core       At.Mass
                       --------------------------    ----------------       -------
    1  C               0.0626    0.4306    0.1465      6.00      6.00       12.0000
    2  C               0.8923   -0.7812    0.3524      6.00      6.00       12.0000
    3  H               0.3375   -1.6617    0.0163      1.00      1.00        1.0078
    4  C              -1.2539    0.4284   -0.4252      6.00      6.00       12.0000
    5  H               0.4689    1.3986    0.4449      1.00      1.00        1.0078
    6  O              -1.8559   -0.5868   -0.8031      8.00      8.00       15.9949
    7  C               1.3685   -0.9617    1.8076      6.00      6.00       12.0000
    8  H               2.0050   -1.8486    1.8872      1.00      1.00        1.0078
    9  H               0.5182   -1.0924    2.4839      1.00      1.00        1.0078
   10  H               1.9475   -0.0985    2.1526      1.00      1.00        1.0078
   11  H               1.7848   -0.6986   -0.2903      1.00      1.00        1.0078
   12  H              -1.7335    1.4279   -0.5188      1.00      1.00        1.0078


 FRAGMENTS
 =========                                     Atoms in this Fragment     Cart. coord.s (Angstrom)
                                               -------------------------------------------------------
    1  C                                                 1  C            0.0626    0.4306    0.1465
    2  C                                                 2  C            0.8923   -0.7812    0.3524
    3  C                                                 4  C           -1.2539    0.4284   -0.4252
    4  C                                                 7  C            1.3685   -0.9617    1.8076
    5  H                                                 3  H            0.3375   -1.6617    0.0163
    6  H                                                 5  H            0.4689    1.3986    0.4449
    7  H                                                 8  H            2.0050   -1.8486    1.8872
    8  H                                                 9  H            0.5182   -1.0924    2.4839
    9  H                                                10  H            1.9475   -0.0985    2.1526
   10  H                                                11  H            1.7848   -0.6986   -0.2903
   11  H                                                12  H           -1.7335    1.4279   -0.5188
   12  O                                                 6  O           -1.8559   -0.5868   -0.8031


 Interatomic Distance Matrix (Angstrom)
 --------------------------------------

   1)     0.000
   2)     1.483   0.000
   3)     2.114   1.094   0.000
   4)     1.435   2.583   2.664   0.000
   5)     1.091   2.223   3.093   2.160   0.000
   6)     2.370   2.988   2.576   1.239   3.302   0.000
   7)     2.531   1.542   2.182   3.714   2.870   4.166   0.000
   8)     3.464   2.176   2.513   4.599   3.871   4.872   1.095   0.000
   9)     2.827   2.186   2.539   3.730   3.219   4.086   1.094   1.772   0.000
  10)     2.803   2.196   3.098   4.144   2.710   4.842   1.095   1.771   1.772   0.000
  11)     2.105   1.103   1.765   3.244   2.583   3.678   2.155   2.472   3.075   2.521
          0.000
  12)     2.159   3.540   3.758   1.113   2.404   2.038   4.555   5.523   4.521   4.798
          4.117   0.000

 Min. Distance =    1.0913
 Max. Distance =    5.5228



 =====================================
 S Y M M E T R Y ,   E L E C T R O N S
 =====================================
  
 Symmetry: NOSYM

 Irreducible Representations, including subspecies
 -------------------------------------------------
 A


 Configuration of Valence Electrons
 ==================================
 ( determined in the SCF procedure )

 Total:   20 (Spin-A)  + 19 (Spin-B)

 Net Charge: 0 (Nuclei minus Electrons)
 Spin polar: 1 (Spin_A minus Spin_B electrons)

 Aufbau principle for MO occupations will be applied through SCF cycle no.      49
 Thereafter, the program will assign electrons to MOs that are spatially
 similar to the occupied MOs in a "reference" cycle ("KeepOrbitals").
 The reference cycle is always the PREVIOUS cycle: it will evolve with
 the SCF procedure.
1
 ***************************************************************************************************



                                      ****************************************
                                      *  B U I L D : (Fragments, Functions)  *
                                      ****************************************
  



 =======
 S F O s  ***  (Symmetrized Fragment Orbitals)  ***
 =======
  
 SFOs are linear combinations of (valence) Fragment Orbitals (FOs), such that the SFOs transform as the
 irreducible representations of the (molecular) symmetry group. Each SFO is therefore characterized by
 an irrep of the molecule and by a few (or only one) generating FOs.
 The SFOs constitute a symmetry-adapted basis for the Fock matrix. The MO eigenvector coefficients in
 this basis provide a direct interpretation of the MOs in terms of Frontier Orbital Theory.

 The SFOs are combined with auxiliary Core Functions (CFs) to ensure orthogonalization on the (frozen)
 Core Orbitals (COs). The Core-orthogonalized SFOs (CSFOs) constitute the true Fock basis.

 The FOs, and hence also the (C)SFOs are combinations of the elementary basis functions (BAS). The basis
 functions that participate in the description of the SFOs depend on the irrep. The indices of the
 involved functions are printed below for each irrep.
 (The complete list of primitive basis functions is printed in another section)

 Total nr. of (C)SFOs (summation over all irreps) :   207

 NOTE: a (C)SFO that is defined as a combination of more than one FO is usually NOT normalized.



                                       === A ===
 Nr. of SFOs :  207
 Cartesian basis functions that participate in this irrep (total number =   234) :
      1     2     3     4     5     6     9    12     7    10
     13     8    11    14    15    16    17    18    19    20
     21    22    23    24    25    26    27    28    29    30
     31    32    33    34    35    36    39    42    37    40
     43    38    41    44    45    46    47    48    49    50
     51    52    53    54    55    56    57    58    59    60
     61    62    63    64    65    66    69    72    67    70
     73    68    71    74    75    76    77    78    79    80
     81    82    83    84    85    86    87    88    89    90
     91    92    93    94    95    96    99   102    97   100
    103    98   101   104   105   106   107   108   109   110
    111   112   113   114   115   116   117   118   119   120
    121   122   123   124   125   126   127   128   129   130
    131   132   133   134   135   136   137   138   139   140
    141   142   143   144   145   146   147   148   149   150
    151   152   153   154   155   156   157   158   159   160
    161   162   163   164   165   166   167   168   169   170
    171   172   173   174   175   176   177   178   179   180
    181   182   183   184   185   186   187   188   189   190
    191   192   193   194   195   196   197   198   199   200
    201   202   203   204   205   206   207   208   209   210
    213   216   211   214   217   212   215   218   219   220
    221   222   223   224   225   226   227   228   229   230
    231   232   233   234

    SFO  (index         Fragment          Generating    Expansion in Fragment Orbitals
  indx  incl.CFs)   Occup   Orb.Energy   FragmentType  Coeff.   Orbital     on Fragment
 --------------------------------------------------------------------------------------
     1       1      2.000     -10.064 au  C             1.00      1 S               1
                        (    -273.865 eV)
     2       2      2.000      -0.507 au  C             1.00      2 S               1
                        (     -13.802 eV)
     3       3       --         0.384 au  C             1.00      3 S               1
                        (      10.456 eV)
     4       4       --         5.458 au  C             1.00      4 S               1
                        (     148.511 eV)
     5       5       --        49.970 au  C             1.00      5 S               1
                        (    1359.766 eV)
     6       6      0.667      -0.189 au  C             1.00      1 P:x             1
                        (      -5.135 eV)
     7       7       --         0.168 au  C             1.00      2 P:x             1
                        (       4.559 eV)
     8       8       --         2.056 au  C             1.00      3 P:x             1
                        (      55.959 eV)
     9       9      0.667      -0.189 au  C             1.00      1 P:y             1
                        (      -5.135 eV)
    10      10       --         0.168 au  C             1.00      2 P:y             1
                        (       4.559 eV)
    11      11       --         2.056 au  C             1.00      3 P:y             1
                        (      55.959 eV)
    12      12      0.667      -0.189 au  C             1.00      1 P:z             1
                        (      -5.135 eV)
    13      13       --         0.168 au  C             1.00      2 P:z             1
                        (       4.559 eV)
    14      14       --         2.056 au  C             1.00      3 P:z             1
                        (      55.959 eV)
    15      15       --         1.235 au  C             1.00      1 D:z2            1
                        (      33.605 eV)
    16      16       --         1.235 au  C             1.00      1 D:x2-y2         1
                        (      33.605 eV)
    17      17       --         1.235 au  C             1.00      1 D:xy            1
                        (      33.605 eV)
    18      18       --         1.235 au  C             1.00      1 D:xz            1
                        (      33.605 eV)
    19      19       --         1.235 au  C             1.00      1 D:yz            1
                        (      33.605 eV)
    20      20       --         4.005 au  C             1.00      1 F:z3            1
                        (     108.969 eV)
    21      21       --         4.005 au  C             1.00      1 F:z             1
                        (     108.969 eV)
    22      22       --         4.005 au  C             1.00      1 F:xyz           1
                        (     108.969 eV)
    23      23       --         4.005 au  C             1.00      1 F:z2x           1
                        (     108.969 eV)
    24      24       --         4.005 au  C             1.00      1 F:z2y           1
                        (     108.969 eV)
    25      25       --         4.005 au  C             1.00      1 F:x             1
                        (     108.969 eV)
    26      26       --         4.005 au  C             1.00      1 F:y             1
                        (     108.969 eV)
    27      27      2.000     -10.064 au  C             1.00      1 S               2
                        (    -273.865 eV)
    28      28      2.000      -0.507 au  C             1.00      2 S               2
                        (     -13.802 eV)
    29      29       --         0.384 au  C             1.00      3 S               2
                        (      10.456 eV)
    30      30       --         5.458 au  C             1.00      4 S               2
                        (     148.511 eV)
    31      31       --        49.970 au  C             1.00      5 S               2
                        (    1359.766 eV)
    32      32      0.667      -0.189 au  C             1.00      1 P:x             2
                        (      -5.135 eV)
    33      33       --         0.168 au  C             1.00      2 P:x             2
                        (       4.559 eV)
    34      34       --         2.056 au  C             1.00      3 P:x             2
                        (      55.959 eV)
    35      35      0.667      -0.189 au  C             1.00      1 P:y             2
                        (      -5.135 eV)
    36      36       --         0.168 au  C             1.00      2 P:y             2
                        (       4.559 eV)
    37      37       --         2.056 au  C             1.00      3 P:y             2
                        (      55.959 eV)
    38      38      0.667      -0.189 au  C             1.00      1 P:z             2
                        (      -5.135 eV)
    39      39       --         0.168 au  C             1.00      2 P:z             2
                        (       4.559 eV)
    40      40       --         2.056 au  C             1.00      3 P:z             2
                        (      55.959 eV)
    41      41       --         1.235 au  C             1.00      1 D:z2            2
                        (      33.605 eV)
    42      42       --         1.235 au  C             1.00      1 D:x2-y2         2
                        (      33.605 eV)
    43      43       --         1.235 au  C             1.00      1 D:xy            2
                        (      33.605 eV)
    44      44       --         1.235 au  C             1.00      1 D:xz            2
                        (      33.605 eV)
    45      45       --         1.235 au  C             1.00      1 D:yz            2
                        (      33.605 eV)
    46      46       --         4.005 au  C             1.00      1 F:z3            2
                        (     108.969 eV)
    47      47       --         4.005 au  C             1.00      1 F:z             2
                        (     108.969 eV)
    48      48       --         4.005 au  C             1.00      1 F:xyz           2
                        (     108.969 eV)
    49      49       --         4.005 au  C             1.00      1 F:z2x           2
                        (     108.969 eV)
    50      50       --         4.005 au  C             1.00      1 F:z2y           2
                        (     108.969 eV)
    51      51       --         4.005 au  C             1.00      1 F:x             2
                        (     108.969 eV)
    52      52       --         4.005 au  C             1.00      1 F:y             2
                        (     108.969 eV)
    53      53      2.000     -10.064 au  C             1.00      1 S               3
                        (    -273.865 eV)
    54      54      2.000      -0.507 au  C             1.00      2 S               3
                        (     -13.802 eV)
    55      55       --         0.384 au  C             1.00      3 S               3
                        (      10.456 eV)
    56      56       --         5.458 au  C             1.00      4 S               3
                        (     148.511 eV)
    57      57       --        49.970 au  C             1.00      5 S               3
                        (    1359.766 eV)
    58      58      0.667      -0.189 au  C             1.00      1 P:x             3
                        (      -5.135 eV)
    59      59       --         0.168 au  C             1.00      2 P:x             3
                        (       4.559 eV)
    60      60       --         2.056 au  C             1.00      3 P:x             3
                        (      55.959 eV)
    61      61      0.667      -0.189 au  C             1.00      1 P:y             3
                        (      -5.135 eV)
    62      62       --         0.168 au  C             1.00      2 P:y             3
                        (       4.559 eV)
    63      63       --         2.056 au  C             1.00      3 P:y             3
                        (      55.959 eV)
    64      64      0.667      -0.189 au  C             1.00      1 P:z             3
                        (      -5.135 eV)
    65      65       --         0.168 au  C             1.00      2 P:z             3
                        (       4.559 eV)
    66      66       --         2.056 au  C             1.00      3 P:z             3
                        (      55.959 eV)
    67      67       --         1.235 au  C             1.00      1 D:z2            3
                        (      33.605 eV)
    68      68       --         1.235 au  C             1.00      1 D:x2-y2         3
                        (      33.605 eV)
    69      69       --         1.235 au  C             1.00      1 D:xy            3
                        (      33.605 eV)
    70      70       --         1.235 au  C             1.00      1 D:xz            3
                        (      33.605 eV)
    71      71       --         1.235 au  C             1.00      1 D:yz            3
                        (      33.605 eV)
    72      72       --         4.005 au  C             1.00      1 F:z3            3
                        (     108.969 eV)
    73      73       --         4.005 au  C             1.00      1 F:z             3
                        (     108.969 eV)
    74      74       --         4.005 au  C             1.00      1 F:xyz           3
                        (     108.969 eV)
    75      75       --         4.005 au  C             1.00      1 F:z2x           3
                        (     108.969 eV)
    76      76       --         4.005 au  C             1.00      1 F:z2y           3
                        (     108.969 eV)
    77      77       --         4.005 au  C             1.00      1 F:x             3
                        (     108.969 eV)
    78      78       --         4.005 au  C             1.00      1 F:y             3
                        (     108.969 eV)
    79      79      2.000     -10.064 au  C             1.00      1 S               4
                        (    -273.865 eV)
    80      80      2.000      -0.507 au  C             1.00      2 S               4
                        (     -13.802 eV)
    81      81       --         0.384 au  C             1.00      3 S               4
                        (      10.456 eV)
    82      82       --         5.458 au  C             1.00      4 S               4
                        (     148.511 eV)
    83      83       --        49.970 au  C             1.00      5 S               4
                        (    1359.766 eV)
    84      84      0.667      -0.189 au  C             1.00      1 P:x             4
                        (      -5.135 eV)
    85      85       --         0.168 au  C             1.00      2 P:x             4
                        (       4.559 eV)
    86      86       --         2.056 au  C             1.00      3 P:x             4
                        (      55.959 eV)
    87      87      0.667      -0.189 au  C             1.00      1 P:y             4
                        (      -5.135 eV)
    88      88       --         0.168 au  C             1.00      2 P:y             4
                        (       4.559 eV)
    89      89       --         2.056 au  C             1.00      3 P:y             4
                        (      55.959 eV)
    90      90      0.667      -0.189 au  C             1.00      1 P:z             4
                        (      -5.135 eV)
    91      91       --         0.168 au  C             1.00      2 P:z             4
                        (       4.559 eV)
    92      92       --         2.056 au  C             1.00      3 P:z             4
                        (      55.959 eV)
    93      93       --         1.235 au  C             1.00      1 D:z2            4
                        (      33.605 eV)
    94      94       --         1.235 au  C             1.00      1 D:x2-y2         4
                        (      33.605 eV)
    95      95       --         1.235 au  C             1.00      1 D:xy            4
                        (      33.605 eV)
    96      96       --         1.235 au  C             1.00      1 D:xz            4
                        (      33.605 eV)
    97      97       --         1.235 au  C             1.00      1 D:yz            4
                        (      33.605 eV)
    98      98       --         4.005 au  C             1.00      1 F:z3            4
                        (     108.969 eV)
    99      99       --         4.005 au  C             1.00      1 F:z             4
                        (     108.969 eV)
   100     100       --         4.005 au  C             1.00      1 F:xyz           4
                        (     108.969 eV)
   101     101       --         4.005 au  C             1.00      1 F:z2x           4
                        (     108.969 eV)
   102     102       --         4.005 au  C             1.00      1 F:z2y           4
                        (     108.969 eV)
   103     103       --         4.005 au  C             1.00      1 F:x             4
                        (     108.969 eV)
   104     104       --         4.005 au  C             1.00      1 F:y             4
                        (     108.969 eV)
   105     105      1.000      -0.238 au  H             1.00      1 S               5
                        (      -6.484 eV)
   106     106       --         0.077 au  H             1.00      2 S               5
                        (       2.096 eV)
   107     107       --         1.521 au  H             1.00      3 S               5
                        (      41.380 eV)
   108     108       --         0.410 au  H             1.00      1 P:x             5
                        (      11.162 eV)
   109     109       --         0.410 au  H             1.00      1 P:y             5
                        (      11.162 eV)
   110     110       --         0.410 au  H             1.00      1 P:z             5
                        (      11.162 eV)
   111     111       --         2.567 au  H             1.00      1 D:z2            5
                        (      69.838 eV)
   112     112       --         2.567 au  H             1.00      1 D:x2-y2         5
                        (      69.838 eV)
   113     113       --         2.567 au  H             1.00      1 D:xy            5
                        (      69.838 eV)
   114     114       --         2.567 au  H             1.00      1 D:xz            5
                        (      69.838 eV)
   115     115       --         2.567 au  H             1.00      1 D:yz            5
                        (      69.838 eV)
   116     116      1.000      -0.238 au  H             1.00      1 S               6
                        (      -6.484 eV)
   117     117       --         0.077 au  H             1.00      2 S               6
                        (       2.096 eV)
   118     118       --         1.521 au  H             1.00      3 S               6
                        (      41.380 eV)
   119     119       --         0.410 au  H             1.00      1 P:x             6
                        (      11.162 eV)
   120     120       --         0.410 au  H             1.00      1 P:y             6
                        (      11.162 eV)
   121     121       --         0.410 au  H             1.00      1 P:z             6
                        (      11.162 eV)
   122     122       --         2.567 au  H             1.00      1 D:z2            6
                        (      69.838 eV)
   123     123       --         2.567 au  H             1.00      1 D:x2-y2         6
                        (      69.838 eV)
   124     124       --         2.567 au  H             1.00      1 D:xy            6
                        (      69.838 eV)
   125     125       --         2.567 au  H             1.00      1 D:xz            6
                        (      69.838 eV)
   126     126       --         2.567 au  H             1.00      1 D:yz            6
                        (      69.838 eV)
   127     127      1.000      -0.238 au  H             1.00      1 S               7
                        (      -6.484 eV)
   128     128       --         0.077 au  H             1.00      2 S               7
                        (       2.096 eV)
   129     129       --         1.521 au  H             1.00      3 S               7
                        (      41.380 eV)
   130     130       --         0.410 au  H             1.00      1 P:x             7
                        (      11.162 eV)
   131     131       --         0.410 au  H             1.00      1 P:y             7
                        (      11.162 eV)
   132     132       --         0.410 au  H             1.00      1 P:z             7
                        (      11.162 eV)
   133     133       --         2.567 au  H             1.00      1 D:z2            7
                        (      69.838 eV)
   134     134       --         2.567 au  H             1.00      1 D:x2-y2         7
                        (      69.838 eV)
   135     135       --         2.567 au  H             1.00      1 D:xy            7
                        (      69.838 eV)
   136     136       --         2.567 au  H             1.00      1 D:xz            7
                        (      69.838 eV)
   137     137       --         2.567 au  H             1.00      1 D:yz            7
                        (      69.838 eV)
   138     138      1.000      -0.238 au  H             1.00      1 S               8
                        (      -6.484 eV)
   139     139       --         0.077 au  H             1.00      2 S               8
                        (       2.096 eV)
   140     140       --         1.521 au  H             1.00      3 S               8
                        (      41.380 eV)
   141     141       --         0.410 au  H             1.00      1 P:x             8
                        (      11.162 eV)
   142     142       --         0.410 au  H             1.00      1 P:y             8
                        (      11.162 eV)
   143     143       --         0.410 au  H             1.00      1 P:z             8
                        (      11.162 eV)
   144     144       --         2.567 au  H             1.00      1 D:z2            8
                        (      69.838 eV)
   145     145       --         2.567 au  H             1.00      1 D:x2-y2         8
                        (      69.838 eV)
   146     146       --         2.567 au  H             1.00      1 D:xy            8
                        (      69.838 eV)
   147     147       --         2.567 au  H             1.00      1 D:xz            8
                        (      69.838 eV)
   148     148       --         2.567 au  H             1.00      1 D:yz            8
                        (      69.838 eV)
   149     149      1.000      -0.238 au  H             1.00      1 S               9
                        (      -6.484 eV)
   150     150       --         0.077 au  H             1.00      2 S               9
                        (       2.096 eV)
   151     151       --         1.521 au  H             1.00      3 S               9
                        (      41.380 eV)
   152     152       --         0.410 au  H             1.00      1 P:x             9
                        (      11.162 eV)
   153     153       --         0.410 au  H             1.00      1 P:y             9
                        (      11.162 eV)
   154     154       --         0.410 au  H             1.00      1 P:z             9
                        (      11.162 eV)
   155     155       --         2.567 au  H             1.00      1 D:z2            9
                        (      69.838 eV)
   156     156       --         2.567 au  H             1.00      1 D:x2-y2         9
                        (      69.838 eV)
   157     157       --         2.567 au  H             1.00      1 D:xy            9
                        (      69.838 eV)
   158     158       --         2.567 au  H             1.00      1 D:xz            9
                        (      69.838 eV)
   159     159       --         2.567 au  H             1.00      1 D:yz            9
                        (      69.838 eV)
   160     160      1.000      -0.238 au  H             1.00      1 S              10
                        (      -6.484 eV)
   161     161       --         0.077 au  H             1.00      2 S              10
                        (       2.096 eV)
   162     162       --         1.521 au  H             1.00      3 S              10
                        (      41.380 eV)
   163     163       --         0.410 au  H             1.00      1 P:x            10
                        (      11.162 eV)
   164     164       --         0.410 au  H             1.00      1 P:y            10
                        (      11.162 eV)
   165     165       --         0.410 au  H             1.00      1 P:z            10
                        (      11.162 eV)
   166     166       --         2.567 au  H             1.00      1 D:z2           10
                        (      69.838 eV)
   167     167       --         2.567 au  H             1.00      1 D:x2-y2        10
                        (      69.838 eV)
   168     168       --         2.567 au  H             1.00      1 D:xy           10
                        (      69.838 eV)
   169     169       --         2.567 au  H             1.00      1 D:xz           10
                        (      69.838 eV)
   170     170       --         2.567 au  H             1.00      1 D:yz           10
                        (      69.838 eV)
   171     171      1.000      -0.238 au  H             1.00      1 S              11
                        (      -6.484 eV)
   172     172       --         0.077 au  H             1.00      2 S              11
                        (       2.096 eV)
   173     173       --         1.521 au  H             1.00      3 S              11
                        (      41.380 eV)
   174     174       --         0.410 au  H             1.00      1 P:x            11
                        (      11.162 eV)
   175     175       --         0.410 au  H             1.00      1 P:y            11
                        (      11.162 eV)
   176     176       --         0.410 au  H             1.00      1 P:z            11
                        (      11.162 eV)
   177     177       --         2.567 au  H             1.00      1 D:z2           11
                        (      69.838 eV)
   178     178       --         2.567 au  H             1.00      1 D:x2-y2        11
                        (      69.838 eV)
   179     179       --         2.567 au  H             1.00      1 D:xy           11
                        (      69.838 eV)
   180     180       --         2.567 au  H             1.00      1 D:xz           11
                        (      69.838 eV)
   181     181       --         2.567 au  H             1.00      1 D:yz           11
                        (      69.838 eV)
   182     182      2.000     -18.926 au  O             1.00      1 S              12
                        (    -515.001 eV)
   183     183      2.000      -0.887 au  O             1.00      2 S              12
                        (     -24.136 eV)
   184     184       --         0.804 au  O             1.00      3 S              12
                        (      21.890 eV)
   185     185       --        13.488 au  O             1.00      4 S              12
                        (     367.032 eV)
   186     186       --       121.767 au  O             1.00      5 S              12
                        (    3313.451 eV)
   187     187      1.333      -0.329 au  O             1.00      1 P:x            12
                        (      -8.949 eV)
   188     188       --         0.351 au  O             1.00      2 P:x            12
                        (       9.557 eV)
   189     189       --         3.863 au  O             1.00      3 P:x            12
                        (     105.120 eV)
   190     190      1.333      -0.329 au  O             1.00      1 P:y            12
                        (      -8.949 eV)
   191     191       --         0.351 au  O             1.00      2 P:y            12
                        (       9.557 eV)
   192     192       --         3.863 au  O             1.00      3 P:y            12
                        (     105.120 eV)
   193     193      1.333      -0.329 au  O             1.00      1 P:z            12
                        (      -8.949 eV)
   194     194       --         0.351 au  O             1.00      2 P:z            12
                        (       9.557 eV)
   195     195       --         3.863 au  O             1.00      3 P:z            12
                        (     105.120 eV)
   196     196       --         1.072 au  O             1.00      1 D:z2           12
                        (      29.175 eV)
   197     197       --         1.072 au  O             1.00      1 D:x2-y2        12
                        (      29.175 eV)
   198     198       --         1.072 au  O             1.00      1 D:xy           12
                        (      29.175 eV)
   199     199       --         1.072 au  O             1.00      1 D:xz           12
                        (      29.175 eV)
   200     200       --         1.072 au  O             1.00      1 D:yz           12
                        (      29.175 eV)
   201     201       --         3.353 au  O             1.00      1 F:z3           12
                        (      91.230 eV)
   202     202       --         3.353 au  O             1.00      1 F:z            12
                        (      91.230 eV)
   203     203       --         3.353 au  O             1.00      1 F:xyz          12
                        (      91.230 eV)
   204     204       --         3.353 au  O             1.00      1 F:z2x          12
                        (      91.230 eV)
   205     205       --         3.353 au  O             1.00      1 F:z2y          12
                        (      91.230 eV)
   206     206       --         3.353 au  O             1.00      1 F:x            12
                        (      91.230 eV)
   207     207       --         3.353 au  O             1.00      1 F:y            12
                        (      91.230 eV)



 ================================
 (Slater-type)  F U N C T I O N S  ***  (Basis and Fit)  ***
 ================================
  

 Atom Type    1  (C)
 ==============

 Valence Basis Sets:  10
 -----------------------
   1 S    7.680000
   1 S    5.000000
   2 S    1.280000
   2 S    2.100000
   2 S    4.600000
   2 P    0.820000
   2 P    1.480000
   2 P    2.940000
   3 D    2.200000
   4 F    3.300000

 Atom Type    2  (H)
 ==============

 Valence Basis Sets:   5
 -----------------------
   1 S    0.690000
   1 S    0.920000
   1 S    1.580000
   2 P    1.250000
   3 D    2.500000

 Atom Type    3  (O)
 ==============

 Valence Basis Sets:  10
 -----------------------
   1 S    9.800000
   1 S    6.800000
   2 S    7.580000
   2 S    2.880000
   2 S    1.720000
   2 P    4.080000
   2 P    2.080000
   2 P    1.120000
   3 D    2.000000
   4 F    3.000000


 BAS: List of all Elementary Cartesian Basis Functions
 =====================================================

 The numbering in the list below (to the right of the function characteristics) is referred
 to in print-outs of MO eigenvectors and Mulliken populations in the BAS representation
 (as contrasted to the SFO representation).

 Notes:
 1. The functions are characterized by a polynomial prefactor (powers of x,y,z and r) and
    an exponential decay factor alpha.
 2. Since the basis sets are specific for an atom TYPE, the individual functions occur on
    all atoms of that type.
 3. The word 'Core' in the left margin signals that it is a Core Function (CF) : not a
    degree of freedom in the valence set, but only used to ensure orthogonalization of
    the other valence basis functions on the frozen Core Orbitals.


 (power of) X  Y  Z  R     Alpha  on Atom
            ==========     =====     ==========

 C                                    1    2    3    4
                                  ---------------------------------------------------------------------------
            0  0  0  0     7.680      1   31   61   91
            0  0  0  0     5.000      2   32   62   92
            0  0  0  1     1.280      3   33   63   93
            0  0  0  1     2.100      4   34   64   94
            0  0  0  1     4.600      5   35   65   95
            1  0  0  0     0.820      6   36   66   96
            0  1  0  0     0.820      7   37   67   97
            0  0  1  0     0.820      8   38   68   98
            1  0  0  0     1.480      9   39   69   99
            0  1  0  0     1.480     10   40   70  100
            0  0  1  0     1.480     11   41   71  101
            1  0  0  0     2.940     12   42   72  102
            0  1  0  0     2.940     13   43   73  103
            0  0  1  0     2.940     14   44   74  104
            2  0  0  0     2.200     15   45   75  105
            1  1  0  0     2.200     16   46   76  106
            1  0  1  0     2.200     17   47   77  107
            0  2  0  0     2.200     18   48   78  108
            0  1  1  0     2.200     19   49   79  109
            0  0  2  0     2.200     20   50   80  110
            3  0  0  0     3.300     21   51   81  111
            2  1  0  0     3.300     22   52   82  112
            2  0  1  0     3.300     23   53   83  113
            1  2  0  0     3.300     24   54   84  114
            1  1  1  0     3.300     25   55   85  115
            1  0  2  0     3.300     26   56   86  116
            0  3  0  0     3.300     27   57   87  117
            0  2  1  0     3.300     28   58   88  118
            0  1  2  0     3.300     29   59   89  119
            0  0  3  0     3.300     30   60   90  120

 H                                    5    6    7    8    9   10   11
                                  ---------------------------------------------------------------------------
            0  0  0  0     0.690    121  133  145  157  169  181  193
            0  0  0  0     0.920    122  134  146  158  170  182  194
            0  0  0  0     1.580    123  135  147  159  171  183  195
            1  0  0  0     1.250    124  136  148  160  172  184  196
            0  1  0  0     1.250    125  137  149  161  173  185  197
            0  0  1  0     1.250    126  138  150  162  174  186  198
            2  0  0  0     2.500    127  139  151  163  175  187  199
            1  1  0  0     2.500    128  140  152  164  176  188  200
            1  0  1  0     2.500    129  141  153  165  177  189  201
            0  2  0  0     2.500    130  142  154  166  178  190  202
            0  1  1  0     2.500    131  143  155  167  179  191  203
            0  0  2  0     2.500    132  144  156  168  180  192  204

 O                                   12
                                  ---------------------------------------------------------------------------
            0  0  0  0     9.800    205
            0  0  0  0     6.800    206
            0  0  0  1     7.580    207
            0  0  0  1     2.880    208
            0  0  0  1     1.720    209
            1  0  0  0     4.080    210
            0  1  0  0     4.080    211
            0  0  1  0     4.080    212
            1  0  0  0     2.080    213
            0  1  0  0     2.080    214
            0  0  1  0     2.080    215
            1  0  0  0     1.120    216
            0  1  0  0     1.120    217
            0  0  1  0     1.120    218
            2  0  0  0     2.000    219
            1  1  0  0     2.000    220
            1  0  1  0     2.000    221
            0  2  0  0     2.000    222
            0  1  1  0     2.000    223
            0  0  2  0     2.000    224
            3  0  0  0     3.000    225
            2  1  0  0     3.000    226
            2  0  1  0     3.000    227
            1  2  0  0     3.000    228
            1  1  1  0     3.000    229
            1  0  2  0     3.000    230
            0  3  0  0     3.000    231
            0  2  1  0     3.000    232
            0  1  2  0     3.000    233
            0  0  3  0     3.000    234

 Total number of charge fitting functions (nprimf)       770
 Total number of Cartesian basis functions (naos)        234
 Total number of Cartesian core functions  (ncos)          0

1
 ***************************************************************************************************



                                              ***********************
                                              *  T E C H N I C A L  *
                                              ***********************
  



 =============================================================
 P A R A L L E L I Z A T I O N  and  V E C T O R I Z A T I O N
 =============================================================
  
 Nr of parallel processes:                                4
 Maximum vector length in NumInt loops:                 128



 =====================
 S C F   U P D A T E S
 =====================
  
 Max. nr. of cycles:                                99
 Convergence criterion:                              0.0000010000
   secondary criterion:                              0.0010000000

 Mix parameter (when DIIS does not apply):           0.2000000000
 Mixed ADIIS+SDIIS will be used                  
    Max number of expansion vectors:                10
    Pure ADIIS when Max([F,P]) is above              0.1000000000
    Pure SDIIS when Max([F,P]) is below              0.0010000000
 Automatic ElectronSmearing (in case of problematic SCF convergence) disabled



 =================
 P R E C I S I O N  ***  (General: NumInt, NeglectFunctionTails, ...)  ***
 =================
  

 NumInt:           Target precision:                 8.0000000000
 -------           Initial precision:                8.0000000000
                   Min. precision (optimization):    8.0000000000

 Neglect Functions:          Basis functions:        0.1000000000E-09
 ------------------          Fit functions:          0.1000000000E-09



 ===========================
 L I N E A R   S C A L I N G
 ===========================
  

 Cut-off radii density fit:                        0.1000000000E-11
 Overlap cut-off criterion AO matrix elements:     0.1000000000E-09
 Cut-offs for Coulomb potential and fitted density:0.1000000000E-11
 Cut-off criterion for Coulomb multipole terms:    0.1000000000E-11
 Progressive Convergence parameter:                 0.000000000    

 Number of elements of the density matrix on this node (used, total):      7305     27495



 ===========================================
 Numerical Integration : Fuzzy Cells (Becke)
 ===========================================
  
 Becke grid quality: VERYGOOD       
  
 Lebedev angular grid order:             min:  13 max:  41
 Nr. of radial points:                   min:  64 max:  72

 Total nr. of points:     282964
 Nr. of blocks:             2211
 Block length:               128
 Nr. of dummy points:         44


 Test of Precision of the Numerical Integration Grid
 ===================================================

 Integral of the Total Core Density:                   0.00000000000000



 ========================
 Density Fitting (zlmFit)
 ========================
  
 ZlmFit Fit Quality: VERYGOOD       
  
 Max L-expansion:                        min:  10 max:  11
 Nr. of radial interpolation points:     min: 130 max: 180



 =====
 S C F  ***  ScaSCF  ***
 =====
  
 Initial density matrix is taken from previous geometry

 CYCLE    1
  ***********************************************************
  ** : orbital data taken from :/scratch/3982/amstmp_41.no_catalyst.H_H.P1_kid0.632767935/GOStep7.rkf
  ***********************************************************
 SCF Error: norm([F,P])=      0.000000634951, max([F,P])=      0.000000075731
 ***** SPIN 1 *****
 orbitals (Q,E):
 ---------------
 A :11...30          ( 1.00    -0.4509)  ( 1.00    -0.4064)  ( 1.00    -0.3995)  ( 1.00    -0.3639)
                     ( 1.00    -0.3624)  ( 1.00    -0.3414)  ( 1.00    -0.3248)  ( 1.00    -0.3132)
                     ( 1.00    -0.2150)  ( 1.00    -0.2095)  ( 0.00    -0.0270)  ( 0.00    -0.0125)
                     ( 0.00     0.0020)  ( 0.00     0.0156)  ( 0.00     0.0246)  ( 0.00     0.0486)
                     ( 0.00     0.0636)  ( 0.00     0.0736)  ( 0.00     0.1222)  ( 0.00     0.1351)
 ***** SPIN 2 *****
 orbitals (Q,E):
 ---------------
 A :10...29          ( 1.00    -0.4853)  ( 1.00    -0.4459)  ( 1.00    -0.4002)  ( 1.00    -0.3939)
                     ( 1.00    -0.3566)  ( 1.00    -0.3504)  ( 1.00    -0.3278)  ( 1.00    -0.3197)
                     ( 1.00    -0.3111)  ( 1.00    -0.2049)  ( 0.00    -0.1579)  ( 0.00    -0.0182)
                     ( 0.00    -0.0036)  ( 0.00     0.0089)  ( 0.00     0.0156)  ( 0.00     0.0249)
                     ( 0.00     0.0489)  ( 0.00     0.0649)  ( 0.00     0.0739)  ( 0.00     0.1246)
  
 Spin polar: 1 (Spin_A minus Spin_B electrons)

 CYCLE    2
  SDIIS (wt  0.000):  0.6131  0.3869
 A-DIIS (wt  1.000):  0.0000  1.0000
  DIIS coefficients:  0.0000  1.0000
 SCF Error: norm([F,P])=      0.000000997395, max([F,P])=      0.000000113428
 ***** SPIN 1 *****
 orbitals (Q,E):
 ---------------
 A :11...21          ( 1.00    -0.4509)  ( 1.00    -0.4064)  ( 1.00    -0.3995)  ( 1.00    -0.3639)
                     ( 1.00    -0.3624)  ( 1.00    -0.3414)  ( 1.00    -0.3248)  ( 1.00    -0.3132)
                     ( 1.00    -0.2150)  ( 1.00    -0.2095)  ( 0.00    -0.0270)
 ***** SPIN 2 *****
 orbitals (Q,E):
 ---------------
 A :10...20          ( 1.00    -0.4853)  ( 1.00    -0.4459)  ( 1.00    -0.4002)  ( 1.00    -0.3939)
                     ( 1.00    -0.3566)  ( 1.00    -0.3504)  ( 1.00    -0.3278)  ( 1.00    -0.3197)
                     ( 1.00    -0.3111)  ( 1.00    -0.2049)  ( 0.00    -0.1579)
  
 Spin polar: 1 (Spin_A minus Spin_B electrons)

 SCF CONVERGED

 CYCLE    3
1
 ***************************************************************************************************



                                                *******************
                                                *  R E S U L T S  *
                                                *******************
  
 *** Using FIT density in Focky
  SDIIS (wt  0.000):  0.2801  0.5162  0.2037
 A-DIIS (wt  1.000):  0.0000  0.7060  0.2940
  DIIS coefficients:  0.0000  0.7060  0.2940
 SCF Error: norm([F,P])=      0.000001697878, max([F,P])=      0.000000176897


                                   ***** SPIN 1 *****

 Scaled ZORA Orbital Energies, per Irrep and Spin:
 =================================================
                        Occup              E (au)              E (eV)       Diff (eV) with prev. cycle
                        -----      --------------------        ------       --------------------------
 A
              11        1.000     -0.45089702524053E+00       -12.270              -1.00E-06
              12        1.000     -0.40638216524883E+00       -11.058               9.68E-07
              13        1.000     -0.39953963860336E+00       -10.872               1.49E-07
              14        1.000     -0.36392733827982E+00        -9.903              -8.44E-07
              15        1.000     -0.36236529680889E+00        -9.860              -4.57E-07
              16        1.000     -0.34140789015814E+00        -9.290               1.77E-07
              17        1.000     -0.32479859504272E+00        -8.838               1.82E-06
              18        1.000     -0.31321095418540E+00        -8.523               1.92E-06
              19        1.000     -0.21504820343651E+00        -5.852              -2.91E-06
              20        1.000     -0.20952721418630E+00        -5.702              -6.11E-07
              21        0.000     -0.26988121333374E-01        -0.734
              22        0.000     -0.12461859638988E-01        -0.339
              23        0.000      0.19628495483307E-02         0.053
              24        0.000      0.15602082518821E-01         0.425
              25        0.000      0.24622937358101E-01         0.670
              26        0.000      0.48600066911033E-01         1.322
              27        0.000      0.63599759105408E-01         1.731
              28        0.000      0.73633312331818E-01         2.004
              29        0.000      0.12219335937959E+00         3.325
              30        0.000      0.13510389804354E+00         3.676
  
 HOMO :       20 A                -0.20952721418630E+00
 LUMO :       21 A                -0.26988121333374E-01
  


                                   ***** SPIN 2 *****

 Scaled ZORA Orbital Energies, per Irrep and Spin:
 =================================================
                        Occup              E (au)              E (eV)       Diff (eV) with prev. cycle
                        -----      --------------------        ------       --------------------------
 A
              10        1.000     -0.48530148892827E+00       -13.206              -2.82E-07
              11        1.000     -0.44591181737157E+00       -12.134              -9.04E-07
              12        1.000     -0.40017427047621E+00       -10.889               1.37E-06
              13        1.000     -0.39391486543684E+00       -10.719               2.72E-07
              14        1.000     -0.35662619079264E+00        -9.704              -7.54E-07
              15        1.000     -0.35044660073246E+00        -9.536               1.36E-06
              16        1.000     -0.32775755739374E+00        -8.919              -1.69E-06
              17        1.000     -0.31974322620308E+00        -8.701               1.30E-06
              18        1.000     -0.31109486562687E+00        -8.465               1.72E-06
              19        1.000     -0.20492472378853E+00        -5.576              -2.94E-06
              20        0.000     -0.15785137158763E+00        -4.295
              21        0.000     -0.18158907916406E-01        -0.494
              22        0.000     -0.35521506741586E-02        -0.097
              23        0.000      0.88731887355806E-02         0.241
              24        0.000      0.15645055450266E-01         0.426
              25        0.000      0.24948229881732E-01         0.679
              26        0.000      0.48879331397343E-01         1.330
              27        0.000      0.64914972352021E-01         1.766
              28        0.000      0.73948447488065E-01         2.012
              29        0.000      0.12459710723426E+00         3.390
  
 HOMO :       19 A                -0.20492472378853E+00
 LUMO :       20 A                -0.15785137158763E+00
  


 Orbital Energies, both Spins
 ========================================

 Irrep        no.  (spin)   Occup              E (au)                E (eV)
 ---------------------------------------------------------------------------
 A             1     A       1.00       -0.18771263475996E+02      -510.7921
 A             1      B      1.00       -0.18765438673344E+02      -510.6336
 A             2      B      1.00       -0.99793152020609E+01      -271.5510
 A             2     A       1.00       -0.99787085390083E+01      -271.5345
 A             3     A       1.00       -0.99503964929139E+01      -270.7641
 A             3      B      1.00       -0.99446553201778E+01      -270.6078
 A             4      B      1.00       -0.99262195356294E+01      -270.1062
 A             4     A       1.00       -0.99259944835587E+01      -270.1001
 A             5     A       1.00       -0.99139876169198E+01      -269.7733
 A             5      B      1.00       -0.99134963439501E+01      -269.7600
 A             6     A       1.00       -0.95382803061206E+00       -25.9550
 A             6      B      1.00       -0.94032399248688E+00       -25.5875
 A             7     A       1.00       -0.74596668535323E+00       -20.2988
 A             7      B      1.00       -0.73497861260375E+00       -19.9998
 A             8     A       1.00       -0.66401835561593E+00       -18.0689
 A             8      B      1.00       -0.65152485798344E+00       -17.7289
 A             9     A       1.00       -0.57756398545510E+00       -15.7163
 A             9      B      1.00       -0.57420623000185E+00       -15.6249
 A            10     A       1.00       -0.49355166868497E+00       -13.4302
 A            10      B      1.00       -0.48530148892827E+00       -13.2057
 A            11     A       1.00       -0.45089702524053E+00       -12.2695
 A            11      B      1.00       -0.44591181737157E+00       -12.1339
 A            12     A       1.00       -0.40638216524883E+00       -11.0582
 A            12      B      1.00       -0.40017427047621E+00       -10.8893
 A            13     A       1.00       -0.39953963860336E+00       -10.8720
 A            13      B      1.00       -0.39391486543684E+00       -10.7190
 A            14     A       1.00       -0.36392733827982E+00        -9.9030
 A            15     A       1.00       -0.36236529680889E+00        -9.8605
 A            14      B      1.00       -0.35662619079264E+00        -9.7043
 A            15      B      1.00       -0.35044660073246E+00        -9.5361
 A            16     A       1.00       -0.34140789015814E+00        -9.2902
 A            16      B      1.00       -0.32775755739374E+00        -8.9187
 A            17     A       1.00       -0.32479859504272E+00        -8.8382
 A            17      B      1.00       -0.31974322620308E+00        -8.7007
 A            18     A       1.00       -0.31321095418540E+00        -8.5229
 A            18      B      1.00       -0.31109486562687E+00        -8.4653
 A            19     A       1.00       -0.21504820343651E+00        -5.8518
 A            20     A       1.00       -0.20952721418630E+00        -5.7015
 A            19      B      1.00       -0.20492472378853E+00        -5.5763
 A            20      B      0.00       -0.15785137158763E+00        -4.2954
 A            21     A       0.00       -0.26988121333374E-01        -0.7344
 A            21      B      0.00       -0.18158907916406E-01        -0.4941
 A            22     A       0.00       -0.12461859638988E-01        -0.3391
 A            22      B      0.00       -0.35521506741586E-02        -0.0967
 A            23     A       0.00        0.19628495483307E-02         0.0534
 A            23      B      0.00        0.88731887355806E-02         0.2415
 A            24     A       0.00        0.15602082518821E-01         0.4246
 A            24      B      0.00        0.15645055450266E-01         0.4257
 A            25     A       0.00        0.24622937358101E-01         0.6700
 A            25      B      0.00        0.24948229881732E-01         0.6789
[...]
     4     C      -0.083054  -0.012431   0.169418
     5     H      -0.106264  -0.043865   0.234956
     6     O       0.021570   0.005062  -0.036301
     7     C      -0.027587   0.023404   0.012878
     8     H      -0.008538   0.010977  -0.239387
     9     H       0.095331  -0.085616   0.142241
    10     H       0.088875  -0.051627   0.004121
    11     H       0.119166  -0.168839   0.119264
    12     H       0.330605   0.097689  -0.777583
 
 Mode:    17      Frequency (cm-1):      979.8693     Intensity (km/mol):        8.8894
 Index  Atom      ---- Displacements (x/y/z) ----
     1     C       0.059974   0.057606   0.076736
     2     C       0.144150  -0.077545   0.205367
     3     H       0.168352  -0.122436   0.285460
     4     C      -0.114139   0.058333  -0.072602
     5     H       0.191109   0.032864   0.019003
     6     O      -0.012872  -0.023381  -0.001737
     7     C      -0.103166   0.027942  -0.205214
     8     H      -0.033735   0.060814  -0.376319
     9     H       0.052504  -0.036358  -0.029891
    10     H       0.003286  -0.004423  -0.303625
    11     H       0.291270  -0.323093   0.385814
    12     H      -0.311557  -0.026161  -0.003932
 
 Mode:    18      Frequency (cm-1):     1018.0533     Intensity (km/mol):        0.8729
 Index  Atom      ---- Displacements (x/y/z) ----
     1     C      -0.013017  -0.016107   0.088285
     2     C       0.029621   0.002089  -0.167256
     3     H      -0.098461   0.017303  -0.004089
     4     C       0.004129   0.015202  -0.066336
     5     H       0.149543  -0.032132  -0.083641
     6     O      -0.009119  -0.008012   0.010420
     7     C      -0.058901   0.073270   0.116734
     8     H      -0.030490   0.025432  -0.526844
     9     H       0.233231  -0.235132   0.414654
    10     H       0.259796  -0.148816   0.134722
    11     H       0.215352  -0.358490   0.068598
    12     H      -0.129795  -0.027515   0.171450
 
 Mode:    19      Frequency (cm-1):     1053.5402     Intensity (km/mol):        4.5027
 Index  Atom      ---- Displacements (x/y/z) ----
     1     C       0.117165   0.055218   0.029683
     2     C      -0.087617  -0.039602  -0.018603
     3     H       0.186946  -0.192353  -0.051807
     4     C      -0.052087   0.007903  -0.008792
     5     H       0.607918  -0.227634   0.282905
     6     O      -0.041146  -0.036995  -0.024956
     7     C       0.049423   0.060236   0.015660
     8     H      -0.141506  -0.085495  -0.063318
     9     H      -0.099649  -0.079463  -0.191994
    10     H       0.057512  -0.085643   0.352244
    11     H      -0.111073   0.323881  -0.023561
    12     H      -0.167226  -0.063421  -0.122085
 
 Mode:    20      Frequency (cm-1):     1164.3647     Intensity (km/mol):        4.4020
 Index  Atom      ---- Displacements (x/y/z) ----
     1     C      -0.073411   0.159825  -0.006476
     2     C      -0.033651  -0.180242  -0.021993
     3     H       0.313107  -0.398251  -0.009499
     4     C       0.087493  -0.046581   0.030283
     5     H      -0.489564   0.381684  -0.159369
     6     O      -0.004608   0.022206   0.001163
     7     C       0.036276   0.069323  -0.012212
     8     H      -0.152097  -0.081116  -0.097171
     9     H      -0.048305  -0.143981  -0.153698
    10     H       0.083727  -0.091952   0.286277
    11     H       0.114477   0.012138   0.215971
    12     H       0.052859  -0.058625   0.022827
 
 Mode:    21      Frequency (cm-1):     1233.3712     Intensity (km/mol):        0.4348
 Index  Atom      ---- Displacements (x/y/z) ----
     1     C      -0.005051   0.057319  -0.020542
     2     C       0.074409  -0.037515   0.013191
     3     H       0.202842  -0.207044   0.249757
     4     C       0.025793  -0.011320   0.015962
     5     H       0.027420   0.028204   0.043275
     6     O      -0.008863  -0.000224  -0.005240
     7     C      -0.095425  -0.018610   0.023765
     8     H       0.093158   0.099445  -0.099374
     9     H       0.145916  -0.040383   0.319999
    10     H       0.088037  -0.051167  -0.191836
    11     H      -0.394008   0.332585  -0.599138
    12     H      -0.019436  -0.037510  -0.025011
 
 Mode:    22      Frequency (cm-1):     1283.6001     Intensity (km/mol):        1.2528
 Index  Atom      ---- Displacements (x/y/z) ----
     1     C      -0.064878   0.048210  -0.009686
     2     C      -0.048110   0.098511  -0.076830
     3     H       0.354036  -0.391546   0.579480
     4     C       0.046339  -0.020091   0.013535
     5     H       0.270228  -0.135361   0.112597
     6     O      -0.009825  -0.005913  -0.004366
     7     C       0.004132  -0.074961  -0.007774
     8     H       0.114697   0.023699   0.161807
     9     H      -0.000610   0.160317   0.034641
    10     H      -0.114648   0.059176  -0.122187
    11     H       0.190190  -0.233599   0.223958
    12     H       0.086406  -0.004060   0.040533
 
 Mode:    23      Frequency (cm-1):     1362.1308     Intensity (km/mol):        5.6361
 Index  Atom      ---- Displacements (x/y/z) ----
     1     C       0.047411  -0.036066   0.014041
     2     C      -0.018185   0.014454  -0.020285
     3     H       0.038718  -0.081389   0.143363
     4     C       0.001550  -0.033661  -0.003565
     5     H      -0.174902   0.075901  -0.051462
     6     O       0.015781   0.058635   0.013419
     7     C       0.030247  -0.024768   0.099010
     8     H      -0.028411  -0.095533  -0.433757
     9     H      -0.291179   0.076833  -0.308274
    10     H      -0.084017   0.233465  -0.405527
    11     H      -0.012502   0.075462  -0.004043
    12     H      -0.424754  -0.262281  -0.215378
 
 Mode:    24      Frequency (cm-1):     1373.1972     Intensity (km/mol):        6.5374
 Index  Atom      ---- Displacements (x/y/z) ----
     1     C      -0.009157   0.042695   0.000386
     2     C       0.015124  -0.025960   0.006432
     3     H      -0.017167  -0.000567  -0.004664
     4     C      -0.028632   0.056463  -0.006631
     5     H       0.060555   0.014528   0.033464
     6     O      -0.019486  -0.085169  -0.018196
     7     C       0.020838  -0.004905   0.076166
     8     H      -0.036003  -0.071479  -0.347510
     9     H      -0.232114   0.002917  -0.259424
    10     H      -0.017099   0.161560  -0.316644
    11     H      -0.016333   0.035202  -0.028833
    12     H       0.589166   0.396378   0.303276
 
 Mode:    25      Frequency (cm-1):     1414.4423     Intensity (km/mol):        3.5708
 Index  Atom      ---- Displacements (x/y/z) ----
     1     C      -0.187251   0.067859  -0.065610
     2     C       0.059838  -0.017026   0.075032
     3     H       0.020692   0.197639  -0.458356
     4     C       0.123620  -0.017497   0.050685
     5     H       0.496957  -0.295047   0.149237
     6     O      -0.019463   0.009809  -0.006729
     7     C       0.013186   0.011871   0.028593
     8     H      -0.017491  -0.020307  -0.134956
     9     H      -0.118898  -0.045706  -0.159724
    10     H       0.049507   0.045782  -0.125890
    11     H      -0.041186  -0.361427  -0.116838
    12     H      -0.192530  -0.214869  -0.102809
 
 Mode:    26      Frequency (cm-1):     1430.9523     Intensity (km/mol):       10.5853
 Index  Atom      ---- Displacements (x/y/z) ----
     1     C       0.054156  -0.016676   0.028315
     2     C      -0.047975   0.058565   0.036216
     3     H       0.555781  -0.168938  -0.413025
     4     C      -0.043385  -0.009735  -0.019872
     5     H      -0.111577   0.085427  -0.071118
     6     O       0.011209   0.006536   0.006238
     7     C       0.008692  -0.008123   0.001383
     8     H      -0.046369  -0.044829  -0.074804
     9     H       0.042640   0.122194   0.078395
    10     H      -0.145760   0.064620   0.083155
    11     H      -0.197564  -0.507943  -0.286866
    12     H       0.064432   0.059612   0.037054
 
 Mode:    27      Frequency (cm-1):     1461.5042     Intensity (km/mol):        5.7436
 Index  Atom      ---- Displacements (x/y/z) ----
     1     C      -0.010909   0.004382  -0.004926
     2     C       0.022406   0.000521  -0.006205
     3     H      -0.045942   0.017403   0.073330
     4     C       0.007710   0.001898   0.003548
     5     H       0.037220  -0.021088   0.016899
     6     O      -0.002417  -0.002057  -0.001275
     7     C       0.044724   0.018076  -0.013450
     8     H      -0.556459  -0.402278   0.052221
     9     H       0.268513  -0.248703   0.253263
    10     H      -0.426641   0.345450  -0.098274
    11     H       0.006496   0.053499  -0.021211
    12     H      -0.006045  -0.007836  -0.005544
 
 Mode:    28      Frequency (cm-1):     1468.1494     Intensity (km/mol):        8.0414
 Index  Atom      ---- Displacements (x/y/z) ----
     1     C      -0.017829   0.011050  -0.007136
     2     C       0.023415  -0.038679  -0.000754
     3     H      -0.129825   0.052781   0.008691
     4     C       0.016893   0.011190   0.008228
     5     H       0.018650  -0.009830   0.014015
     6     O      -0.006932  -0.008853  -0.003946
     7     C       0.015431  -0.045719  -0.013412
     8     H       0.101434   0.007453  -0.405921
     9     H       0.053755   0.650168   0.179676
    10     H      -0.393020   0.081242   0.409692
    11     H       0.018367   0.105995   0.017151
    12     H      -0.010726  -0.007202  -0.005022
 
 Mode:    29      Frequency (cm-1):     1553.2704     Intensity (km/mol):       68.8535
 Index  Atom      ---- Displacements (x/y/z) ----
     1     C       0.067104  -0.090168   0.020356
     2     C      -0.029134   0.043308  -0.008025
     3     H       0.148557  -0.066858   0.012400
     4     C       0.238802   0.398773   0.149471
     5     H      -0.403595   0.165966  -0.157414
     6     O      -0.156875  -0.249637  -0.096616
     7     C      -0.002167  -0.005360  -0.005211
     8     H       0.007793   0.011907   0.096174
     9     H       0.014669  -0.039266   0.008063
    10     H       0.023551  -0.016118  -0.025631
    11     H      -0.017917  -0.118244  -0.011394
    12     H      -0.553012  -0.101818  -0.253338
 
 Mode:    30      Frequency (cm-1):     2858.1914     Intensity (km/mol):      130.7414
 Index  Atom      ---- Displacements (x/y/z) ----
     1     C      -0.000514   0.003068   0.000177
     2     C      -0.000482  -0.000100  -0.000326
     3     H       0.004068   0.012468   0.003174
     4     C       0.042152  -0.070054   0.010256
     5     H      -0.012580  -0.050284  -0.011984
     6     O      -0.002121  -0.002786  -0.001242
     7     C       0.000154  -0.000111   0.000081
     8     H      -0.001319   0.001729   0.000737
     9     H       0.001645   0.000173  -0.001198
    10     H      -0.001404  -0.002188  -0.000709
    11     H      -0.000940  -0.001379   0.001262
    12     H      -0.447670   0.883810  -0.092870
 
 Mode:    31      Frequency (cm-1):     2941.3258     Intensity (km/mol):        9.7433
 Index  Atom      ---- Displacements (x/y/z) ----
     1     C      -0.001413   0.001759   0.000775
     2     C      -0.055792   0.005233   0.049017
     3     H      -0.108401  -0.148659  -0.041955
     4     C       0.000583   0.000349   0.000906
     5     H      -0.005917  -0.011942  -0.007291
     6     O      -0.000039  -0.000268  -0.000129
     7     C       0.004445  -0.000774  -0.001442
     8     H      -0.017840   0.028861  -0.002434
     9     H      -0.038544  -0.006454   0.030669
    10     H      -0.005534  -0.013718  -0.006074
    11     H       0.799867   0.075743  -0.556032
    12     H      -0.001760   0.002225  -0.001320
 
 Mode:    32      Frequency (cm-1):     2995.5834     Intensity (km/mol):       27.5700
 Index  Atom      ---- Displacements (x/y/z) ----
     1     C      -0.000915  -0.000862  -0.000538
     2     C      -0.001044  -0.001504  -0.000998
     3     H       0.011257   0.017816   0.007691
     4     C      -0.000163  -0.000055  -0.000091
     5     H       0.007734   0.015050   0.005873
     6     O       0.000070   0.000101   0.000042
     7     C       0.018175  -0.002487   0.045123
     8     H      -0.322769   0.457818  -0.025540
     9     H       0.433855   0.065491  -0.324009
    10     H      -0.325939  -0.495927  -0.180738
    11     H       0.001784  -0.000557  -0.002181
    12     H       0.001826  -0.002838   0.000340
 
 Mode:    33      Frequency (cm-1):     3054.8410     Intensity (km/mol):        2.7202
 Index  Atom      ---- Displacements (x/y/z) ----
     1     C       0.002827   0.007362   0.002515
     2     C      -0.041993  -0.055778  -0.014044
     3     H       0.414582   0.666100   0.244184
     4     C      -0.001276   0.000681  -0.000480
     5     H      -0.039726  -0.090531  -0.028356
     6     O      -0.000051   0.000379   0.000034
     7     C       0.022625   0.044491  -0.003524
     8     H       0.147413  -0.185731   0.011036
     9     H      -0.202744  -0.018755   0.159067
    10     H      -0.215281  -0.324127  -0.124353
    11     H       0.100846  -0.001123  -0.078724
    12     H       0.007855  -0.013220   0.001570
 
 Mode:    34      Frequency (cm-1):     3074.4918     Intensity (km/mol):       20.4419
 Index  Atom      ---- Displacements (x/y/z) ----
     1     C       0.004369   0.010251   0.003349
     2     C      -0.019253  -0.028369  -0.008296
     3     H       0.205686   0.327998   0.122435
     4     C      -0.001280   0.000681  -0.000389
     5     H      -0.052918  -0.118237  -0.037864
     6     O       0.000052   0.000229   0.000044
     7     C       0.019879  -0.079315  -0.016029
     8     H      -0.418906   0.573741  -0.047808
     9     H      -0.109756  -0.036375   0.083493
    10     H       0.290391   0.411418   0.160055
    11     H       0.034378  -0.000341  -0.027701
    12     H       0.006063  -0.009829   0.001081
 
 Mode:    35      Frequency (cm-1):     3077.7470     Intensity (km/mol):       17.9329
 Index  Atom      ---- Displacements (x/y/z) ----
     1     C      -0.003688  -0.008427  -0.002643
     2     C       0.020383   0.021833   0.002325
     3     H      -0.158457  -0.251506  -0.094345
     4     C       0.000759  -0.000582   0.000237
     5     H       0.043784   0.098862   0.031223
     6     O      -0.000006  -0.000098   0.000010
     7     C       0.081967   0.010136  -0.027485
     8     H      -0.180080   0.283100  -0.025360
     9     H      -0.608549  -0.091652   0.477485
    10     H      -0.189006  -0.312702  -0.126367
    11     H      -0.086677  -0.005651   0.066768
    12     H      -0.004717   0.007739  -0.001331
 
 Mode:    36      Frequency (cm-1):     3099.7583     Intensity (km/mol):       26.3267
 Index  Atom      ---- Displacements (x/y/z) ----
     1     C      -0.031868  -0.073317  -0.022929
     2     C      -0.011660  -0.010810  -0.002782
     3     H       0.086990   0.142695   0.051259
     4     C       0.003929  -0.005010   0.001159
     5     H       0.364612   0.862997   0.267076
     6     O       0.000218   0.000984   0.000201
     7     C      -0.004416  -0.007221  -0.000452
     8     H      -0.015038   0.019485  -0.000144
     9     H       0.024626   0.002009  -0.019688
    10     H       0.045842   0.065990   0.028759
    11     H       0.037895   0.000269  -0.026461
    12     H      -0.024291   0.038257  -0.006273

PES point character: Geometry corresponds to a local minimum on the PES.




 ============================
 Statistical Thermal Analysis  ***  ideal gas assumed  ***
 ============================
  
 Pressure:                  1.000000 atm.
 Temperature:             298.150000 K



 Moments of Inertia [amu*bohr^2] and principal axis
 ==================================================

         133.4516        679.7236        736.1527
 ------------------------------------------------
          -0.7973         -0.2275         -0.5590
           0.2093         -0.9730          0.0974
          -0.5661         -0.0393          0.8234


 The rotational contribution to the molecular entropy includes
 a term, dependent on the symmetry number sigma. The results 
 reported below were computed using sigma = 1, determined from
 the point group symmetry of the input geometry (NOSYM). 
 If this is not the correct symmetry, try symmetrizing the molecule before
 running the calculation (note: linear molecules should be aligned along one
 of the Cartesian axes).
 Contributions from frequencies below 20 1/cm are not included in vibrational sums.
 Their contributions, if any, are reported separately.


     Temp                                                        Transl      Rotat     Vibrat     Total
     ----                                                        ------      -----     ------     -----

     298.15   Entropy (cal/mol-K):                               38.699     25.705     13.872     78.276
              Nuclear Internal Energy (kcal/mol):                 0.889      0.889     63.456     65.233
              Constant Volume Heat Capacity (cal/mol-K):          2.981      2.981     14.693     20.654
          (c) Constant Volume Heat Capacity (cal/mol-K):          2.981      2.981     13.623     19.584

       Summary of energy terms
                                                   hartree              eV         kcal/mol           kJ/mol
                                      --------------------     -----------       ----------      -----------
      Energy from Engine:               -2.384134951134941        -64.8756         -1496.07         -6259.55
      Nuclear Internal Energy:           0.103955700200238          2.8288            65.23           272.94
  (c) Nuclear Internal Energy:           0.103416705566114          2.8141            64.89           271.52
      Internal Energy U:                -2.280179250934703        -62.0468         -1430.83         -5986.61
      pV/n = RT:                         0.000944186013486          0.0257             0.59             2.48
      Enthalpy H:                       -2.279235064921217        -62.0211         -1430.24         -5984.13
      -T*S:                             -0.037191324412944         -1.0120           -23.34           -97.65
  (c) -T*S:                             -0.036448642357836         -0.9918           -22.87           -95.70
      Gibbs free energy:                -2.316426389334160        -63.0332         -1453.58         -6081.78
 
 
 
  (c) The properties marked with this symbol have been corrected using 'low vibrational frequency free rotor
      interpolation corrections'. For those terms all positive frequencies are used (also ones below 20 1/cm),
      but the contribution to the partition function of small vibrational frequencies is modified as described
      in the following paper:
      S. Grimme, 'Supramolecular Binding Thermodynamics by Dispersion-Corrected Density Functional Theory'
      (Chem. Eur. J. 2012, 18, 9955-9964)
      Configuration: Dampener Frequency          :   100.000 1/cm
                     Dampener Alpha              :     4.000
                     Averaging Moment of Inertia : 1.000E-44 kg m2

--------------
Atomic charges
--------------
  Index   Atom    Charge
      1      C    0.2774
      2      C    0.3855
      3      H   -0.1628
      4      C    0.5858
      5      H   -0.2055
      6      O   -0.4874
      7      C    0.6398
      8      H   -0.2029
      9      H   -0.1969
     10      H   -0.2096
     11      H   -0.1618
     12      H   -0.2617


Dipole moment vector    (Debye):     2.58247452    1.29371217    1.34001467
              magnitude (Debye):     3.18410193


Final PES point is a local minimum. Geometry optimization successful!


AMS application finished. Exiting.
NORMAL TERMINATION
     Total cpu time:    5759.24
  Total system time:      25.39
 Total elapsed time:   11602.40
 WARNING: total elapsed time is much higher than the (CPU+system) time. 
 Make sure the machine is not oversubscribed and has enough memory, SCM_TMPDIR p
 oints to a fast file system, and the network is fast enough.
