

 Parallel Execution: Process Information
 ==============================================================================
 Rank   Node Name                              NodeID   MyNodeRank  NodeMaster
    0   node119                                   0          0          0
    1   node119                                   0          1         -1
    2   node119                                   0          2         -1
    3   node119                                   0          3         -1
 ==============================================================================


May use up to 122928MB of RAM as shared memory on node 0

 *******************************************************************************
 *                                                                             *
 *  --------------------------------                                           *
 *   Amsterdam Modeling Suite (AMS)              2021.102                      *
 *  --------------------------------                                           *
 *                                               r95042 2021-06-07             *
 *                                                                             *
 *                                                                             *
 *                              =================                              *
 *                              |               |                              *
 *                              |     A M S     |                              *
 *                              |               |                              *
 *                              =================                              *
 *                                                                             *
 *                                                                             *
 *   Online information and documentation:  https://www.scm.com/support/       *
 *   E-mail:  support@scm.com   info@scm.com                                   *
 *                                                                             *
 *   Scientific publications using AMS results must be properly referenced     *
 *   See the User Manuals (or the web site) for recommended citations          *
 *   The terms and conditions of the End User License Agreement apply to       *
 *   the use of AMS, https://www.scm.com/license-terms/                        *
 *                                                                             *
 **********************  x86_64_linux_intel / intelmpi  ************************
 
 Licensed to: VU/FEW (+ SARA) / ALGEMEEN / Amsterdam / THE NETHERLANDS
 SCM User ID: u7668
  
 AMS 2021.102  RunTime: Jan18-2022 14:25:03  ShM Nodes: 1  Procs: 4

 AMS jobname: ams
 AMS jobid  : 1116863941

 Start   directory: /scistor/tc/yhk800/master/calculations/3.GO_methyl_radical/
 Results directory: /scistor/tc/yhk800/master/calculations/3.GO_methyl_radical/ams.results/
 Scratch directory: /scratch/3118/amstmp_ams_kid0.1116863941/


 Communication costs MPI_COMM_WORLD:      0.973 usec per message,   0.0040 usec per 8-byte item
 Communication costs for intra-node:      0.965 usec per message,   0.0041 usec per 8-byte item

 RNG seed: -693079833 -1263398546 1387996121 -171164331 371673235 70900711 1371032289 -1139452371



                      ************************************************************************
                      *  ADF 2021.102  RunTime: Jan18-2022 14:25:03  ShM Nodes: 1  Procs: 4  *
                      ************************************************************************
  
       ***************************
       *  GEOMETRY OPTIMIZATION  *
       ***************************

Optimization Method                    Quasi Newton
Optimization Coordinates               Delocalized Coordinates
Optimize lattice                       F
 
 ------------------------------------------------------
 Convergence criteria (Hartree,Angstrom)
 ------------------------------------------------------
 Maximum gradient               0.001000000000
 Maximum rms gradient           0.000666666667
 Maximum step allowed           0.010000000000
 Maximum rms step allowed       0.006666666667
 Maximum energy change allowe   0.000040000000
 Maximum stress energy allowe   0.000500000000
 
Initial model Hessian                  Automatic Hessian
 
------------------------------------
Quasi-Newton Optimizer Parameters
------------------------------------
Hessian Update Method                  BFGS
Maximum number of steps                  250
First GDIIS cycle                          0
Maximum GDIIS vectors                      0
Trust radius (bohr)                        0.200000
Trust radius varies                        T
Constraints converged at all steps         T
Use projector                              T
 
 Rigid motions settings for: old optimizer
 Atomic rotations (x,y,z):     T T T
 Atomic translations (x,y,z):  T T T
 Tolerance:                   1.000000000000000E-006
 
--------
Geometry
--------
Formula: CH3
Atoms
  Index Symbol   x (angstrom)   y (angstrom)   z (angstrom)
      1      H     2.05357037    -0.80344073     0.00000000
      2      C     0.97293718    -0.69574113     0.00000000
      3      H     0.66346652    -0.15035116     0.88661716
      4      H     0.66346652    -0.15035116    -0.88661716
 
Total System Charge             0.00000
 
 
----------------
ADF Engine Input
----------------
 
 BASIS
 type TZ2P
 core none
 END
 SYMMETRY NOSYM
 SCF
 ITERATIONS 99
 Converge 1.0e-6
 END
 XC
 GGA OLYP
 END
 NumericalQuality VERYGOOD
 Unrestricted Yes
 SpinPolarization 1.0
 

 Title: *** (NO TITLE) ***

Number of symmetry operators: 2
Schoenflies symbol:           C(S)
 Using automatic Hessian for delocalized coordinates.
 *** GOStep1 ***

 Energy gradients wrt nuclear displacements
 ==========================================

     Atom      Cartesian (a.u./angstrom)
                 X         Y         Z
 ----------------------------------------
     1 H    -0.006194  0.028080  0.000000
     2 C    -0.029037 -0.061855  0.000000
     3 H     0.017615  0.016888 -0.015237
     4 H     0.017615  0.016888  0.015237
 ----------------------------------------
 Mulliken charges used for AMS results%charges...
 
----------------------------------------------------------------------
Geometry Convergence after Step   1       (Hartree/Angstrom,Angstrom)
----------------------------------------------------------------------
current energy                               -0.63690995 Hartree
energy change                      -0.63690995     0.00004000    F
constrained gradient max            0.06185481     0.00100000    F
constrained gradient rms            0.02441215     0.00066667    F
gradient max                        0.06185481
gradient rms                        0.02441215
cart. step max                      0.02883742     0.01000000    F
cart. step rms                      0.01414142     0.00666667    F
 
 
--------
Geometry
--------
Formula: CH3
Atoms
  Index Symbol   x (angstrom)   y (angstrom)   z (angstrom)
      1      H     2.06593877    -0.82097930     0.00000000
      2      C     0.98646591    -0.66690371     0.00000000
      3      H     0.65051795    -0.15600058     0.90282509
      4      H     0.65051795    -0.15600058    -0.90282509
 
Total System Charge             0.00000
 
 *** GOStep2 ***

 Energy gradients wrt nuclear displacements
 ==========================================

     Atom      Cartesian (a.u./angstrom)
                 X         Y         Z
 ----------------------------------------
     1 H     0.002080  0.020708  0.000000
     2 C    -0.025009 -0.053295  0.000000
     3 H     0.011465  0.016293 -0.006013
     4 H     0.011465  0.016293  0.006013
 ----------------------------------------
 Mulliken charges used for AMS results%charges...

 dE(predicted):    -0.32844E-02, dE(actual):    -0.33768E-02, Trust radius:    0.400000, all in a.u.
 
----------------------------------------------------------------------
Geometry Convergence after Step   2       (Hartree/Angstrom,Angstrom)
----------------------------------------------------------------------
current energy                               -0.64028672 Hartree
energy change                      -0.00337677     0.00004000    F
constrained gradient max            0.05329406     0.00100000    F
constrained gradient rms            0.01992711     0.00066667    F
gradient max                        0.05329406
gradient rms                        0.01992711
cart. step max                      0.05694344     0.01000000    F
cart. step rms                      0.02381471     0.00666667    F
 
 
--------
Geometry
--------
Formula: CH3
Atoms
  Index Symbol   x (angstrom)   y (angstrom)   z (angstrom)
      1      H     2.07743149    -0.84953481     0.00000000
      2      C     1.01317471    -0.60996027     0.00000000
      3      H     0.63141720    -0.17019455     0.92244210
      4      H     0.63141720    -0.17019455    -0.92244210
 
Total System Charge             0.00000
 
 *** GOStep3 ***

 Energy gradients wrt nuclear displacements
 ==========================================

     Atom      Cartesian (a.u./angstrom)
                 X         Y         Z
 ----------------------------------------
     1 H     0.006502  0.010473 -0.000000
     2 C    -0.015624 -0.033219  0.000000
     3 H     0.004561  0.011373  0.001247
     4 H     0.004561  0.011373 -0.001247
 ----------------------------------------
 Mulliken charges used for AMS results%charges...

 dE(predicted):    -0.35218E-02, dE(actual):    -0.41307E-02, Trust radius:    0.800000, all in a.u.
 
----------------------------------------------------------------------
Geometry Convergence after Step   3       (Hartree/Angstrom,Angstrom)
----------------------------------------------------------------------
current energy                               -0.64441743 Hartree
energy change                      -0.00413072     0.00004000    F
constrained gradient max            0.03321901     0.00100000    F
constrained gradient rms            0.01225768     0.00066667    F
gradient max                        0.03321901
gradient rms                        0.01225768
cart. step max                      0.05964284     0.01000000    F
cart. step rms                      0.02265679     0.00666667    F
 
 
--------
Geometry
--------
Formula: CH3
Atoms
  Index Symbol   x (angstrom)   y (angstrom)   z (angstrom)
      1      H     2.07814205    -0.87413656     0.00000000
      2      C     1.04119569    -0.55031743     0.00000000
      3      H     0.61705143    -0.18771509     0.93206188
      4      H     0.61705143    -0.18771509    -0.93206188
 
Total System Charge             0.00000
 
 *** GOStep4 ***

 Energy gradients wrt nuclear displacements
 ==========================================

     Atom      Cartesian (a.u./angstrom)
                 X         Y         Z
 ----------------------------------------
     1 H     0.003421  0.004824 -0.000000
     2 C    -0.007429 -0.015795  0.000000
     3 H     0.002004  0.005486  0.000916
     4 H     0.002004  0.005486 -0.000916
 ----------------------------------------
 Mulliken charges used for AMS results%charges...

 dE(predicted):    -0.16232E-02, dE(actual):    -0.22516E-02, Trust radius:    0.800000, all in a.u.
 
----------------------------------------------------------------------
Geometry Convergence after Step   4       (Hartree/Angstrom,Angstrom)
----------------------------------------------------------------------
current energy                               -0.64666905 Hartree
energy change                      -0.00225162     0.00004000    F
constrained gradient max            0.01579539     0.00100000    F
constrained gradient rms            0.00584213     0.00066667    F
gradient max                        0.01579539
gradient rms                        0.00584213
cart. step max                      0.04815478     0.01000000    F
cart. step rms                      0.01782597     0.00666667    F
 
 
--------
Geometry
--------
Formula: CH3
Atoms
  Index Symbol   x (angstrom)   y (angstrom)   z (angstrom)
      1      H     2.07384749    -0.89171464     0.00000000
      2      C     1.06382786    -0.50216265     0.00000000
      3      H     0.60788262    -0.20300344     0.93514824
      4      H     0.60788262    -0.20300344    -0.93514824
 
Total System Charge             0.00000
 
 *** GOStep5 ***

 Energy gradients wrt nuclear displacements
 ==========================================

     Atom      Cartesian (a.u./angstrom)
                 X         Y         Z
 ----------------------------------------
     1 H    -0.000229  0.002787  0.000000
     2 C    -0.003105 -0.006564 -0.000000
     3 H     0.001667  0.001889 -0.001205
     4 H     0.001667  0.001889  0.001205
 ----------------------------------------
 Mulliken charges used for AMS results%charges...

 dE(predicted):    -0.61666E-03, dE(actual):    -0.83929E-03, Trust radius:    0.800000, all in a.u.
 
----------------------------------------------------------------------
Geometry Convergence after Step   5       (Hartree/Angstrom,Angstrom)
----------------------------------------------------------------------
current energy                               -0.64750834 Hartree
energy change                      -0.00083929     0.00004000    F
constrained gradient max            0.00656423     0.00100000    F
constrained gradient rms            0.00251907     0.00066667    F
gradient max                        0.00656423
gradient rms                        0.00251907
cart. step max                      0.03549106     0.01000000    F
cart. step rms                      0.01309542     0.00666667    F
 
 
--------
Geometry
--------
Formula: CH3
Atoms
  Index Symbol   x (angstrom)   y (angstrom)   z (angstrom)
      1      H     2.06965356    -0.90419017     0.00000000
      2      C     1.08052504    -0.46667159     0.00000000
      3      H     0.60163099    -0.21451120     0.93641699
      4      H     0.60163099    -0.21451120    -0.93641699
 
Total System Charge             0.00000
 
 *** GOStep6 ***

 Energy gradients wrt nuclear displacements
 ==========================================

     Atom      Cartesian (a.u./angstrom)
                 X         Y         Z
 ----------------------------------------
     1 H    -0.001384  0.001430  0.000000
     2 C    -0.000903 -0.001920 -0.000000
     3 H     0.001143  0.000245 -0.001618
     4 H     0.001143  0.000245  0.001618
 ----------------------------------------
 Mulliken charges used for AMS results%charges...

 dE(predicted):    -0.19544E-03, dE(actual):    -0.24444E-03, Trust radius:    0.800000, all in a.u.
 
----------------------------------------------------------------------
Geometry Convergence after Step   6       (Hartree/Angstrom,Angstrom)
----------------------------------------------------------------------
current energy                               -0.64775278 Hartree
energy change                      -0.00024444     0.00004000    F
constrained gradient max            0.00191964     0.00100000    F
constrained gradient rms            0.00116993     0.00066667    F
gradient max                        0.00191964
gradient rms                        0.00116993
cart. step max                      0.01471972     0.01000000    F
cart. step rms                      0.00544413     0.00666667    T
 
 
--------
Geometry
--------
Formula: CH3
Atoms
  Index Symbol   x (angstrom)   y (angstrom)   z (angstrom)
      1      H     2.06825364    -0.90952195     0.00000000
      2      C     1.08743923    -0.45195188     0.00000000
      3      H     0.59887386    -0.21920517     0.93729130
      4      H     0.59887386    -0.21920517    -0.93729130
 
Total System Charge             0.00000
 
 *** GOStep7 ***

 Energy gradients wrt nuclear displacements
 ==========================================

     Atom      Cartesian (a.u./angstrom)
                 X         Y         Z
 ----------------------------------------
     1 H    -0.000729  0.000429  0.000000
     2 C    -0.000094 -0.000215 -0.000000
     3 H     0.000411 -0.000107 -0.000729
     4 H     0.000411 -0.000107  0.000729
 ----------------------------------------
 Mulliken charges used for AMS results%charges...

 dE(predicted):    -0.26325E-04, dE(actual):    -0.29397E-04, Trust radius:    0.800000, all in a.u.
 
---------------------------------------------------------
Geometry Convergence after Step   7       ** CONVERGED **
---------------------------------------------------------
current energy                               -0.64778218 Hartree
energy change                      -0.00002940     0.00004000    T
constrained gradient max            0.00072908     0.00100000    T
constrained gradient rms            0.00042768     0.00066667    T
gradient max                        0.00072908
gradient rms                        0.00042768
cart. step max                      0.00190630     0.01000000    T
cart. step rms                      0.00074549     0.00666667    T
 
Geometry optimization converged

Optimized geometry:
 
--------
Geometry
--------
Formula: CH3
Atoms
  Index Symbol   x (angstrom)   y (angstrom)   z (angstrom)
      1      H     2.06825364    -0.90952195     0.00000000
      2      C     1.08743923    -0.45195188     0.00000000
      3      H     0.59887386    -0.21920517     0.93729130
      4      H     0.59887386    -0.21920517    -0.93729130
 
Total System Charge             0.00000
 
Performing a single point calculation on the final geometry ...

 *** adf ***



 ===========================
 A T T A C H E D   F I L E S
 ===========================
  
 Restart/scratch/3118/amstmp_ams_kid0.1116863941/GOStep7.rkf*** GOStep7 ***



 ===============================
 M O D E L   P A R A M E T E R S
 ===============================
  
 DENSITY FUNCTIONAL POTENTIAL (scf)
    LDA:                               Exchange only                           == Not Default ==
    Gradient Corrections:              OPTX LYP                                == Not Default ==

 SPIN  (restricted / unrestr.)
    Molecule:                          UNrestricted                            == Not Default ==
    Fragments:                         Restricted                               

 OTHER ASPECTS
    Relativistic Corrections:          scalar (ZORA,MAPA)                       

    Nuclear Charge Density Model:      Point Charge Nuclei                      
    Core Treatment:                    Frozen Orbital(s)                        

    Hyperfine or Zeeman Interaction:   ---                                      



 ===============
 G E O M E T R Y  ***  3D  Molecule  ***
 ===============
  

 ATOMS
 =====                            X Y Z                    CHARGE
                                (Angstrom)             Nucl     +Core       At.Mass
                       --------------------------    ----------------       -------
    1  H               2.0683   -0.9095    0.0000      1.00      1.00        1.0078
    2  C               1.0874   -0.4520    0.0000      6.00      6.00       12.0000
    3  H               0.5989   -0.2192    0.9373      1.00      1.00        1.0078
    4  H               0.5989   -0.2192   -0.9373      1.00      1.00        1.0078


 FRAGMENTS
 =========                                     Atoms in this Fragment     Cart. coord.s (Angstrom)
                                               -------------------------------------------------------
    1  H                                                 1  H            2.0683   -0.9095    0.0000
    2  H                                                 3  H            0.5989   -0.2192    0.9373
    3  H                                                 4  H            0.5989   -0.2192   -0.9373
    4  C                                                 2  C            1.0874   -0.4520    0.0000


 Interatomic Distance Matrix (Angstrom)
 --------------------------------------

   1)     0.000
   2)     1.082   0.000
   3)     1.875   1.082   0.000
   4)     1.875   1.082   1.875   0.000

 Min. Distance =    1.0823
 Max. Distance =    1.8746



 =====================================
 S Y M M E T R Y ,   E L E C T R O N S
 =====================================
  
 Symmetry: NOSYM

 Irreducible Representations, including subspecies
 -------------------------------------------------
 A


 Configuration of Valence Electrons
 ==================================
 ( determined in the SCF procedure )

 Total:   5 (Spin-A)  + 4 (Spin-B)

 Net Charge: 0 (Nuclei minus Electrons)
 Spin polar: 1 (Spin_A minus Spin_B electrons)

 Aufbau principle for MO occupations will be applied through SCF cycle no.      49
 Thereafter, the program will assign electrons to MOs that are spatially
 similar to the occupied MOs in a "reference" cycle ("KeepOrbitals").
 The reference cycle is always the PREVIOUS cycle: it will evolve with
 the SCF procedure.
1
 ***************************************************************************************************



                                      ****************************************
                                      *  B U I L D : (Fragments, Functions)  *
                                      ****************************************
  



 =======
 S F O s  ***  (Symmetrized Fragment Orbitals)  ***
 =======
  
 SFOs are linear combinations of (valence) Fragment Orbitals (FOs), such that the SFOs transform as the
 irreducible representations of the (molecular) symmetry group. Each SFO is therefore characterized by
 an irrep of the molecule and by a few (or only one) generating FOs.
 The SFOs constitute a symmetry-adapted basis for the Fock matrix. The MO eigenvector coefficients in
 this basis provide a direct interpretation of the MOs in terms of Frontier Orbital Theory.

 The SFOs are combined with auxiliary Core Functions (CFs) to ensure orthogonalization on the (frozen)
 Core Orbitals (COs). The Core-orthogonalized SFOs (CSFOs) constitute the true Fock basis.

 The FOs, and hence also the (C)SFOs are combinations of the elementary basis functions (BAS). The basis
 functions that participate in the description of the SFOs depend on the irrep. The indices of the
 involved functions are printed below for each irrep.
 (The complete list of primitive basis functions is printed in another section)

 Total nr. of (C)SFOs (summation over all irreps) :    59

 NOTE: a (C)SFO that is defined as a combination of more than one FO is usually NOT normalized.



                                       === A ===
 Nr. of SFOs :   59
 Cartesian basis functions that participate in this irrep (total number =    66) :
      1     2     3     4     5     6     7     8     9    10
     11    12    13    14    15    16    17    18    19    20
     21    22    23    24    25    26    27    28    29    30
     31    32    33    34    35    36    37    38    39    40
     41    42    45    48    43    46    49    44    47    50
     51    52    53    54    55    56    57    58    59    60
     61    62    63    64    65    66

    SFO  (index         Fragment          Generating    Expansion in Fragment Orbitals
  indx  incl.CFs)   Occup   Orb.Energy   FragmentType  Coeff.   Orbital     on Fragment
 --------------------------------------------------------------------------------------
     1       1      1.000      -0.238 au  H             1.00      1 S               1
                        (      -6.484 eV)
     2       2       --         0.077 au  H             1.00      2 S               1
                        (       2.096 eV)
     3       3       --         1.521 au  H             1.00      3 S               1
                        (      41.380 eV)
     4       4       --         0.410 au  H             1.00      1 P:x             1
                        (      11.162 eV)
     5       5       --         0.410 au  H             1.00      1 P:y             1
                        (      11.162 eV)
     6       6       --         0.410 au  H             1.00      1 P:z             1
                        (      11.162 eV)
     7       7       --         2.567 au  H             1.00      1 D:z2            1
                        (      69.838 eV)
     8       8       --         2.567 au  H             1.00      1 D:x2-y2         1
                        (      69.838 eV)
     9       9       --         2.567 au  H             1.00      1 D:xy            1
                        (      69.838 eV)
    10      10       --         2.567 au  H             1.00      1 D:xz            1
                        (      69.838 eV)
    11      11       --         2.567 au  H             1.00      1 D:yz            1
                        (      69.838 eV)
    12      12      1.000      -0.238 au  H             1.00      1 S               2
                        (      -6.484 eV)
    13      13       --         0.077 au  H             1.00      2 S               2
                        (       2.096 eV)
    14      14       --         1.521 au  H             1.00      3 S               2
                        (      41.380 eV)
    15      15       --         0.410 au  H             1.00      1 P:x             2
                        (      11.162 eV)
    16      16       --         0.410 au  H             1.00      1 P:y             2
                        (      11.162 eV)
    17      17       --         0.410 au  H             1.00      1 P:z             2
                        (      11.162 eV)
    18      18       --         2.567 au  H             1.00      1 D:z2            2
                        (      69.838 eV)
    19      19       --         2.567 au  H             1.00      1 D:x2-y2         2
                        (      69.838 eV)
    20      20       --         2.567 au  H             1.00      1 D:xy            2
                        (      69.838 eV)
    21      21       --         2.567 au  H             1.00      1 D:xz            2
                        (      69.838 eV)
    22      22       --         2.567 au  H             1.00      1 D:yz            2
                        (      69.838 eV)
    23      23      1.000      -0.238 au  H             1.00      1 S               3
                        (      -6.484 eV)
    24      24       --         0.077 au  H             1.00      2 S               3
                        (       2.096 eV)
    25      25       --         1.521 au  H             1.00      3 S               3
                        (      41.380 eV)
    26      26       --         0.410 au  H             1.00      1 P:x             3
                        (      11.162 eV)
    27      27       --         0.410 au  H             1.00      1 P:y             3
                        (      11.162 eV)
    28      28       --         0.410 au  H             1.00      1 P:z             3
                        (      11.162 eV)
    29      29       --         2.567 au  H             1.00      1 D:z2            3
                        (      69.838 eV)
    30      30       --         2.567 au  H             1.00      1 D:x2-y2         3
                        (      69.838 eV)
    31      31       --         2.567 au  H             1.00      1 D:xy            3
                        (      69.838 eV)
    32      32       --         2.567 au  H             1.00      1 D:xz            3
                        (      69.838 eV)
    33      33       --         2.567 au  H             1.00      1 D:yz            3
                        (      69.838 eV)
    34      34      2.000     -10.064 au  C             1.00      1 S               4
                        (    -273.865 eV)
    35      35      2.000      -0.507 au  C             1.00      2 S               4
                        (     -13.802 eV)
    36      36       --         0.384 au  C             1.00      3 S               4
                        (      10.456 eV)
    37      37       --         5.458 au  C             1.00      4 S               4
                        (     148.511 eV)
    38      38       --        49.970 au  C             1.00      5 S               4
                        (    1359.766 eV)
    39      39      0.667      -0.189 au  C             1.00      1 P:x             4
                        (      -5.135 eV)
    40      40       --         0.168 au  C             1.00      2 P:x             4
                        (       4.559 eV)
    41      41       --         2.056 au  C             1.00      3 P:x             4
                        (      55.959 eV)
    42      42      0.667      -0.189 au  C             1.00      1 P:y             4
                        (      -5.135 eV)
    43      43       --         0.168 au  C             1.00      2 P:y             4
                        (       4.559 eV)
    44      44       --         2.056 au  C             1.00      3 P:y             4
                        (      55.959 eV)
    45      45      0.667      -0.189 au  C             1.00      1 P:z             4
                        (      -5.135 eV)
    46      46       --         0.168 au  C             1.00      2 P:z             4
                        (       4.559 eV)
    47      47       --         2.056 au  C             1.00      3 P:z             4
                        (      55.959 eV)
    48      48       --         1.235 au  C             1.00      1 D:z2            4
                        (      33.605 eV)
    49      49       --         1.235 au  C             1.00      1 D:x2-y2         4
                        (      33.605 eV)
    50      50       --         1.235 au  C             1.00      1 D:xy            4
                        (      33.605 eV)
    51      51       --         1.235 au  C             1.00      1 D:xz            4
                        (      33.605 eV)
    52      52       --         1.235 au  C             1.00      1 D:yz            4
                        (      33.605 eV)
    53      53       --         4.005 au  C             1.00      1 F:z3            4
                        (     108.969 eV)
    54      54       --         4.005 au  C             1.00      1 F:z             4
                        (     108.969 eV)
    55      55       --         4.005 au  C             1.00      1 F:xyz           4
                        (     108.969 eV)
    56      56       --         4.005 au  C             1.00      1 F:z2x           4
                        (     108.969 eV)
    57      57       --         4.005 au  C             1.00      1 F:z2y           4
                        (     108.969 eV)
    58      58       --         4.005 au  C             1.00      1 F:x             4
                        (     108.969 eV)
    59      59       --         4.005 au  C             1.00      1 F:y             4
                        (     108.969 eV)



 ================================
 (Slater-type)  F U N C T I O N S  ***  (Basis and Fit)  ***
 ================================
  

 Atom Type    1  (H)
 ==============

 Valence Basis Sets:   5
 -----------------------
   1 S    0.690000
   1 S    0.920000
   1 S    1.580000
   2 P    1.250000
   3 D    2.500000

 Atom Type    2  (C)
 ==============

 Valence Basis Sets:  10
 -----------------------
   1 S    7.680000
   1 S    5.000000
   2 S    1.280000
   2 S    2.100000
   2 S    4.600000
   2 P    0.820000
   2 P    1.480000
   2 P    2.940000
   3 D    2.200000
   4 F    3.300000


 BAS: List of all Elementary Cartesian Basis Functions
 =====================================================

 The numbering in the list below (to the right of the function characteristics) is referred
 to in print-outs of MO eigenvectors and Mulliken populations in the BAS representation
 (as contrasted to the SFO representation).

 Notes:
 1. The functions are characterized by a polynomial prefactor (powers of x,y,z and r) and
    an exponential decay factor alpha.
 2. Since the basis sets are specific for an atom TYPE, the individual functions occur on
    all atoms of that type.
 3. The word 'Core' in the left margin signals that it is a Core Function (CF) : not a
    degree of freedom in the valence set, but only used to ensure orthogonalization of
    the other valence basis functions on the frozen Core Orbitals.


 (power of) X  Y  Z  R     Alpha  on Atom
            ==========     =====     ==========

 H                                    1    2    3
                                  ---------------------------------------------------------------------------
            0  0  0  0     0.690      1   13   25
            0  0  0  0     0.920      2   14   26
            0  0  0  0     1.580      3   15   27
            1  0  0  0     1.250      4   16   28
            0  1  0  0     1.250      5   17   29
            0  0  1  0     1.250      6   18   30
            2  0  0  0     2.500      7   19   31
            1  1  0  0     2.500      8   20   32
            1  0  1  0     2.500      9   21   33
            0  2  0  0     2.500     10   22   34
            0  1  1  0     2.500     11   23   35
            0  0  2  0     2.500     12   24   36

 C                                    4
                                  ---------------------------------------------------------------------------
            0  0  0  0     7.680     37
            0  0  0  0     5.000     38
            0  0  0  1     1.280     39
            0  0  0  1     2.100     40
            0  0  0  1     4.600     41
            1  0  0  0     0.820     42
            0  1  0  0     0.820     43
            0  0  1  0     0.820     44
            1  0  0  0     1.480     45
            0  1  0  0     1.480     46
            0  0  1  0     1.480     47
            1  0  0  0     2.940     48
            0  1  0  0     2.940     49
            0  0  1  0     2.940     50
            2  0  0  0     2.200     51
            1  1  0  0     2.200     52
            1  0  1  0     2.200     53
            0  2  0  0     2.200     54
            0  1  1  0     2.200     55
            0  0  2  0     2.200     56
            3  0  0  0     3.300     57
            2  1  0  0     3.300     58
            2  0  1  0     3.300     59
            1  2  0  0     3.300     60
            1  1  1  0     3.300     61
            1  0  2  0     3.300     62
            0  3  0  0     3.300     63
            0  2  1  0     3.300     64
            0  1  2  0     3.300     65
            0  0  3  0     3.300     66

 Total number of charge fitting functions (nprimf)       234
 Total number of Cartesian basis functions (naos)         66
 Total number of Cartesian core functions  (ncos)          0

1
 ***************************************************************************************************



                                              ***********************
                                              *  T E C H N I C A L  *
                                              ***********************
  



 =============================================================
 P A R A L L E L I Z A T I O N  and  V E C T O R I Z A T I O N
 =============================================================
  
 Nr of parallel processes:                                4
 Maximum vector length in NumInt loops:                 128



 =====================
 S C F   U P D A T E S
 =====================
  
 Max. nr. of cycles:                                99
 Convergence criterion:                              0.0000010000
   secondary criterion:                              0.0010000000

 Mix parameter (when DIIS does not apply):           0.2000000000
 Mixed ADIIS+SDIIS will be used                  
    Max number of expansion vectors:                10
    Pure ADIIS when Max([F,P]) is above              0.1000000000
    Pure SDIIS when Max([F,P]) is below              0.0010000000
 Automatic ElectronSmearing (in case of problematic SCF convergence) disabled



 =================
 P R E C I S I O N  ***  (General: NumInt, NeglectFunctionTails, ...)  ***
 =================
  

 NumInt:           Target precision:                 8.0000000000
 -------           Initial precision:                8.0000000000
                   Min. precision (optimization):    8.0000000000

 Neglect Functions:          Basis functions:        0.1000000000E-09
 ------------------          Fit functions:          0.1000000000E-09



 ===========================
 L I N E A R   S C A L I N G
 ===========================
  

 Cut-off radii density fit:                        0.1000000000E-11
 Overlap cut-off criterion AO matrix elements:     0.1000000000E-09
 Cut-offs for Coulomb potential and fitted density:0.1000000000E-11
 Cut-off criterion for Coulomb multipole terms:    0.1000000000E-11
 Progressive Convergence parameter:                 0.000000000    

 Number of elements of the density matrix on this node (used, total):       609      2211



 ===========================================
 Numerical Integration : Fuzzy Cells (Becke)
 ===========================================
  
 Becke grid quality: VERYGOOD       
  
 Lebedev angular grid order:             min:  13 max:  41
 Nr. of radial points:                   min:  64 max:  72

 Total nr. of points:      92942
 Nr. of blocks:              727
 Block length:               128
 Nr. of dummy points:        114


 Test of Precision of the Numerical Integration Grid
 ===================================================

 Integral of the Total Core Density:                   0.00000000000000



 ========================
 Density Fitting (zlmFit)
 ========================
  
 ZlmFit Fit Quality: VERYGOOD       
  
 Max L-expansion:                        min:  10 max:  11
 Nr. of radial interpolation points:     min: 130 max: 160



 =====
 S C F  ***  ScaSCF  ***
 =====
  
 Initial density matrix is taken from previous geometry

 CYCLE    1
  ***********************************************************
  ** : orbital data taken from :/scratch/3118/amstmp_ams_kid0.1116863941/GOStep7.rkf
  ***********************************************************
 SCF Error: norm([F,P])=      0.000000011059, max([F,P])=      0.000000002210
 ***** SPIN 1 *****
 orbitals (Q,E):
 ---------------
 A :1...15           ( 1.00    -9.9188)  ( 1.00    -0.6235)  ( 1.00    -0.3758)  ( 1.00    -0.3758)
                     ( 1.00    -0.1924)  ( 0.00    -0.0053)  ( 0.00     0.0494)  ( 0.00     0.0494)
                     ( 0.00     0.1543)  ( 0.00     0.1543)  ( 0.00     0.1695)  ( 0.00     0.2172)
                     ( 0.00     0.3833)  ( 0.00     0.3833)  ( 0.00     0.4804)
 ***** SPIN 2 *****
 orbitals (Q,E):
 ---------------
 A :1...14           ( 1.00    -9.9106)  ( 1.00    -0.5866)  ( 1.00    -0.3636)  ( 1.00    -0.3636)
                     ( 0.00    -0.1049)  ( 0.00    -0.0034)  ( 0.00     0.0500)  ( 0.00     0.0500)
                     ( 0.00     0.1545)  ( 0.00     0.1545)  ( 0.00     0.2010)  ( 0.00     0.2397)
                     ( 0.00     0.3929)  ( 0.00     0.3929)
  
 Spin polar: 1 (Spin_A minus Spin_B electrons)

 CYCLE    2
   MIX coefficients:  0.8000  0.2000
 SCF Error: norm([F,P])=      0.000000007434, max([F,P])=      0.000000001676
 ***** SPIN 1 *****
 orbitals (Q,E):
 ---------------
 A :1...6            ( 1.00    -9.9188)  ( 1.00    -0.6235)  ( 1.00    -0.3758)  ( 1.00    -0.3758)
                     ( 1.00    -0.1924)  ( 0.00    -0.0053)
 ***** SPIN 2 *****
 orbitals (Q,E):
 ---------------
 A :1...5            ( 1.00    -9.9106)  ( 1.00    -0.5866)  ( 1.00    -0.3636)  ( 1.00    -0.3636)
                     ( 0.00    -0.1049)
  
 Spin polar: 1 (Spin_A minus Spin_B electrons)

 SCF CONVERGED

 CYCLE    3
1
 ***************************************************************************************************



                                                *******************
                                                *  R E S U L T S  *
                                                *******************
  
 *** Using FIT density in Focky
   MIX coefficients:  0.8000  0.2000
 SCF Error: norm([F,P])=      0.000000004426, max([F,P])=      0.000000001068


                                   ***** SPIN 1 *****

 Scaled ZORA Orbital Energies, per Irrep and Spin:
 =================================================
                        Occup              E (au)              E (eV)       Diff (eV) with prev. cycle
                        -----      --------------------        ------       --------------------------
 A
               1        1.000     -0.99187965903066E+01      -269.904               1.70E-07
               2        1.000     -0.62346820728438E+00       -16.965               6.95E-08
               3        1.000     -0.37578572419875E+00       -10.226               6.23E-08
               4        1.000     -0.37577812319476E+00       -10.225               6.89E-08
               5        1.000     -0.19243540059680E+00        -5.236               6.33E-08
               6        0.000     -0.52717682810810E-02        -0.143
               7        0.000      0.49362167143682E-01         1.343
               8        0.000      0.49363909584410E-01         1.343
               9        0.000      0.15428505328558E+00         4.198
              10        0.000      0.15429164481937E+00         4.198
              11        0.000      0.16945232393085E+00         4.611
              12        0.000      0.21717832329390E+00         5.910
              13        0.000      0.38327453240915E+00        10.429
              14        0.000      0.38327802163829E+00        10.430
              15        0.000      0.48037001585150E+00        13.072
  
 HOMO :        5 A                -0.19243540059680E+00
 LUMO :        6 A                -0.52717682810810E-02
  


                                   ***** SPIN 2 *****

 Scaled ZORA Orbital Energies, per Irrep and Spin:
 =================================================
                        Occup              E (au)              E (eV)       Diff (eV) with prev. cycle
                        -----      --------------------        ------       --------------------------
 A
               1        1.000     -0.99106189055023E+01      -269.682               1.78E-07
               2        1.000     -0.58655100327608E+00       -15.961               8.08E-08
               3        1.000     -0.36357556418820E+00        -9.893               6.23E-08
               4        1.000     -0.36356780919963E+00        -9.893               6.97E-08
               5        0.000     -0.10494331425218E+00        -2.856
               6        0.000     -0.34331303996200E-02        -0.093
               7        0.000      0.50015129758257E-01         1.361
               8        0.000      0.50017345199332E-01         1.361
               9        0.000      0.15450118487909E+00         4.204
              10        0.000      0.15450809008400E+00         4.204
              11        0.000      0.20101147321048E+00         5.470
              12        0.000      0.23966584332238E+00         6.522
              13        0.000      0.39287595669232E+00        10.691
              14        0.000      0.39287959222522E+00        10.691
  
 HOMO :        4 A                -0.36356780919963E+00
 LUMO :        5 A                -0.10494331425218E+00
  


 Orbital Energies, both Spins
 ========================================

 Irrep        no.  (spin)   Occup              E (au)                E (eV)
 ---------------------------------------------------------------------------
 A             1     A       1.00       -0.99187965903066E+01      -269.9042
 A             1      B      1.00       -0.99106189055023E+01      -269.6817
 A             2     A       1.00       -0.62346820728438E+00       -16.9654
 A             2      B      1.00       -0.58655100327608E+00       -15.9609
 A             3     A       1.00       -0.37578572419875E+00       -10.2256
 A             4     A       1.00       -0.37577812319476E+00       -10.2254
 A             3      B      1.00       -0.36357556418820E+00        -9.8934
 A             4      B      1.00       -0.36356780919963E+00        -9.8932
 A             5     A       1.00       -0.19243540059680E+00        -5.2364
 A             5      B      0.00       -0.10494331425218E+00        -2.8557
 A             6     A       0.00       -0.52717682810810E-02        -0.1435
 A             6      B      0.00       -0.34331303996200E-02        -0.0934
 A             7     A       0.00        0.49362167143682E-01         1.3432
 A             8     A       0.00        0.49363909584410E-01         1.3433
 A             7      B      0.00        0.50015129758257E-01         1.3610
 A             8      B      0.00        0.50017345199332E-01         1.3610
 A             9     A       0.00        0.15428505328558E+00         4.1983
 A            10     A       0.00        0.15429164481937E+00         4.1985
 A             9      B      0.00        0.15450118487909E+00         4.2042
 A            10      B      0.00        0.15450809008400E+00         4.2044
 A            11     A       0.00        0.16945232393085E+00         4.6110
 A            11      B      0.00        0.20101147321048E+00         5.4698
 A            12     A       0.00        0.21717832329390E+00         5.9097
 A            12      B      0.00        0.23966584332238E+00         6.5216
 A            13     A       0.00        0.38327453240915E+00        10.4294
 A            14     A       0.00        0.38327802163829E+00        10.4295
 A            13      B      0.00        0.39287595669232E+00        10.6907
 A            14      B      0.00        0.39287959222522E+00        10.6908
 A            15     A       0.00        0.48037001585150E+00        13.0715
 A            16     A       0.00        0.48037554442946E+00        13.0717
 A            15      B      0.00        0.49614865582870E+00        13.5009
 A            16      B      0.00        0.49615458358960E+00        13.5011
 A            17     A       0.00        0.66332724668161E+00        18.0501
 A            17      B      0.00        0.71241542829137E+00        19.3858
 A            18      B      0.00        0.77429810867103E+00        21.0697
 A            18     A       0.00        0.77893695472315E+00        21.1960
 A            19      B      0.00        0.84664950890791E+00        23.0385
 A            20      B      0.00        0.84665788552424E+00        23.0387
 A            19     A       0.00        0.84702792580655E+00        23.0488
 A            20     A       0.00        0.84703645469376E+00        23.0490
 A            21     A       0.00        0.91266180956064E+00        24.8348
 A            21      B      0.00        0.93160953183399E+00        25.3504
 A            22     A       0.00        0.11273505660399E+01        30.6768
 A            22      B      0.00        0.11768696343392E+01        32.0243
 A            23     A       0.00        0.13726390778425E+01        37.3514
 A            24     A       0.00        0.13726446187704E+01        37.3516
 A            23      B      0.00        0.13765556752328E+01        37.4580
 A            24      B      0.00        0.13765611071342E+01        37.4581
 A            25     A       0.00        0.15794951285963E+01        42.9802
 A            26     A       0.00        0.15795059182410E+01        42.9805
 A            25      B      0.00        0.16297686808254E+01        44.3483
 A            26      B      0.00        0.16297784587129E+01        44.3485
 A            27     A       0.00        0.16413373638136E+01        44.6631
 A            27      B      0.00        0.16484998709780E+01        44.8580
 A            28     A       0.00        0.18928521415406E+01        51.5071
 A            29     A       0.00        0.18928583643758E+01        51.5073
 A            28      B      0.00        0.19036387605637E+01        51.8006
 A            29      B      0.00        0.19036450229847E+01        51.8008
 A            30     A       0.00        0.22368459469675E+01        60.8677
 A            31     A       0.00        0.22556385649987E+01        61.3790
 A            32     A       0.00        0.22556445476707E+01        61.3792
 A            30      B      0.00        0.22668830330436E+01        61.6850
 A            31      B      0.00        0.22668890637198E+01        61.6852
 A            32      B      0.00        0.23242585212180E+01        63.2463
 A            33     A       0.00        0.25874905117873E+01        70.4092
 A            34     A       0.00        0.25875188690503E+01        70.4100
 A            33      B      0.00        0.26030213714141E+01        70.8318
 A            34      B      0.00        0.26030500171176E+01        70.8326
 A            35     A       0.00        0.27794534264212E+01        75.6328
 A            35      B      0.00        0.27935876538916E+01        76.0174
 A            36     A       0.00        0.27957550703048E+01        76.0764
 A            37     A       0.00        0.27957811496486E+01        76.0771
 A            36      B      0.00        0.27976917943197E+01        76.1291
 A            37      B      0.00        0.27977181354700E+01        76.1298
 A            38     A       0.00        0.27987127536956E+01        76.1568
 A            38      B      0.00        0.28018904145902E+01        76.2433
 A            39     A       0.00        0.30751808565396E+01        83.6799
 A            39      B      0.00        0.31333053031277E+01        85.2616
 A            40     A       0.00        0.32340720817092E+01        88.0036
 A            40      B      0.00        0.32345932076815E+01        88.0178
 A            41     A       0.00        0.34164936114329E+01        92.9675
 A            41      B      0.00        0.34750954012688E+01        94.5622
 A            42     A       0.00        0.38646208955349E+01       105.1617
 A            43     A       0.00        0.38646460651797E+01       105.1624
 A            42      B      0.00        0.38918741422097E+01       105.9033
 A            43      B      0.00        0.38918990122962E+01       105.9040
 A            44     A       0.00        0.40056913460625E+01       109.0004
 A            45     A       0.00        0.40057232383634E+01       109.0013
 A            44      B      0.00        0.40376708058184E+01       109.8706
 A            45      B      0.00        0.40377016389565E+01       109.8715
 A            46     A       0.00        0.44099616917730E+01       120.0012
 A            47     A       0.00        0.44099847395120E+01       120.0018
 A            46      B      0.00        0.44500212255402E+01       121.0912
 A            47      B      0.00        0.44500410009847E+01       121.0918
 A            48     A       0.00        0.47768453355753E+01       129.9846
 A            48      B      0.00        0.47813777155166E+01       130.1079
 A            49     A       0.00        0.53315955471564E+01       145.0801
 A            50     A       0.00        0.53315973493598E+01       145.0801
 A            49      B      0.00        0.53544882181043E+01       145.7030
 A            50      B      0.00        0.53544883509350E+01       145.7030
 A            51     A       0.00        0.56287263042350E+01       153.1654
 A            52     A       0.00        0.56287604158973E+01       153.1664
 A            51      B      0.00        0.56727431941497E+01       154.3632
 A            52      B      0.00        0.56727783648335E+01       154.3642
 A            53     A       0.00        0.60473936395836E+01       164.5580
 A            53      B      0.00        0.60722668846506E+01       165.2348
 A            54     A       0.00        0.61016313270426E+01       166.0338
 A            54      B      0.00        0.61720045435033E+01       167.9488
 A            55     A       0.00        0.69343855172221E+01       188.6942
 A            55      B      0.00        0.69445978862958E+01       188.9721
 A            56     A       0.00        0.73616610280921E+01       200.3210
 A            57     A       0.00        0.73616906705861E+01       200.3218
 A            56      B      0.00        0.73772349234513E+01       200.7448
 A            57      B      0.00        0.73772621546421E+01       200.7455
 A            58     A       0.00        0.74645510129572E+01       203.1208
 A            58      B      0.00        0.75039352363883E+01       204.1925
 A            59     A       0.00        0.53116529187694E+02      1445.3743
 A            59      B      0.00        0.53138759796091E+02      1445.9792
  
 Spin polar: 1 (Spin_A minus Spin_B electrons)


 All Electron Calculation, thus no Orbital Energies of the Core Orbitals are calculated


 Fit test: (difference of exact and fit density, squared integrated, result summed over spins)
         Sum-of-Fragments:                             0.00000000012142
         Orthogonalized Fragments:                     0.00000012736012
         SCF:                                          0.00000051265898



 ==========================
 Electron Density at Nuclei
 ==========================
  
 The electron density is calculated at points on a small sphere around the center of a nucleus.
 The printed electron density is the average electron density on these points.
 The radius of the sphere is the printed approximate finite nuclear radius.
 Note: ZORA-4 density is used, which includes small component density

         Atom        Nuclear Radius (Angstrom)             Electron Density (a.u.)
         ----        -------------------------             -----------------------
     1)   H                 0.0000181514                                0.50487
     2)   C                 0.0000320678                              126.86216
     3)   H                 0.0000181514                                0.50486
     4)   H                 0.0000181514                                0.50486



 =======================================
 M U L L I K E N   P O P U L A T I O N S
 =======================================
  
 The survey below gives for each atom:
 a) the total charge (Z minus electrons)
 b) the net spin polarization (nr of electrons spin-A minus spin-B)
 c) for each spin the atomic electron valence density (integrated) per L-value.

 Atom              Charge    Spin density          S         P         D         F
 ----              ------    ------------       ------    ------    ------    ------
 1 H              -0.1560         -0.0365   A:  0.5038    0.0524    0.0035    0.0000
                                            B:  0.5639    0.0305    0.0019    0.0000
 2 C               0.4678          1.1095   A:  1.5431    1.7701    0.0074    0.0003
                                            B:  1.4412    0.7574    0.0116    0.0012
 3 H              -0.1559         -0.0365   A:  0.5038    0.0524    0.0035    0.0000
                                            B:  0.5639    0.0305    0.0019    0.0000
 4 H              -0.1559         -0.0365   A:  0.5038    0.0524    0.0035    0.0000
                                            B:  0.5639    0.0305    0.0019    0.0000

 Populations of individual BAS functions
 ----------------------------------------
 1 H            0.0769  0.2578  0.1691  0.0179  0.0230  0.0115  0.0048  0.0010  0.0009 -0.0001
                0.0002 -0.0032
         B:     0.0852  0.3095  0.1691  0.0144  0.0031  0.0130  0.0044  0.0003  0.0010 -0.0015
                0.0002 -0.0025
 3 H            0.0769  0.2578  0.1691  0.0148  0.0223  0.0153 -0.0009  0.0003  0.0008 -0.0016
                0.0012  0.0037
         B:     0.0852  0.3095  0.1691  0.0115  0.0026  0.0164 -0.0007  0.0001  0.0006 -0.0026
                0.0001  0.0043
 4 H            0.0769  0.2578  0.1691  0.0148  0.0223  0.0153 -0.0009  0.0003  0.0008 -0.0016
                0.0012  0.0037
         B:     0.0852  0.3095  0.1691  0.0115  0.0026  0.0164 -0.0007  0.0001  0.0006 -0.0026
                0.0001  0.0043
 2 C            0.2390  0.7695  0.0837  0.4930 -0.0422 -0.0410  0.1730 -0.1015  0.4523  0.5341
                0.4291  0.1028  0.1245  0.0967  0.0012  0.0005  0.0030  0.0002  0.0007  0.0018
               -0.0003 -0.0001 -0.0000  0.0006 -0.0000 -0.0000  0.0009  0.0002 -0.0007 -0.0002
         B:     0.2366  0.7750  0.0062  0.4666 -0.0432 -0.0919 -0.0203 -0.1122  0.3253  0.0718
                0.3971  0.0769  0.0170  0.0939  0.0055  0.0022  0.0033 -0.0113  0.0007  0.0113
                0.0003  0.0016  0.0001 -0.0009  0.0002  0.0009 -0.0014 -0.0025  0.0002  0.0027

 Gross Charges per Atom (Z minus electrons)
 ==========================================
            -0.1560    0.4678   -0.1559   -0.1559
 Net Total: -0.00000000


 Atom-Atom Population Matrix (off-diagonal elements not doubled)
 ===============================================================


                                   ***** SPIN 1 *****

     1 :     0.4353
     2 :     0.2197    2.6616
     3 :    -0.0477    0.2197    0.4353
     4 :    -0.0477    0.2197   -0.0477    0.4353

                                   ***** SPIN 2 *****

     1 :     0.5090
     2 :     0.1870    1.6504
     3 :    -0.0499    0.1870    0.5089
     4 :    -0.0499    0.1870   -0.0498    0.5089



 =================================================
 H I R S H F E L D   C H A R G E   A N A L Y S I S
 =================================================
  
 For each fragment: the (numerical) integral of rho(scf) * rho(fragment)/rho(sum-of-fragments)
 (nuclear charges are included, electrons are counted negative)

 The fragments and their ordering are defined in the early G E O M E T R Y output section.
 If you use single-atom fragments, this usually implies that all atoms of the same
 chemical type are grouped together. This may not be the order in which you listed them
 in the input file!

    1  H                         0.0381
    2  H                         0.0381
    3  H                         0.0381
    4  C                        -0.1142

 Sum of these charges (accuracy NumInt/Tails) =          -0.00000042



 =============================
 V O R O N O I   C H A R G E S
 =============================
  
 For each atom: the (numerical) integral of the total electronic charge density in its Voronoi cell,
 i.e. the region of space that is closer to that atom than to any other atom.
 (cf. Wigner-Seitz cells in crystals)

 Within the Voronoi cell the subintegrals over the atomic sphere and the remaining part are evaluated
 separately to give the numbers of electrons (negative charge) in these regions.
 The net total charge in the cell (including the nuclear charge) is also given.

 Values are provided for
    a) the Initial (sum-of-fragments) density
    b) the Orthogonalized-Fragments density
    c) the SCF density
    d) the Voronoi Deformation Density (VDD): the difference SCF-Initial for the complete atomic cell


  Atom                Initial                    OrthFrag                   SCF
             Sphere RestCell NetTotal   Sphere RestCell NetTotal   Sphere RestCell NetTotal      VDD
 -----       ------------------------   ------------------------   ------------------------    -----
    1 H      -0.081   -1.417   -0.498   -0.103   -1.275   -0.378   -0.115   -1.370   -0.485    0.013
    2 C      -2.145   -2.356    1.499   -2.237   -2.626    1.137   -2.171   -2.370    1.459   -0.040
    3 H      -0.081   -1.425   -0.505   -0.103   -1.280   -0.383   -0.115   -1.375   -0.490    0.015
    4 H      -0.081   -1.415   -0.496   -0.103   -1.274   -0.376   -0.115   -1.368   -0.484    0.012
 ---------------------------------------------------------------------------------------------------
 Total NetCharge:              -0.000                     -0.000                     -0.000   -0.000
 (accuracy NumInt/Tails)

 Remark: the 'NetTotal' Voronoi charges often do not match the Mulliken and/or Hirshfeld charges very
 well. This is caused by the fact that chemically different atoms are not treated in accordance with
 their relative sizes. (Voronoi cells are defined by boundary planes halfway between the atoms.)
 However, the CHANGES in charge, comparing 'Initial' to 'SCF' for instance, do give a fair indication
 of the flow of charge caused by the relaxation from sum-of-fragments to self-consistency.

 Warning: the absolute accuracy of the VDD charges obtained using the Fuzzy Cells (Becke) integration
 scheme is much poorer than the one obtained with an 'equivalent' Voronoi integration grid. 



 =================================================================
 M U L T I P O L E   D E R I V E D   C H A R G E   A N A L Y S I S
 =================================================================

 This charge analysis uses the atomic multipoles (obtained from the fitted density) up to some level X,
 and reconstructs these multipoles exactly (up to level X) by distributing charges over all atoms.
 This is achieved by using Lagrange multipliers and a weight function to keep the multipoles local.

 Dummy atoms can be included (by setting INCDUM in MDC-block to 1) to obtain a fractional charge.
 This is generally useful and necessary only for small symmetrical molecules, when there are not
 enough degrees of freedom to reconstruct the multipoles.

 Since the atomic multipoles are reconstructed up to level X,
 the molecular multipoles are represented also up to level X.
 The recommended level is to reconstruct up to quadrupole : -> MDC-q charges.

 See: M. Swart, P.Th. van Duijnen, J.G. Snijders, J.Comput.Chem., (2001), p. 79-88.

 ------------------------------------------------------------------------ 
 Atomic electronic multipole moments from SCF equations (a.u.) for spin A
 ------------------------------------------------------------------------ 

   atom        charge        dip-x     dip-y     dip-z      quad-xx   quad-xy   quad-xz   quad-yy   quad-yz   quad-zz
 --------------------------------------------------------------------------------------------------------------------
    1 H     -0.052035     0.027491 -0.012996  0.000000     0.112865 -0.095754 -0.000000 -0.126823  0.000000  0.013958
    2 C     -0.343900     0.001808  0.003850  0.000000     0.282424 -0.475058 -0.000000 -0.899583  0.000000  0.617160
    3 H     -0.052033    -0.013794  0.006401  0.026333     0.010163 -0.064141 -0.043269 -0.148710  0.020681  0.138547
    4 H     -0.052033    -0.013794  0.006401 -0.026333     0.010163 -0.064141  0.043269 -0.148710 -0.020681  0.138547

 ------------------------------------------------------------------------ 
 Atomic electronic multipole moments from SCF equations (a.u.) for spin B
 ------------------------------------------------------------------------ 

   atom        charge        dip-x     dip-y     dip-z      quad-xx   quad-xy   quad-xz   quad-yy   quad-yz   quad-zz
 --------------------------------------------------------------------------------------------------------------------
    1 H     -0.010963    -0.005748  0.002841 -0.000000     0.065577 -0.025850  0.000000  0.000346  0.000000 -0.065923
    2 C      0.532885    -0.000628 -0.001339  0.000000    -0.060056  0.101052  0.000000  0.191359 -0.000000 -0.131303
    3 H     -0.010961     0.002953 -0.001247 -0.005552    -0.026709  0.002703 -0.038988 -0.019529  0.018542  0.046238
    4 H     -0.010961     0.002953 -0.001247  0.005552    -0.026709  0.002703  0.038988 -0.019529 -0.018542  0.046238

 ----------------------------------------------------- 
 MDC atomic charges (includes spinA + spinB electrons)
 ----------------------------------------------------- 

 The MDC-m charges are just the Monopole terms in the multipole expansion, while for the MDC-d charges
 also the Dipoles are reconstructed. The usually preferred charges are the MDC-q charges.
 These reconstruct the Monopoles, Dipoles and Quadrupoles (both atomic AND molecular).

 Given here are the atomic charges of both spins added. These should be compared
 to the values from a "normal" RESTRICTED calculation.

        Atom    Level:     MDC-m        MDC-d        MDC-q
 ---------------------------------------------------------
     1     H           -0.062997     0.114940     0.006836
     2     C            0.188985    -0.344823    -0.140116
     3     H           -0.062994     0.114942     0.066640
     4     H           -0.062994     0.114942     0.066640

 -------------------------------- 
 MDC spin density (spinA - spinB)
 -------------------------------- 
 Reported here are the the number of Alpha-electrons minus the number of Beta-electrons
 per atom, which usually are regarded as spin densities.

        Atom    Level:     MDC-m        MDC-d        MDC-q
 ---------------------------------------------------------
     1     H            0.041072    -0.269893    -0.117569
     2     C            0.876785     1.809663     1.483998
     3     H            0.041071    -0.269885    -0.183215
     4     H            0.041071    -0.269885    -0.183215

 --------------------------------------------- 
 Represented total molecular multipole moments
 --------------------------------------------- 

 Given here are the Molecular multipole moments from the atomic charges, and from the Fit Density.
 Note that the atomic charges represent the latter, NOT the ones from the Exact density.

 Reported here are the Molecular multipole moments of both spins added.
 They should be compared to the values from a "normal" RESTRICTED calculation.

            Q (a.u.)             Dipole moment (Debye)                                          Quadrupole moment (a.u.)
                                 x         y         z              xx        xy        xz        yy        yz        zz
------------------------------------------------------------------------------------------------------------------------
MDC-m        -0.0000       -0.0011   -0.0024   -0.0000         -0.0931    0.2259   -0.0000    0.2906    0.0000   -0.1975
MDC-d         0.0000        0.0020    0.0044   -0.0000          0.1698   -0.4120   -0.0000   -0.5302    0.0000    0.3604
MDC-q        -0.0000       -0.2806    0.1340   -0.0000         -0.4961    0.2063   -0.0000   -0.1099    0.0000    0.6060
 
Fit.Dens.    -0.0000        0.0020    0.0044   -0.0000          0.3157   -0.4710    0.0000   -0.9950    0.0000    0.6793



 ==========
 S**2 value  ***  see also R. Bulo et al., J.Am.Chem.Soc., 124 (2002) 13903-13910, note (29)  ***
 ==========
  
                                       exact      expectation value

 Total S2 (S squared)                  0.75000             0.75428



 =============
 Dipole Moment  ***  (Debye)  ***
 =============
  
 Vector   :         0.00201220      0.00438465     -0.00000000
 Magnitude:         0.00482432

 This molecular dipole moment is calculated with analytic integration



 =========================================
 Quadrupole Moment (Buckingham convention)  ***  (a.u.)  ***
 =========================================
  
      quad-xx        quad-xy        quad-xz        quad-yy        quad-yz        quad-zz
      0.31570312    -0.78026764    -0.00000000    -0.99502223     0.00000000     0.67931911

 This molecular quadrupole moment is calculated with analytic integration
1



 ===========================
 B O N D I N G   E N E R G Y  ***  (decomposition)  ***
 ===========================
  
*** IMPORTANT NOTE ***

The bond energy is computed as an energy difference between molecule and
fragments. In particular when the fragments are single atoms, they are usually
computed as SPHERICALLY SYMMETRIC and SPIN-RESTRICTED. Obviously, this usually
does NOT represent the true atomic groundstate.

To obtain the 'real' bond energy, (atomic) correction terms must be applied
for the true (multiplet) fragment ground state. See ref: E.J.Baerends,
V.Branchadell, M.Sodupe, Chem.Phys.Lett.265 (1997) 481

General theoretical background on the bond energy decomposition scheme used
here (Morokuma-Ziegler) can be found in the review paper:
F.M. Bickelhaupt and E.J. Baerends,
"Kohn-Sham Density Functional Theory: Predicting and Understanding Chemistry"
In: Rev. Comput. Chem.; Lipkowitz, K. B. and Boyd, D. B., Eds.;
Wiley-VCH: New York, 2000, Vol. 15, 1-86.

Symbols used in the Bickelhaupt-Baerends (BB) paper are given below to make
the direct connection to that paper, where detailed explanations can be found
on the meaning of the various terms.


                                                   hartree              eV         kcal/mol           kJ/mol
                                      --------------------     -----------       ----------      -----------

Pauli Repulsion
  Kinetic (Delta T^0):                   3.998320669092451        108.7998          2508.98         10497.59
  Delta V^Pauli Coulomb:                -1.628512813761146        -44.3141         -1021.91         -4275.66
  Delta V^Pauli LDA-XC:                 -0.501413601285903        -13.6442          -314.64         -1316.46
  Delta V^Pauli GGA-Exchange:            0.039719151901504          1.0808            24.92           104.28
  Delta V^Pauli GGA-Correlation:        -0.039514356298643         -1.0752           -24.80          -103.74
                                      --------------------     -----------       ----------      -----------
  Total Pauli Repulsion:                 1.868599049648263         50.8472          1172.56          4906.01
 (Total Pauli Repulsion =
  Delta E^Pauli in BB paper)

Steric Interaction
  Pauli Repulsion (Delta E^Pauli):       1.868599049648263         50.8472          1172.56          4906.01
  Electrostatic Interaction:            -0.254276836357798         -6.9192          -159.56          -667.60
 (Electrostatic Interaction =
  Delta V_elstat in the BB paper)
                                      --------------------     -----------       ----------      -----------
  Total Steric Interaction:              1.614322213290466         43.9279          1013.00          4238.40
 (Total Steric Interaction =
  Delta E^0 in the BB paper)

Orbital Interactions
  A:                                    -2.262104328397738        -61.5550         -1419.49         -5939.15
                                      --------------------     -----------       ----------      -----------
  Total Orbital Interactions:           -2.262104328397738        -61.5550         -1419.49         -5939.15

Alternative Decomposition Orb.Int.
  Kinetic:                              -3.362033198030290        -91.4856         -2109.71         -8827.02
  Coulomb:                               1.171745529118233         31.8848           735.28          3076.42
  XC:                                   -0.071816659485681         -1.9542           -45.07          -188.55
                                      --------------------     -----------       ----------      -----------
  Total Orbital Interactions:           -2.262104328397738        -61.5550         -1419.49         -5939.15

  Residu (E=Steric+OrbInt+Res):         -0.000000061982275         -0.0000            -0.00            -0.00

Total Bonding Energy:                   -0.647782177089547        -17.6270          -406.49         -1700.75


Summary of Bonding Energy (energy terms are taken from the energy decomposition above)
======================================================================================

  Electrostatic Energy:                 -0.254276836357798         -6.9192          -159.56          -667.60
  Kinetic Energy:                        0.636287471062161         17.3143           399.28          1670.57
  Coulomb (Steric+OrbInt) Energy:       -0.456767346625188        -12.4293          -286.63         -1199.24
  XC Energy:                            -0.573025465168723        -15.5928          -359.58         -1504.48
                                      --------------------     -----------       ----------      -----------
  Total Bonding Energy:                 -0.647782177089547        -17.6270          -406.49         -1700.75


Correction terms (incorporated in energies above; only for test purposes):

1. Indication of fit-quality: 1st-order fit-correction used in the energy (hartree):   0.0000017793
2. Electrostatic (Fit correction):   0.0000000000

Scaled ZORA energy correction, not included in bonding energy (hartree):           -0.0000020170
 NOTE: This scaled ZORA energy correction should only be used to compare two calculations
 in which the only difference in the calculation is the electron configuration.
 Then the difference in energy of this term should be added to the difference in energy of
 the two electron configurations.
 This term should not be used otherwise.
 In practice it is useful only for core excitation energy calculations.



 =========================================
 F R A G M E N T   E N E R G Y   T E R M S  ***  (summed over all fragments)  ***
 =========================================
  

The energy terms below are (parts of) the Total Energy of the fragments from which the molecule
 is built.

Exchange and Correlation
  Exchange LDA:                         -4.979299793022781       -135.4936         -3124.56        -13073.15
  Exchange GGA:                         -0.707137888372610        -19.2422          -443.74         -1856.59
  Correlation LDA:                       0.000000000000000          0.0000             0.00             0.00
  Correlation GGA:                      -0.215698508215567         -5.8695          -135.35          -566.32
                                      --------------------     -----------       ----------      -----------
  Total XC:                             -5.902136189610957       -160.6053         -3703.65        -15496.06
1



 =======================================================
 S F O   P O P U L A T I O N S ,   M O   A N A L Y S I S
 =======================================================
  
 A Mulliken population analysis is performed on (input-)selected MOs. All populations refer to SFOs.
 BAS populations may have been printed directly after the SCF part.



                                   ***** SPIN 1 *****



                                       === A ===


 SFO contributions (%) per orbital
 (multiplication by the orbital occupation yields the SFO Gross Populations)

 Orb.:        1      2      3      4      5      6      7      8      9
 occup:     1.00   1.00   1.00   1.00   1.00   0.00   0.00   0.00   0.00
 CF+SFO     ----   ----   ----   ----   ----   ----   ----   ----   ----
 ------
      1:    0.02  14.11  36.77   0.00   0.00  14.02  43.29   0.00   0.00
      2:    0.00  -0.64   0.33   0.00   0.00  24.70  45.33   0.00  -0.00
      3:    0.00  -0.29   0.08   0.00   0.00  -0.94   4.03   0.00  -0.00
      4:    0.01   1.60  -0.26  -0.00   0.44   0.57   0.57   0.00  -0.00
      5:    0.00   0.35  -0.06  -0.00   2.01   0.13   0.12   0.00  -0.00
      6:    0.00  -0.00   0.00   1.15  -0.00  -0.00  -0.00  -0.00   3.37
     12:    0.02  14.11   9.19  27.58   0.00  14.02  10.82  32.47  19.18
     13:    0.00  -0.64   0.08   0.25   0.00  24.70  11.33  34.00 -17.46
     14:    0.00  -0.29   0.02   0.06   0.00  -0.94   1.01   3.02  -5.57
     16:    0.00   0.09   0.04   0.11   2.00   0.03   0.02   0.01  -0.06
     17:    0.01   1.47   0.57  -0.52   0.00   0.52   0.07   0.44   0.07
     23:    0.02  14.11   9.19  27.58   0.00  14.02  10.82  32.47  19.18
     24:    0.00  -0.64   0.08   0.25   0.00  24.70  11.33  34.00 -17.46
     25:    0.00  -0.29   0.02   0.06   0.00  -0.94   1.01   3.02  -5.57
     27:    0.00   0.09   0.04   0.11   2.00   0.03   0.02   0.01  -0.06
     28:    0.01   1.47   0.57  -0.52   0.00   0.52   0.07   0.44   0.07
     34:   99.90   0.01  -0.00  -0.00  -0.00  -0.00  -0.00   0.00  -0.00
     35:   -0.00  54.98   0.00   0.00   0.00   3.94   0.00   0.00   0.00
     36:    0.00  -0.57  -0.00   0.00  -0.00 -19.65  -0.00  -0.00  -0.00
     39:    0.00   0.00  35.32   0.00  16.67   0.00   1.80   0.00   0.00
     40:   -0.00   0.00  -0.18  -0.00  -0.00  -0.00 -35.50  -0.00   0.00
     42:    0.00   0.00   7.79   0.00  75.51   0.00   0.40   0.00   0.00
     43:   -0.00   0.00  -0.04  -0.00  -0.02  -0.00  -7.83  -0.00   0.00
     45:    0.00  -0.00   0.00  43.11  -0.00  -0.00   0.00   2.20  49.19
     46:    0.00   0.00  -0.00  -0.22  -0.00  -0.00  -0.00 -43.33  56.59
     47:    0.00  -0.00  -0.00  -0.46  -0.00   0.00   0.00   0.97  -1.46


 Summation over all MOs, multiplied by occupation: Total SFO Gross Populations in this Irrep
 ===========================================================================================

     0.51   -0.00   -0.00    0.02    0.02    0.01    0.00    0.00    0.00    0.00    0.00    0.51
    -0.00   -0.00    0.01    0.02    0.02    0.00    0.00    0.00    0.00    0.00    0.51   -0.00
    -0.00    0.01    0.02    0.02    0.00    0.00    0.00    0.00    0.00    1.00    0.55   -0.01
    -0.00   -0.00    0.52   -0.00   -0.00    0.83   -0.00   -0.00    0.43   -0.00   -0.00    0.00
     0.00    0.00    0.00    0.00   -0.00   -0.00   -0.00    0.00    0.00   -0.00   -0.00



                                   ***** SPIN 2 *****



                                       === A ===


 SFO contributions (%) per orbital
 (multiplication by the orbital occupation yields the SFO Gross Populations)

 Orb.:        1      2      3      4      5      6      7      8
 occup:     1.00   1.00   1.00   1.00   0.00   0.00   0.00   0.00
 CF+SFO     ----   ----   ----   ----   ----   ----   ----   ----
 ------
      1:   -0.03  17.21  39.87   0.00   0.00  12.23  39.31   0.00
      2:   -0.00  -0.66   0.14   0.00   0.00  25.94  47.75   0.00
      3:   -0.00  -0.23   0.07   0.00   0.00  -0.92   4.14   0.00
      4:   -0.02   1.78  -0.32  -0.00   0.58   0.58   0.62   0.00
      5:   -0.00   0.39  -0.07  -0.00   2.65   0.13   0.13   0.00
      6:    0.00  -0.00   0.00   1.30  -0.00  -0.00   0.00   0.00
     12:   -0.03  17.21   9.97  29.90   0.00  12.23   9.83  29.48
     13:   -0.00  -0.66   0.04   0.11   0.00  25.93  11.94  35.81
     14:   -0.00  -0.23   0.02   0.06   0.00  -0.92   1.03   3.10
     16:   -0.00   0.10   0.05   0.10   2.65   0.03   0.02   0.02
     17:   -0.02   1.63   0.56  -0.53   0.00   0.53   0.09   0.47
     23:   -0.03  17.21   9.97  29.90   0.00  12.23   9.83  29.48
     24:   -0.00  -0.66   0.04   0.11   0.00  25.93  11.94  35.81
     25:   -0.00  -0.23   0.02   0.06   0.00  -0.92   1.03   3.10
     27:   -0.00   0.10   0.05   0.10   2.65   0.03   0.02   0.02
     28:   -0.02   1.63   0.56  -0.53   0.00   0.53   0.09   0.47
     34:  100.17   0.00  -0.00  -0.00   0.00   0.00  -0.00   0.00
     35:    0.00  44.89   0.00   0.00   0.00   5.15   0.00   0.00
     36:   -0.00  -0.94   0.00   0.00  -0.00 -19.24  -0.00  -0.00
     39:    0.00   0.00  31.90   0.00  15.80   0.00   2.28   0.00
     40:    0.00   0.00  -0.44  -0.00   0.41  -0.00 -34.22  -0.00
     42:    0.00   0.00   7.04   0.00  71.61   0.00   0.50   0.00
     43:    0.00   0.00  -0.10  -0.00   1.88  -0.00  -7.55  -0.00
     45:    0.00  -0.00   0.00  38.94  -0.00  -0.00   0.00   2.78
     46:    0.00   0.00  -0.00  -0.54  -0.00  -0.00  -0.00 -41.77


 Summation over all MOs, multiplied by occupation: Total SFO Gross Populations in this Irrep
 ===========================================================================================

     0.57   -0.01   -0.00    0.01    0.00    0.01    0.00    0.00    0.00    0.00    0.00    0.57
    -0.01   -0.00    0.01    0.00    0.02    0.00    0.00    0.00    0.00    0.00    0.57   -0.01
    -0.00    0.01    0.00    0.02    0.00    0.00    0.00    0.00    0.00    1.00    0.45   -0.01
    -0.00   -0.00    0.32   -0.00   -0.00    0.07   -0.00   -0.00    0.39   -0.01   -0.01    0.00
[...]
                                   29.48%     1 S              -6.484  1.00     3 H
                                    3.10%     3 S              41.380  0.00     2 H
                                    3.10%     3 S              41.380  0.00     3 H
                                    2.78%     1 P:z            -5.135  0.67     4 C
       4.204  0.00     9 A         55.18%     2 P:z             4.559  0.00     4 C
                                   51.54%     1 P:z            -5.135  0.67     4 C
                                   18.69%     1 S              -6.484  1.00     2 H
                                   18.69%     1 S              -6.484  1.00     3 H
                                  -17.63%     2 S               2.096  0.00     2 H
                                  -17.63%     2 S               2.096  0.00     3 H
                                   -5.51%     3 S              41.380  0.00     2 H
                                   -5.51%     3 S              41.380  0.00     3 H
                                    3.56%     1 P:z            11.162  0.00     1 H
                                   -1.30%     3 P:z            55.959  0.00     4 C
       4.204  0.00    10 A         45.21%     2 P:x             4.559  0.00     4 C
                                   42.22%     1 P:x            -5.135  0.67     4 C
                                   24.92%     1 S              -6.484  1.00     1 H
                                  -23.51%     2 S               2.096  0.00     1 H
                                    9.98%     2 P:y             4.559  0.00     4 C
                                    9.32%     1 P:y            -5.135  0.67     4 C
                                   -7.35%     3 S              41.380  0.00     1 H
                                    6.23%     1 S              -6.484  1.00     3 H
                                    6.23%     1 S              -6.484  1.00     2 H
                                   -5.88%     2 S               2.096  0.00     3 H
                                   -5.88%     2 S               2.096  0.00     2 H
                                    2.09%     1 P:x            11.162  0.00     2 H
                                    2.09%     1 P:x            11.162  0.00     3 H
                                   -1.84%     3 S              41.380  0.00     3 H
                                   -1.84%     3 S              41.380  0.00     2 H
                                   -1.21%     1 P:x            11.162  0.00     1 H
                                   -1.06%     3 P:x            55.959  0.00     4 C

 Energy gradients wrt nuclear displacements
 ==========================================

     Atom      Cartesian (a.u./angstrom)
                 X         Y         Z
 ----------------------------------------
     1 H    -0.000729  0.000429  0.000000
     2 C    -0.000094 -0.000215 -0.000000
     3 H     0.000411 -0.000107 -0.000729
     4 H     0.000411 -0.000107  0.000729
 ----------------------------------------



 =======================================================================
 Electrostatic potential at the Nuclei due to electrons and other nuclei
 =======================================================================
  
         Atom                  Potential
         ----                  ---------
     1)   H                   1.10721360
     2)   C                  14.79060062
     3)   H                   1.10722022
     4)   H                   1.10722022

=============================================================
=== CALCULATE ANALYTICAL SECOND DERIVATIVES OF THE ENERGY ===
=============================================================


-----------------------------------------------
*** RESTART ***
*** CHECKING FOR HESSIAN ON RESTART FILE ***
@@@ WARNING: Cannot find section: Hessian                                                                                                                                                         
*** NO HESSIAN EXISTS ON RESTART FILE ***
*** HESSIAN FROM RESTART FILE IS NOT COMPLETE ***
*** FURTHER CALCULATIONS WILL BE DONE         ***
-----------------------------------------------
                  ------------------------------------------------
                  
                  This Analytical Second Derivatives Progam    
                            was written for ADF by             
                  
                                Stephen K. Wolff               
                  
                         Scientific Computing & Modelling      
                  
                                Vrije University
                              Theoretical Chemistry
                                De Boelelaan 1083
                                1081 HV Amsterdam
                                 The Netherlands
                  
                  ------------------------------------------------
                  
                                    References:                
                                    ===========                
                  
                   Attila Berces, Ross M. Dickson, Liangyou Fan
                   Heiko Jacobsen, David Swerhone, Tom Ziegler,
                   Computer Physics Communications 100 (1997) 247.
                  
                   Heiko Jacobsen, Attila Berces
                   David Swerhone, Tom Ziegler,
                   Computer Physics Communications 100 (1997) 263.
                  
                   Stephen K. Wolff
                   Int. J. Quantum Chem. 104 (2005) 645.
                  
                  ------------------------------------------------
                  
              <><><><><><><><><><><><><><><><><><><><><><><><><>
 
                 SECOND DERIVATIVES INFORMATION:
                 -------------------------------
 
                 === PRINT
 
                   EIGS,  lprint_eigbas =  F
                   U1,    lprint_u1     =  F
                   PARTS, lprint_parts  =  F
 
                 === DEBUG
 
                   ALL        =  F
                   B1         =  F
                   DENSITIES  =  F
                   FIT        =  F
                   HESSIAN    =  F
                   NUMBERS    =  F
                   SYMMETRY   =  F
                   U1         =  F
 
                 === CPKS
 
                   MAX_CPKS_ITERATIONS    =    20
                   U1_ACCURACY PARAMETER  =     5.00
                   U1 ACCURACY            =     0.0000100
 

                 Estimated peak private memory usage    100 MB per process
                                 shared memory usage    153 MB per node

              <><><><><><><><><><><><><><><><><><><><><><><><><>

######## LOOPING OVER NUCLEI ########

==========================
###### NUCLEUS:     1  H  
==========================

====================  solving CPKS equations  ====================

NUCLEUS  COORD.    ITERATION   ACCURACY
-------  ------    ---------   --------
    1       1          1       0.18879987D-01
    1       1          2       0.41524568D-02
    1       1          3       0.21226380D-02
    1       1          4       0.34714465D-03
    1       1          5       0.26031598D-04
    1       1          6       0.89172377D-05
*** CPKS converged.
----------------------------------------------
    1       2          1       0.12595392D-01
    1       2          2       0.48171862D-02
    1       2          3       0.17282864D-02
    1       2          4       0.25578737D-03
    1       2          5       0.34239624D-04
    1       2          6       0.13972769D-04
    1       2          7       0.24062025D-05
*** CPKS converged.
----------------------------------------------
    1       3          1       0.49121442D-02
    1       3          2       0.42606310D-03
    1       3          3       0.47114303D-04
    1       3          4       0.10948451D-04
    1       3          5       0.15176559D-05
*** CPKS converged.
----------------------------------------------

====================  end of solving CPKS equations  ====================

==========================
###### NUCLEUS:     3  H  
==========================

====================  solving CPKS equations  ====================

NUCLEUS  COORD.    ITERATION   ACCURACY
-------  ------    ---------   --------
    3       1          1       0.10146572D-01
    3       1          2       0.26117508D-02
    3       1          3       0.15094527D-02
    3       1          4       0.21845396D-03
    3       1          5       0.19945277D-04
    3       1          6       0.83821525D-05
*** CPKS converged.
----------------------------------------------
    3       2          1       0.13996350D-01
    3       2          2       0.35984041D-02
    3       2          3       0.10739530D-02
    3       2          4       0.16969884D-03
    3       2          5       0.27125163D-04
    3       2          6       0.10937653D-04
    3       2          7       0.21861464D-05
*** CPKS converged.
----------------------------------------------
    3       3          1       0.17491597D-01
    3       3          2       0.24911420D-02
    3       3          3       0.72402244D-03
    3       3          4       0.13136922D-03
    3       3          5       0.21653333D-04
    3       3          6       0.36055384D-05
*** CPKS converged.
----------------------------------------------

====================  end of solving CPKS equations  ====================

==========================
###### NUCLEUS:     4  H  
==========================

====================  solving CPKS equations  ====================

NUCLEUS  COORD.    ITERATION   ACCURACY
-------  ------    ---------   --------
    4       1          1       0.10146572D-01
    4       1          2       0.26117508D-02
    4       1          3       0.15094527D-02
    4       1          4       0.21845395D-03
    4       1          5       0.19945277D-04
    4       1          6       0.83821525D-05
*** CPKS converged.
----------------------------------------------
    4       2          1       0.13996351D-01
    4       2          2       0.35984040D-02
    4       2          3       0.10739529D-02
    4       2          4       0.16969884D-03
    4       2          5       0.27125164D-04
    4       2          6       0.10937653D-04
    4       2          7       0.21861465D-05
*** CPKS converged.
----------------------------------------------
    4       3          1       0.17491597D-01
    4       3          2       0.24911405D-02
    4       3          3       0.72402238D-03
    4       3          4       0.13136922D-03
    4       3          5       0.21653333D-04
    4       3          6       0.36055384D-05
*** CPKS converged.
----------------------------------------------

====================  end of solving CPKS equations  ====================

==========================
###### NUCLEUS:     2  C  
==========================

====================  solving CPKS equations  ====================

NUCLEUS  COORD.    ITERATION   ACCURACY
-------  ------    ---------   --------
    2       1          1       0.28530822D-01
    2       1          2       0.58297327D-02
    2       1          3       0.12487525D-02
    2       1          4       0.11094797D-03
    2       1          5       0.14290509D-04
    2       1          6       0.47709935D-05
*** CPKS converged.
----------------------------------------------
    2       2          1       0.43867599D-01
    2       2          2       0.99161723D-02
    2       2          3       0.83719766D-03
    2       2          4       0.99712853D-04
    2       2          5       0.21725361D-04
    2       2          6       0.90631775D-05
*** CPKS converged.
----------------------------------------------
    2       3          1       0.31751594D-01
    2       3          2       0.18856591D-02
    2       3          3       0.14916039D-03
    2       3          4       0.27013958D-04
    2       3          5       0.57883611D-05
*** CPKS converged.
----------------------------------------------

====================  end of solving CPKS equations  ====================


====================================================================
*** DONE CALCULATING ANALYTICAL SECOND DERIVATIVES OF THE ENERGY ***
====================================================================

 Mulliken charges used for AMS results%charges...
Scanning modes in range provided by user.


    =====================
     CALCULATION RESULTS
    =====================

Energy (hartree)            -0.64778218

Gradients (hartree/bohr)
  Index   Atom            d/dx            d/dy            d/dz
      1      H   -0.0003859177    0.0002267649    0.0000000000
      2      C   -0.0000495024   -0.0001139690   -0.0000000000
      3      H    0.0002177102   -0.0000563985   -0.0003858029
      4      H    0.0002177099   -0.0000563974    0.0003858029

 Symmetry: C(S)

 -----------------------
 Normal Mode Frequencies
 -----------------------

 Index   Frequency (cm-1)   Intensity (km/mol)   Irrep
     7           515.7514              48.5300      A'
     8          1368.7305               2.7860      A'
     9          1368.8276               2.7832     A''
    10          3072.5964               0.0000      A'
    11          3256.1734               4.4863     A''
    12          3256.2666               4.4842      A'

 Zero-point energy (Hartree):     0.0292

 ------------
 Normal Modes
 ------------

 Number of removed rigid normal modes: 6
 
 Mode:     7      Frequency (cm-1):      515.7514     Intensity (km/mol):       48.5300     Irrep: A'
 Index  Atom      ---- Displacements (x/y/z) ----
     1     H      -0.241595  -0.517756   0.000000
     2     C       0.061204   0.130292  -0.000000
     3     H      -0.243574  -0.516806   0.001333
     4     H      -0.243575  -0.516806  -0.001333
 
 Mode:     8      Frequency (cm-1):     1368.7305     Intensity (km/mol):        2.7860     Irrep: A'
 Index  Atom      ---- Displacements (x/y/z) ----
     1     H      -0.064516   0.032548   0.003139
     2     C      -0.084097   0.039497  -0.000360
     3     H       0.534263  -0.252041   0.382479
     4     H       0.531577  -0.250794  -0.381329
 
 Mode:     9      Frequency (cm-1):     1368.8276     Intensity (km/mol):        2.7832     Irrep: A''
 Index  Atom      ---- Displacements (x/y/z) ----
     1     H      -0.000250   0.000126  -0.809741
     2     C      -0.000326   0.000153   0.092909
     3     H      -0.344327   0.159862  -0.146774
     4     H       0.348459  -0.161812  -0.149735
 
 Mode:    10      Frequency (cm-1):     3072.5964     Intensity (km/mol):        0.0000     Irrep: A'
 Index  Atom      ---- Displacements (x/y/z) ----
     1     H      -0.522927   0.244333   0.000000
     2     C       0.000112   0.000285  -0.000000
     3     H       0.260794  -0.123861  -0.500069
     4     H       0.260794  -0.123861   0.500070
 
 Mode:    11      Frequency (cm-1):     3256.1734     Intensity (km/mol):        4.4863     Irrep: A''
 Index  Atom      ---- Displacements (x/y/z) ----
     1     H       0.000954  -0.000445  -0.018595
     2     C      -0.000117   0.000055  -0.099975
     3     H      -0.324599   0.154539   0.604023
     4     H       0.325041  -0.154750   0.604953
 
 Mode:    12      Frequency (cm-1):     3256.2666     Intensity (km/mol):        4.4842     Irrep: A'
 Index  Atom      ---- Displacements (x/y/z) ----
     1     H       0.736126  -0.343477   0.000024
     2     C      -0.090485   0.042511   0.000130
     3     H       0.171052  -0.081546  -0.360423
     4     H       0.170211  -0.081145   0.358856

PES point character: Geometry corresponds to a local minimum on the PES.




 ============================
 Statistical Thermal Analysis  ***  ideal gas assumed  ***
 ============================
  
 Pressure:                  1.000000 atm.
 Temperature:             298.150000 K



 Moments of Inertia [amu*bohr^2] and principal axis
 ==================================================

           6.3236          6.3238         12.6473
 ------------------------------------------------
          -0.9051          0.0000          0.4252
           0.4252          0.0000          0.9051
           0.0000          1.0000          0.0000


 The rotational contribution to the molecular entropy includes
 a term, dependent on the symmetry number sigma. The results 
 reported below were computed using sigma = 1, determined from
 the point group symmetry of the input geometry (C(S)). 
 If this is not the correct symmetry, try symmetrizing the molecule before
 running the calculation (note: linear molecules should be aligned along one
 of the Cartesian axes).
 Contributions from frequencies below 20 1/cm are not included in vibrational sums.
 Their contributions, if any, are reported separately.


     Temp                                                        Transl      Rotat     Vibrat     Total
     ----                                                        ------      -----     ------     -----

     298.15   Entropy (cal/mol-K):                               34.068     13.989      0.661     48.718
              Nuclear Internal Energy (kcal/mol):                 0.889      0.889     18.497     20.275
              Constant Volume Heat Capacity (cal/mol-K):          2.981      2.981      1.451      7.412
          (c) Constant Volume Heat Capacity (cal/mol-K):          2.981      2.981      1.450      7.412

       Summary of energy terms
                                                   hartree              eV         kcal/mol           kJ/mol
                                      --------------------     -----------       ----------      -----------
      Energy from Engine:               -0.647782177089547        -17.6270          -406.49         -1700.75
      Nuclear Internal Energy:           0.032310087306763          0.8792            20.27            84.83
  (c) Nuclear Internal Energy:           0.032308624188815          0.8792            20.27            84.83
      Internal Energy U:                -0.615472089782784        -16.7478          -386.21         -1615.92
      pV/n = RT:                         0.000944186013486          0.0257             0.59             2.48
      Enthalpy H:                       -0.614527903769299        -16.7222          -385.62         -1613.44
      -T*S:                             -0.023147390510610         -0.6299           -14.53           -60.77
  (c) -T*S:                             -0.023147801801602         -0.6299           -14.53           -60.77
      Gibbs free energy:                -0.637675294279908        -17.3520          -400.15         -1674.22
 
 
 
  (c) The properties marked with this symbol have been corrected using 'low vibrational frequency free rotor
      interpolation corrections'. For those terms all positive frequencies are used (also ones below 20 1/cm),
      but the contribution to the partition function of small vibrational frequencies is modified as described
      in the following paper:
      S. Grimme, 'Supramolecular Binding Thermodynamics by Dispersion-Corrected Density Functional Theory'
      (Chem. Eur. J. 2012, 18, 9955-9964)
      Configuration: Dampener Frequency          :   100.000 1/cm
                     Dampener Alpha              :     4.000
                     Averaging Moment of Inertia : 1.000E-44 kg m2

--------------
Atomic charges
--------------
  Index   Atom    Charge
      1      H   -0.1560
      2      C    0.4678
      3      H   -0.1559
      4      H   -0.1559


Dipole moment vector    (Debye):     0.00201220    0.00438465   -0.00000000
              magnitude (Debye):     0.00482432


Final PES point is a local minimum. Geometry optimization successful!


AMS application finished. Exiting.
NORMAL TERMINATION
     Total cpu time:     229.20
  Total system time:       3.42
 Total elapsed time:     239.78
