

 Parallel Execution: Process Information
 ==============================================================================
 Rank   Node Name                              NodeID   MyNodeRank  NodeMaster
    0   node120                                   0          0          0
    1   node120                                   0          1         -1
    2   node120                                   0          2         -1
    3   node120                                   0          3         -1
 ==============================================================================


May use up to 122928MB of RAM as shared memory on node 0

 *******************************************************************************
 *                                                                             *
 *  --------------------------------                                           *
 *   Amsterdam Modeling Suite (AMS)              2021.102                      *
 *  --------------------------------                                           *
 *                                               r95042 2021-06-07             *
 *                                                                             *
 *                                                                             *
 *                              =================                              *
 *                              |               |                              *
 *                              |     A M S     |                              *
 *                              |               |                              *
 *                              =================                              *
 *                                                                             *
 *                                                                             *
 *   Online information and documentation:  https://www.scm.com/support/       *
 *   E-mail:  support@scm.com   info@scm.com                                   *
 *                                                                             *
 *   Scientific publications using AMS results must be properly referenced     *
 *   See the User Manuals (or the web site) for recommended citations          *
 *   The terms and conditions of the End User License Agreement apply to       *
 *   the use of AMS, https://www.scm.com/license-terms/                        *
 *                                                                             *
 **********************  x86_64_linux_intel / intelmpi  ************************
 
 Licensed to: VU/FEW (+ SARA) / ALGEMEEN / Amsterdam / THE NETHERLANDS
 SCM User ID: u7668
  
 AMS 2021.102  RunTime: Jan28-2022 10:52:37  ShM Nodes: 1  Procs: 4

 AMS jobname: 38.achiral_catalyst.H_tBu_BF3.Rsub_cat_complex
 AMS jobid  : 438660038

 Start   directory: /scistor/tc/yhk800/MasterProject/calculations/achiral_catalyst_H_tBu_BF3/38.achiral_catalyst.H_tBu_BF3.Rsub_cat_complex/
 Results directory: /scistor/tc/yhk800/MasterProject/calculations/achiral_catalyst_H_tBu_BF3/38.achiral_catalyst.H_tBu_BF3.Rsub_cat_complex/
 Scratch directory: /scratch/5503/amstmp_38.achiral_catalyst.H_tBu_BF3.Rsub_cat_complex_kid0.438660038/


 Communication costs MPI_COMM_WORLD:      0.850 usec per message,   0.0078 usec per 8-byte item
 Communication costs for intra-node:      0.587 usec per message,   0.0176 usec per 8-byte item

 RNG seed: 1062683078 887585938 -2074097849 1598468580 -1681970686 -1800071600 580042616 -245060442



                      ************************************************************************
                      *  ADF 2021.102  RunTime: Jan28-2022 10:52:38  ShM Nodes: 1  Procs: 4  *
                      ************************************************************************
  
       ***************************
       *  GEOMETRY OPTIMIZATION  *
       ***************************

Optimization Method                    Quasi Newton
Optimization Coordinates               Delocalized Coordinates
Optimize lattice                       F
 
 ------------------------------------------------------
 Convergence criteria (Hartree,Angstrom)
 ------------------------------------------------------
 Maximum gradient               0.001000000000
 Maximum rms gradient           0.000666666667
 Maximum step allowed           0.010000000000
 Maximum rms step allowed       0.006666666667
 Maximum energy change allowe   0.000240000000
 Maximum stress energy allowe   0.000500000000
 
Initial model Hessian                  Automatic Hessian
 
------------------------------------
Quasi-Newton Optimizer Parameters
------------------------------------
Hessian Update Method                  BFGS
Maximum number of steps                  250
First GDIIS cycle                          0
Maximum GDIIS vectors                      0
Trust radius (bohr)                        0.200000
Trust radius varies                        T
Constraints converged at all steps         T
Use projector                              T
 
 Rigid motions settings for: old optimizer
 Atomic rotations (x,y,z):     T T T
 Atomic translations (x,y,z):  T T T
 Tolerance:                   1.000000000000000E-006
 
--------
Geometry
--------
Formula: C7H12BF3O
Atoms
  Index Symbol   x (angstrom)   y (angstrom)   z (angstrom)
      1      H    -0.62056146    -0.03764738    -0.08023722
      2      C    -0.09659473    -2.02948020    -0.54883449
      3      C     0.18266548    -0.75219647    -0.26512258
      4      C     1.55928918    -0.22013974    -0.18291419
      5      O     1.86635738     0.93365884     0.07180470
      6      H     0.69695300    -2.74612423    -0.73626627
      7      C    -1.53512390    -3.98169459    -1.12156823
      8      C    -1.54987465    -2.53359044    -0.62266085
      9      C    -2.32371837    -1.63885453    -1.59566924
     10      C    -2.16108997    -2.45555144     0.77964353
     11      H    -2.14765732    -1.42687928     1.14159999
     12      H    -2.55099094    -4.37493076    -1.18722103
     13      H    -0.96277866    -4.61120054    -0.43929077
     14      H    -1.07715113    -4.03683810    -2.10978859
     15      H    -3.36175531    -1.96622602    -1.67465053
     16      H    -1.87118027    -1.67785219    -2.58715690
     17      H    -2.31140649    -0.60455404    -1.25008242
     18      H    -3.19455491    -2.80588288     0.76743983
     19      H    -1.59305862    -3.07453987     1.47502332
     20      H     2.32514145    -0.94333367    -0.37095895
     21      B     1.85103070     2.46611042     0.80757453
     22      F     1.21169900     1.96533883     1.83725713
     23      F     1.17915281     2.94809146    -0.21028491
     24      F     3.16224029     2.48490098     0.79575137
 
Total System Charge             0.00000
 
 
----------------
ADF Engine Input
----------------
 
 NumericalQuality VeryGood
 SCF
 Converge 1.0e-6
 Iterations 99
 End
 SYMMETRY NOSYM
 XC
 GGA OLYP
 End
 basis
 core None
 type TZ2P
 End
 

 Title: *** (NO TITLE) ***

 Using automatic Hessian for delocalized coordinates.
 *** GOStep1 ***

 Energy gradients wrt nuclear displacements
 ==========================================

     Atom      Cartesian (a.u./angstrom)
                 X         Y         Z
 ----------------------------------------
     1 H    -0.007179  0.000277 -0.000267
     2 C     0.029489  0.001513 -0.000717
     3 C    -0.026304 -0.034170 -0.009044
     4 C     0.059073 -0.002342 -0.001767
     5 O    -0.011069  0.146434  0.066207
     6 H    -0.006635  0.002389 -0.000149
     7 C     0.003045 -0.002115 -0.000787
     8 C    -0.029112  0.002998  0.005368
     9 C     0.002875 -0.001804  0.001453
    10 C     0.000267 -0.001389 -0.004176
    11 H     0.002692 -0.000535 -0.005143
    12 H     0.001999  0.003880  0.001219
    13 H    -0.001243  0.006297 -0.001415
    14 H    -0.000775  0.004124  0.004997
    15 H     0.004125  0.000661  0.000645
    16 H     0.001096 -0.002346  0.005205
    17 H     0.005505 -0.002267  0.004499
    18 H     0.004044  0.001807 -0.000401
    19 H     0.000358  0.001457 -0.006214
    20 H    -0.038359  0.030688  0.010428
    21 B    -0.003234  0.084749  0.049143
    22 F     0.045646 -0.040907 -0.115302
    23 F     0.047668 -0.117445  0.035527
    24 F    -0.083972 -0.081953 -0.039310
 ----------------------------------------
 Mulliken charges used for AMS results%charges...
 
----------------------------------------------------------------------
Geometry Convergence after Step   1       (Hartree/Angstrom,Angstrom)
----------------------------------------------------------------------
current energy                               -4.80191296 Hartree
energy change                      -4.80191296     0.00024000    F
constrained gradient max            0.14643547     0.00100000    F
constrained gradient rms            0.03640529     0.00066667    F
gradient max                        0.14643547
gradient rms                        0.03640529
cart. step max                      0.13354117     0.01000000    F
cart. step rms                      0.03260740     0.00666667    F
 
 
--------
Geometry
--------
Formula: C7H12BF3O
Atoms
  Index Symbol   x (angstrom)   y (angstrom)   z (angstrom)
      1      H    -0.60516685    -0.02843200    -0.08747659
      2      C    -0.11287411    -2.03446946    -0.55454657
      3      C     0.18372752    -0.75669646    -0.27431654
      4      C     1.56648404    -0.25161512    -0.20072850
      5      O     1.89158258     0.90014017     0.05012126
      6      H     0.67976587    -2.75413474    -0.74145970
      7      C    -1.53938844    -3.99811559    -1.12388194
      8      C    -1.56315834    -2.54664380    -0.62746857
      9      C    -2.34703333    -1.65981347    -1.60510984
     10      C    -2.17624310    -2.46943505     0.77777246
     11      H    -2.17186660    -1.44045741     1.14036098
     12      H    -2.55294275    -4.39920116    -1.18858567
     13      H    -0.96284211    -4.62478047    -0.44091596
     14      H    -1.08165011    -4.05484185    -2.11321029
     15      H    -3.38291899    -1.99720123    -1.68136038
     16      H    -1.89668049    -1.69770354    -2.59853315
     17      H    -2.34616399    -0.62291311    -1.26676357
     18      H    -3.20792146    -2.82761403     0.76536955
     19      H    -1.60533726    -3.08297245     1.47702456
     20      H     2.32759904    -0.99311776    -0.39202490
     21      B     1.89498162     2.46376070     0.80043134
     22      F     1.24644099     2.08538361     1.89740002
     23      F     1.22343704     3.08163263    -0.16568866
     24      F     3.21520181     2.58982576     0.84697790
 
Total System Charge             0.00000
 
 *** GOStep2 ***

 Energy gradients wrt nuclear displacements
 ==========================================

     Atom      Cartesian (a.u./angstrom)
                 X         Y         Z
 ----------------------------------------
     1 H    -0.005642 -0.000325 -0.000351
     2 C     0.026405  0.001005 -0.000578
     3 C    -0.023822 -0.028191 -0.007107
     4 C     0.053852  0.004314 -0.001921
     5 O    -0.015039  0.066576  0.030919
     6 H    -0.005761  0.001619 -0.000318
     7 C     0.002426 -0.002264 -0.001054
     8 C    -0.027158  0.001181  0.004945
     9 C     0.001813 -0.001254  0.000915
    10 C    -0.000230 -0.001171 -0.003457
    11 H     0.002422 -0.000439 -0.004239
    12 H     0.001287  0.002990  0.000950
    13 H    -0.000704  0.005167 -0.000975
    14 H    -0.000352  0.003491  0.003884
    15 H     0.002878  0.000659  0.000365
    16 H     0.001200 -0.001822  0.004121
    17 H     0.004723 -0.002165  0.003459
    18 H     0.002830  0.001498 -0.000050
    19 H     0.000622  0.001100 -0.004960
    20 H    -0.028748  0.020391  0.007797
    21 B     0.002421  0.041051  0.026353
    22 F     0.023548 -0.018555 -0.058547
    23 F     0.023445 -0.057355  0.018349
    24 F    -0.042418 -0.037503 -0.018499
 ----------------------------------------
 Mulliken charges used for AMS results%charges...

 dE(predicted):    -0.42890E-01, dE(actual):    -0.34549E-01, Trust radius:    0.400000, all in a.u.
 
----------------------------------------------------------------------
Geometry Convergence after Step   2       (Hartree/Angstrom,Angstrom)
----------------------------------------------------------------------
current energy                               -4.83646147 Hartree
energy change                      -0.03454850     0.00024000    F
constrained gradient max            0.06657221     0.00100000    F
constrained gradient rms            0.01952447     0.00066667    F
gradient max                        0.06657221
gradient rms                        0.01952447
cart. step max                      0.21151227     0.01000000    F
cart. step rms                      0.06369018     0.00666667    F
 
 
--------
Geometry
--------
Formula: C7H12BF3O
Atoms
  Index Symbol   x (angstrom)   y (angstrom)   z (angstrom)
      1      H    -0.54099257     0.07594233    -0.06297207
      2      C    -0.14848088    -1.96415151    -0.56694933
      3      C     0.19701508    -0.69495963    -0.27205848
      4      C     1.59734512    -0.29422202    -0.20310933
      5      O     1.98324189     0.84430229     0.04272099
      6      H     0.65094238    -2.68288561    -0.74817193
      7      C    -1.50055371    -3.98486860    -1.12676773
      8      C    -1.57478842    -2.52747486    -0.63379617
      9      C    -2.43796351    -1.70126251    -1.61135169
     10      C    -2.19310915    -2.49305954     0.78049207
     11      H    -2.26337797    -1.47181401     1.16127778
     12      H    -2.49886332    -4.42767798    -1.17899366
     13      H    -0.89620243    -4.59770233    -0.45135315
     14      H    -1.05619277    -4.03969129    -2.12493657
     15      H    -3.44545934    -2.12350444    -1.66858318
     16      H    -2.00952725    -1.70985002    -2.61728408
     17      H    -2.53004094    -0.66155569    -1.29219559
     18      H    -3.20134417    -2.91731316     0.75842867
     19      H    -1.59578083    -3.07637267     1.48689333
     20      H     2.33769531    -1.07840550    -0.42463366
     21      B     1.95375127     2.44773274     0.78774348
     22      F     1.14550485     2.19040114     1.84409584
     23      F     1.43494931     3.17376318    -0.22871179
     24      F     3.26926461     2.59521383     1.04360347
 
Total System Charge             0.00000
 
 *** GOStep3 ***

 Energy gradients wrt nuclear displacements
 ==========================================

     Atom      Cartesian (a.u./angstrom)
                 X         Y         Z
 ----------------------------------------
     1 H    -0.001323 -0.000794  0.000474
     2 C     0.017517  0.003600 -0.003000
     3 C    -0.007440 -0.004038 -0.004181
     4 C     0.032278 -0.000775  0.005465
     5 O    -0.026187  0.026513  0.011131
     6 H    -0.003062 -0.000153  0.000550
     7 C     0.000085  0.000226 -0.000009
     8 C    -0.015280 -0.000452  0.004391
     9 C    -0.000927 -0.001992 -0.000119
    10 C    -0.000267 -0.001687 -0.003110
    11 H     0.000591 -0.000763 -0.001016
    12 H     0.000289  0.000544  0.000145
    13 H    -0.000199  0.001617 -0.000203
    14 H    -0.000138  0.001095  0.001194
    15 H     0.000389  0.000584 -0.000196
    16 H     0.000148 -0.000380  0.001008
    17 H     0.000717 -0.001934 -0.000079
    18 H     0.000545  0.000635  0.000443
    19 H     0.000069  0.000266 -0.001106
    20 H    -0.007813  0.003334  0.000882
    21 B     0.006674  0.002824  0.003905
    22 F     0.006479 -0.007500 -0.013096
    23 F     0.003187 -0.012113  0.002052
    24 F    -0.006330 -0.008660 -0.005524
 ----------------------------------------
 Mulliken charges used for AMS results%charges...

 dE(predicted):    -0.11949E-01, dE(actual):    -0.14048E-01, Trust radius:    0.400000, all in a.u.
 
----------------------------------------------------------------------
Geometry Convergence after Step   3       (Hartree/Angstrom,Angstrom)
----------------------------------------------------------------------
current energy                               -4.85050923 Hartree
energy change                      -0.01404776     0.00024000    F
constrained gradient max            0.03228165     0.00100000    F
constrained gradient rms            0.00747087     0.00066667    F
gradient max                        0.03228165
gradient rms                        0.00747087
cart. step max                      0.21692397     0.01000000    F
cart. step rms                      0.05250915     0.00666667    F
 
 
--------
Geometry
--------
Formula: C7H12BF3O
Atoms
  Index Symbol   x (angstrom)   y (angstrom)   z (angstrom)
      1      H    -0.50109753     0.09630537    -0.06183348
      2      C    -0.14669528    -1.96236080    -0.54851278
      3      C     0.21671191    -0.69348067    -0.26818057
      4      C     1.61962741    -0.32353069    -0.24462303
      5      O     2.04089491     0.80142139     0.01763765
      6      H     0.65296199    -2.67770479    -0.75070942
      7      C    -1.50183356    -3.97407069    -1.14445965
      8      C    -1.56455614    -2.52417792    -0.62029653
      9      C    -2.43183143    -1.66740090    -1.57143463
     10      C    -2.17538993    -2.51306884     0.80161326
     11      H    -2.24708318    -1.49938282     1.20385315
     12      H    -2.50359185    -4.40983348    -1.19870675
     13      H    -0.89830936    -4.60901665    -0.48748531
     14      H    -1.06645175    -4.01544561    -2.14825292
     15      H    -3.44046857    -2.08789871    -1.63122104
     16      H    -2.01317881    -1.64971385    -2.58213337
     17      H    -2.52284262    -0.63465144    -1.22652184
     18      H    -3.18373740    -2.93835938     0.77400286
     19      H    -1.57747427    -3.10939673     1.49767315
     20      H     2.35063250    -1.13579774    -0.42517663
     21      B     1.90719884     2.42569832     0.74568857
     22      F     0.92858089     2.22396876     1.67266751
     23      F     1.57187996     3.17582067    -0.33671955
     24      F     3.16308582     2.58266134     1.22651858
 
Total System Charge             0.00000
 
 *** GOStep4 ***

 Energy gradients wrt nuclear displacements
 ==========================================

     Atom      Cartesian (a.u./angstrom)
                 X         Y         Z
 ----------------------------------------
     1 H    -0.000626 -0.000024 -0.000441
     2 C     0.009963  0.004019  0.003044
     3 C    -0.002472 -0.001279  0.003443
     4 C     0.022002  0.001974 -0.015112
     5 O    -0.031054  0.012595  0.010869
     6 H    -0.001643 -0.000325 -0.001292
     7 C     0.000133 -0.000437 -0.000102
     8 C    -0.009948 -0.002333  0.000703
     9 C     0.000718 -0.000623  0.000253
    10 C     0.001166  0.000166 -0.002542
    11 H    -0.000115 -0.000286  0.000348
    12 H     0.000123 -0.000187 -0.000024
    13 H     0.000030 -0.000021 -0.000079
    14 H     0.000012 -0.000017  0.000130
    15 H     0.000047  0.000167  0.000047
    16 H    -0.000081  0.000090 -0.000014
    17 H    -0.000030 -0.000137 -0.000446
    18 H     0.000045  0.000277  0.000075
    19 H    -0.000046  0.000046  0.000087
    20 H    -0.001231 -0.003220  0.006189
    21 B     0.009935 -0.009595 -0.002090
    22 F     0.001921 -0.001936 -0.002457
    23 F     0.000253  0.000235 -0.000617
    24 F     0.000897  0.000853  0.000030
 ----------------------------------------
 Mulliken charges used for AMS results%charges...

 dE(predicted):    -0.28663E-02, dE(actual):    -0.27222E-02, Trust radius:    0.400000, all in a.u.
 
----------------------------------------------------------------------
Geometry Convergence after Step   4       (Hartree/Angstrom,Angstrom)
----------------------------------------------------------------------
current energy                               -4.85323138 Hartree
energy change                      -0.00272215     0.00024000    F
constrained gradient max            0.03104228     0.00100000    F
constrained gradient rms            0.00587157     0.00066667    F
gradient max                        0.03104228
gradient rms                        0.00587157
cart. step max                      0.21427866     0.01000000    F
cart. step rms                      0.05930474     0.00666667    F
 
 
--------
Geometry
--------
Formula: C7H12BF3O
Atoms
  Index Symbol   x (angstrom)   y (angstrom)   z (angstrom)
      1      H    -0.43336805     0.11122566    -0.02587639
      2      C    -0.13764345    -1.96012074    -0.53363090
      3      C     0.25521008    -0.70120229    -0.24012702
      4      C     1.66316705    -0.38833537    -0.20936082
      5      O     2.13682108     0.72692926     0.02069982
      6      H     0.65961670    -2.67914170    -0.74285755
      7      C    -1.50586465    -3.94800027    -1.17043049
      8      C    -1.54741360    -2.50862651    -0.60968332
      9      C    -2.41715993    -1.61472003    -1.52839805
     10      C    -2.14949469    -2.52483739     0.82114800
     11      H    -2.21397328    -1.52035916     1.24898361
     12      H    -2.51386909    -4.37010845    -1.22586475
     13      H    -0.90577986    -4.61018851    -0.53603053
     14      H    -1.08167771    -3.97397602    -2.18060313
     15      H    -3.42925505    -2.02822588    -1.58929097
     16      H    -2.01056113    -1.56934388    -2.54392636
     17      H    -2.50024341    -0.59058204    -1.15338048
     18      H    -3.16105360    -2.94385254     0.78729292
     19      H    -1.55393686    -3.14173174     1.50227014
     20      H     2.37448495    -1.21538793    -0.43525534
     21      B     1.82375336     2.38256532     0.67803484
     22      F     0.71430223     2.21246672     1.46826459
     23      F     1.62930854     3.11502546    -0.45774436
     24      F     2.98166292     2.62111219     1.34915377
 
Total System Charge             0.00000
 
 *** GOStep5 ***

 Energy gradients wrt nuclear displacements
 ==========================================

     Atom      Cartesian (a.u./angstrom)
                 X         Y         Z
 ----------------------------------------
     1 H     0.000406  0.000766 -0.000640
     2 C    -0.001519  0.003968  0.002122
     3 C     0.003436  0.003514 -0.001383
     4 C     0.009142 -0.002630  0.003088
     5 O    -0.029816 -0.000767 -0.002173
     6 H     0.000494 -0.000403 -0.002330
     7 C     0.000670 -0.000561  0.000153
     8 C    -0.001125 -0.003053  0.000743
     9 C     0.002569  0.000596  0.000339
    10 C     0.001576  0.001277 -0.001564
    11 H    -0.000626  0.000329  0.001589
    12 H    -0.000191 -0.000669 -0.000180
    13 H     0.000258 -0.001542  0.000024
    14 H     0.000185 -0.001010 -0.001057
    15 H    -0.000404 -0.000409  0.000289
    16 H    -0.000291  0.000553 -0.001059
    17 H    -0.000745  0.001539 -0.000540
    18 H    -0.000700 -0.000108  0.000023
    19 H    -0.000151 -0.000272  0.001237
    20 H     0.005366 -0.007044 -0.001036
    21 B     0.013596 -0.019870 -0.006800
    22 F    -0.005203  0.004777  0.006280
    23 F    -0.001606  0.011673 -0.003545
    24 F     0.004678  0.009345  0.006422
 ----------------------------------------
 Mulliken charges used for AMS results%charges...

 dE(predicted):    -0.37613E-02, dE(actual):    -0.29303E-02, Trust radius:    0.400000, all in a.u.
 
----------------------------------------------------------------------
Geometry Convergence after Step   5       (Hartree/Angstrom,Angstrom)
----------------------------------------------------------------------
current energy                               -4.85616169 Hartree
energy change                      -0.00293031     0.00024000    F
constrained gradient max            0.02980325     0.00100000    F
constrained gradient rms            0.00551204     0.00066667    F
gradient max                        0.02980325
gradient rms                        0.00551204
cart. step max                      0.20106448     0.01000000    F
cart. step rms                      0.05282291     0.00666667    F
 
 
--------
Geometry
--------
Formula: C7H12BF3O
Atoms
  Index Symbol   x (angstrom)   y (angstrom)   z (angstrom)
      1      H    -0.36481810     0.12373239    -0.00843751
      2      C    -0.11871741    -1.95405330    -0.53240851
      3      C     0.30113544    -0.70306541    -0.23585445
      4      C     1.71298743    -0.42643736    -0.21795055
      5      O     2.22856731     0.67224534     0.01871045
      6      H     0.67121422    -2.68279161    -0.74062588
      7      C    -1.51100159    -3.91779169    -1.17577078
      8      C    -1.52839655    -2.48298529    -0.60158716
      9      C    -2.40345230    -1.57268995    -1.50159550
     10      C    -2.11822792    -2.50764359     0.83724318
     11      H    -2.16956478    -1.50641440     1.27474240
     12      H    -2.52509498    -4.32646300    -1.22354429
     13      H    -0.91258553    -4.59396295    -0.55421192
     14      H    -1.09889511    -3.94066947    -2.19134126
     15      H    -3.41922629    -1.97888100    -1.55434485
     16      H    -2.00917879    -1.51974627    -2.52180930
     17      H    -2.47538455    -0.55178300    -1.11493683
     18      H    -3.13386422    -2.91767824     0.80725130
     19      H    -1.52273217    -3.13689239     1.50737480
     20      H     2.40640905    -1.27031962    -0.44529230
     21      B     1.72696105     2.31409298     0.63827230
     22      F     0.53736819     2.09493883     1.29817381
     23      F     1.62293171     3.04561864    -0.51292534
     24      F     2.78059845     2.62022449     1.44425541
 
Total System Charge             0.00000
 
 *** GOStep6 ***

 Energy gradients wrt nuclear displacements
 ==========================================

     Atom      Cartesian (a.u./angstrom)
                 X         Y         Z
 ----------------------------------------
     1 H     0.000923  0.001639  0.000345
     2 C    -0.009172  0.002025  0.001043
     3 C     0.007118  0.004439  0.000290
     4 C     0.001098 -0.000069  0.000773
     5 O    -0.020518 -0.009363 -0.005606
     6 H     0.001886 -0.000292 -0.001527
     7 C     0.000686 -0.000001  0.000368
     8 C     0.005583 -0.001489  0.000102
     9 C     0.002144  0.000411 -0.000202
    10 C     0.001372  0.001304 -0.000729
    11 H    -0.000673  0.000512  0.001760
    12 H    -0.000419 -0.000756 -0.000207
    13 H     0.000319 -0.001826  0.000146
    14 H     0.000187 -0.001171 -0.001429
    15 H    -0.000824 -0.000452  0.000181
    16 H    -0.000410  0.000613 -0.001349
    17 H    -0.000995  0.001773 -0.000429
    18 H    -0.001032 -0.000331  0.000024
    19 H    -0.000165 -0.000457  0.001557
    20 H     0.007779 -0.008688 -0.000529
    21 B     0.012734 -0.020126 -0.005682
    22 F    -0.010056  0.005998  0.007839
    23 F    -0.002333  0.014889 -0.005576
    24 F     0.004768  0.011416  0.008836
 ----------------------------------------
 Mulliken charges used for AMS results%charges...

 dE(predicted):    -0.34596E-02, dE(actual):    -0.20603E-02, Trust radius:    0.400000, all in a.u.
 
----------------------------------------------------------------------
Geometry Convergence after Step   6       (Hartree/Angstrom,Angstrom)
----------------------------------------------------------------------
current energy                               -4.85822196 Hartree
energy change                      -0.00206027     0.00024000    F
constrained gradient max            0.02050257     0.00100000    F
constrained gradient rms            0.00552874     0.00066667    F
gradient max                        0.02050257
gradient rms                        0.00552874
cart. step max                      0.20803551     0.01000000    F
cart. step rms                      0.05767449     0.00666667    F
 
 
--------
Geometry
--------
Formula: C7H12BF3O
Atoms
  Index Symbol   x (angstrom)   y (angstrom)   z (angstrom)
      1      H    -0.31038819     0.12601915     0.00639595
      2      C    -0.09252803    -1.95686819    -0.50746546
      3      C     0.34458216    -0.71143873    -0.20855603
      4      C     1.76050485    -0.45848102    -0.18625577
      5      O     2.31695359     0.62655736     0.04531508
      6      H     0.68808431    -2.69529787    -0.71689081
      7      C    -1.51863312    -3.87778798    -1.19668913
      8      C    -1.50787457    -2.45819634    -0.58753089
      9      C    -2.37386595    -1.51225894    -1.45956774
     10      C    -2.09437394    -2.51005143     0.85338030
     11      H    -2.12772826    -1.51842754     1.31319605
     12      H    -2.53999157    -4.26679452    -1.25043458
     13      H    -0.92962143    -4.57848594    -0.59401948
     14      H    -1.11023990    -3.88158940    -2.21375965
     15      H    -3.39559118    -1.90174556    -1.51882194
     16      H    -1.98160013    -1.43900909    -2.47904988
     17      H    -2.42768138    -0.50163682    -1.04478021
     18      H    -3.11583270    -2.90412645     0.81604102
     19      H    -1.50532938    -3.16458606     1.50435840
     20      H     2.43464995    -1.31355049    -0.41715506
     21      B     1.62323177     2.24560690     0.56851028
     22      F     0.39351311     1.95826057     1.12304473
     23      F     1.57422958     2.93035160    -0.61323109
     24      F     2.57256294     2.64412094     1.45735313
 
Total System Charge             0.00000
 
 *** GOStep7 ***

 Energy gradients wrt nuclear displacements
 ==========================================

     Atom      Cartesian (a.u./angstrom)
                 X         Y         Z
 ----------------------------------------
     1 H     0.001064  0.003487  0.000194
     2 C    -0.013016 -0.000248  0.002150
     3 C     0.007002  0.003235  0.001952
     4 C    -0.006392  0.001043  0.003644
     5 O    -0.001347 -0.010771 -0.006961
     6 H     0.002319  0.000635 -0.002600
     7 C     0.000200  0.000063  0.000459
     8 C     0.009373 -0.000566 -0.000211
     9 C     0.001181  0.000425 -0.000744
    10 C     0.000438  0.001125  0.000170
    11 H    -0.000529  0.000380  0.001306
    12 H    -0.000402 -0.000637 -0.000186
    13 H     0.000217 -0.001386  0.000147
    14 H     0.000111 -0.000827 -0.001168
    15 H    -0.000765 -0.000392  0.000058
    16 H    -0.000313  0.000438 -0.001049
    17 H    -0.000627  0.001458 -0.000099
    18 H    -0.000889 -0.000303 -0.000022
    19 H    -0.000106 -0.000424  0.001108
    20 H     0.006851 -0.006247 -0.001545
    21 B     0.006238 -0.013985 -0.002921
    22 F    -0.011458  0.002237  0.004575
    23 F    -0.002153  0.012270 -0.005627
    24 F     0.003004  0.008988  0.007369
 ----------------------------------------
 Mulliken charges used for AMS results%charges...

 dE(predicted):    -0.18937E-02, dE(actual):    -0.11842E-02, Trust radius:    0.400000, all in a.u.
 
----------------------------------------------------------------------
Geometry Convergence after Step   7       (Hartree/Angstrom,Angstrom)
----------------------------------------------------------------------
current energy                               -4.85940615 Hartree
energy change                      -0.00118418     0.00024000    F
constrained gradient max            0.01400042     0.00100000    F
constrained gradient rms            0.00442557     0.00066667    F
gradient max                        0.01400042
gradient rms                        0.00442557
cart. step max                      0.08394447     0.01000000    F
cart. step rms                      0.02094956     0.00666667    F
 
 
--------
Geometry
--------
Formula: C7H12BF3O
Atoms
  Index Symbol   x (angstrom)   y (angstrom)   z (angstrom)
      1      H    -0.34240423     0.11818692    -0.02097027
      2      C    -0.09212418    -1.96127273    -0.50867250
      3      C     0.32906137    -0.70831242    -0.22122385
      4      C     1.74573345    -0.44030845    -0.17762237
      5      O     2.31617687     0.63826643     0.06190150
      6      H     0.69003227    -2.70889198    -0.66849178
      7      C    -1.51879930    -3.87868139    -1.20262239
      8      C    -1.51170425    -2.46112313    -0.59326003
      9      C    -2.37841107    -1.51850138    -1.46544157
     10      C    -2.09798575    -2.51620532     0.84588390
     11      H    -2.13122322    -1.52394437     1.30294433
     12      H    -2.53898199    -4.26937593    -1.25870626
     13      H    -0.92835781    -4.57559108    -0.59819150
     14      H    -1.10713906    -3.87806461    -2.21763029
     15      H    -3.39889671    -1.90922719    -1.52838779
     16      H    -1.98153431    -1.44425196    -2.48245926
     17      H    -2.43323827    -0.50980457    -1.04827813
     18      H    -3.11802838    -2.91246974     0.80972046
     19      H    -1.50494402    -3.16907060     1.49399538
     20      H     2.41362720    -1.29570346    -0.39796616
     21      B     1.64105660     2.26305064     0.58167314
     22      F     0.45062075     1.98071511     1.20698920
     23      F     1.53223864     2.89260773    -0.62056210
     24      F     2.64225799     2.66855764     1.40076558
 
Total System Charge             0.00000
 
 *** GOStep8 ***

 Energy gradients wrt nuclear displacements
 ==========================================

     Atom      Cartesian (a.u./angstrom)
                 X         Y         Z
 ----------------------------------------
     1 H     0.001608  0.000488  0.000947
     2 C    -0.007127 -0.001208 -0.002499
     3 C     0.000870 -0.002163  0.000493
     4 C    -0.008240 -0.001684  0.001185
     5 O     0.006903 -0.000087 -0.005268
     6 H     0.001493  0.000071  0.000216
     7 C    -0.000193  0.000166  0.000639
     8 C     0.006692  0.000029  0.001044
     9 C    -0.000406  0.000306 -0.001139
    10 C    -0.000709  0.000551  0.000165
    11 H    -0.000135  0.000118  0.000250
    12 H    -0.000182 -0.000211 -0.000057
    13 H     0.000078 -0.000271  0.000125
    14 H     0.000015 -0.000110 -0.000341
    15 H    -0.000420 -0.000202 -0.000096
    16 H    -0.000081  0.000011 -0.000285
    17 H     0.000083  0.000341  0.000168
    18 H    -0.000359 -0.000070  0.000044
    19 H     0.000027 -0.000185  0.000141
    20 H     0.002698 -0.001355  0.000277
    21 B     0.003321 -0.004109 -0.000936
    22 F    -0.006183  0.002738  0.003375
    23 F    -0.000531  0.003705 -0.001453
    24 F     0.000778  0.003127  0.003005
 ----------------------------------------
 Mulliken charges used for AMS results%charges...

 dE(predicted):    -0.70730E-03, dE(actual):    -0.90784E-03, Trust radius:    0.400000, all in a.u.
 
----------------------------------------------------------------------
Geometry Convergence after Step   8       (Hartree/Angstrom,Angstrom)
----------------------------------------------------------------------
current energy                               -4.86031398 Hartree
energy change                      -0.00090784     0.00024000    F
constrained gradient max            0.00823491     0.00100000    F
constrained gradient rms            0.00235154     0.00066667    F
gradient max                        0.00823491
gradient rms                        0.00235154
cart. step max                      0.14408321     0.01000000    F
cart. step rms                      0.04965621     0.00666667    F
 
 
--------
Geometry
--------
Formula: C7H12BF3O
Atoms
  Index Symbol   x (angstrom)   y (angstrom)   z (angstrom)
      1      H    -0.35040792     0.11711969    -0.07467340
      2      C    -0.08282961    -1.97252512    -0.47103087
      3      C     0.33197303    -0.71378104    -0.20584179
      4      C     1.74945268    -0.45420882    -0.09413074
      5      O     2.31877645     0.62259732     0.14202658
      6      H     0.69235012    -2.73180927    -0.59701499
      7      C    -1.51978777    -3.84800940    -1.25102147
      8      C    -1.51140522    -2.45752538    -0.58491465
      9      C    -2.36927830    -1.47756935    -1.42027875
     10      C    -2.09734300    -2.56935923     0.84926985
     11      H    -2.12627369    -1.59526265     1.34300639
     12      H    -2.54053253    -4.23240564    -1.32832435
     13      H    -0.93380435    -4.56871818    -0.67175391
     14      H    -1.10162138    -3.80538835    -2.26177861
     15      H    -3.39024871    -1.86077713    -1.50610639
     16      H    -1.96419825    -1.36280067    -2.42973288
     17      H    -2.42244218    -0.48809368    -0.96104526
     18      H    -3.11776010    -2.96134228     0.79821386
     19      H    -1.50424211    -3.24820587     1.46924516
     20      H     2.40974051    -1.32221429    -0.25388295
     21      B     1.62410203     2.27489485     0.51054606
     22      F     0.45402646     2.01414391     1.16816284
     23      F     1.49771339     2.76597972    -0.74812674
     24      F     2.63107302     2.75584503     1.27257423
 
Total System Charge             0.00000
 
 *** GOStep9 ***

 Energy gradients wrt nuclear displacements
 ==========================================

     Atom      Cartesian (a.u./angstrom)
                 X         Y         Z
 ----------------------------------------
     1 H     0.000240 -0.000391 -0.000913
     2 C     0.001282 -0.001787 -0.000784
     3 C    -0.002478 -0.002611  0.000813
     4 C    -0.000718 -0.001015  0.003136
     5 O     0.003795  0.000966 -0.004079
     6 H     0.000286  0.001043 -0.002428
     7 C    -0.000281  0.000033  0.000630
     8 C     0.001139 -0.000793  0.002841
     9 C    -0.001175  0.000952 -0.001567
    10 C    -0.001602  0.000214  0.000215
    11 H     0.000098 -0.000329 -0.000469
    12 H     0.000236  0.000209  0.000085
    13 H    -0.000053  0.000597  0.000017
    14 H    -0.000020  0.000346  0.000437
    15 H     0.000269 -0.000116 -0.000099
    16 H     0.000131 -0.000233  0.000326
    17 H     0.000864 -0.000510  0.000167
    18 H     0.000326  0.000254  0.000023
    19 H     0.000112  0.000184 -0.000647
    20 H    -0.001702  0.003031  0.000425
    21 B    -0.001695  0.006540 -0.000028
    22 F     0.001169  0.000202 -0.000821
    23 F     0.001206 -0.003583  0.003223
    24 F    -0.001430 -0.003204 -0.000502
 ----------------------------------------
 Mulliken charges used for AMS results%charges...

 dE(predicted):    -0.45536E-03, dE(actual):    -0.56822E-03, Trust radius:    0.400000, all in a.u.
 
----------------------------------------------------------------------
Geometry Convergence after Step   9       (Hartree/Angstrom,Angstrom)
----------------------------------------------------------------------
current energy                               -4.86088221 Hartree
energy change                      -0.00056822     0.00024000    F
constrained gradient max            0.00652517     0.00100000    F
constrained gradient rms            0.00161887     0.00066667    F
gradient max                        0.00652517
gradient rms                        0.00161887
cart. step max                      0.19886636     0.01000000    F
cart. step rms                      0.05884407     0.00666667    F
 
 
--------
Geometry
--------
Formula: C7H12BF3O
Atoms
  Index Symbol   x (angstrom)   y (angstrom)   z (angstrom)
      1      H    -0.33897894     0.12317747    -0.11300280
      2      C    -0.07724664    -1.97801140    -0.41516573
      3      C     0.34307178    -0.71491242    -0.18450939
      4      C     1.75939217    -0.47084875    -0.01698522
      5      O     2.32794437     0.60571218     0.21296056
      6      H     0.68313266    -2.76036414    -0.44825367
      7      C    -1.51019470    -3.80641100    -1.30575163
      8      C    -1.51084789    -2.44738643    -0.57753925
      9      C    -2.35972584    -1.43178928    -1.37479102
     10      C    -2.10534529    -2.62415853     0.84552228
     11      H    -2.13830710    -1.67211764     1.38011068
     12      H    -2.52976100    -4.18602055    -1.41390980
     13      H    -0.93172809    -4.55243918    -0.75196338
     14      H    -1.07829693    -3.71796820    -2.30743008
     15      H    -3.37752487    -1.81349396    -1.49354441
     16      H    -1.94062802    -1.26697172    -2.37124015
     17      H    -2.42569724    -0.46618421    -0.86960064
     18      H    -3.12431569    -3.01534726     0.77034874
     19      H    -1.51498065    -3.32832269     1.43911171
     20      H     2.40883064    -1.35235285    -0.12252556
     21      B     1.60310417     2.26777880     0.43018664
     22      F     0.48584098     2.03378140     1.17458388
     23      F     1.39546901     2.60190545    -0.86693241
     24      F     2.63382567     2.85332906     1.07370787
 
Total System Charge             0.00000
 
 *** GOStep10 ***

 Energy gradients wrt nuclear displacements
 ==========================================

     Atom      Cartesian (a.u./angstrom)
                 X         Y         Z
 ----------------------------------------
     1 H    -0.000994 -0.001522  0.000704
     2 C     0.007839 -0.001069 -0.001776
     3 C    -0.003822 -0.000830  0.000768
     4 C     0.005350 -0.000313  0.002393
     5 O     0.000020  0.000936 -0.002866
     6 H    -0.000702  0.001013 -0.000458
     7 C    -0.000610  0.000062  0.000725
     8 C    -0.003705 -0.002094  0.002328
     9 C    -0.001878  0.001437 -0.001773
    10 C    -0.001399  0.000497 -0.000133
    11 H     0.000291 -0.000413 -0.000701
    12 H     0.000523  0.000245  0.000077
    13 H    -0.000086  0.000884  0.000008
    14 H    -0.000068  0.000395  0.000727
    15 H     0.000612  0.000024  0.000012
    16 H     0.000231 -0.000409  0.000601
    17 H     0.000877 -0.000985 -0.000134
    18 H     0.000758  0.000409 -0.000127
    19 H     0.000177  0.000435 -0.000871
    20 H    -0.003989  0.004531 -0.000373
    21 B    -0.006093  0.012381 -0.000671
    22 F     0.006179 -0.001663 -0.003863
    23 F     0.003031 -0.006896  0.006864
    24 F    -0.002544 -0.007057 -0.001462
 ----------------------------------------
 Mulliken charges used for AMS results%charges...
 Rebuilding optimization coordinates

 dE(predicted):    -0.38370E-03, dE(actual):    -0.58071E-03, Trust radius:    0.800000, all in a.u.
 
----------------------------------------------------------------------
Geometry Convergence after Step  10       (Hartree/Angstrom,Angstrom)
----------------------------------------------------------------------
current energy                               -4.86146291 Hartree
energy change                      -0.00058071     0.00024000    F
constrained gradient max            0.01237036     0.00100000    F
constrained gradient rms            0.00293133     0.00066667    F
gradient max                        0.01237036
gradient rms                        0.00293133
cart. step max                      0.20357487     0.01000000    F
cart. step rms                      0.05716929     0.00666667    F
 
 
--------
Geometry
--------
Formula: C7H12BF3O
Atoms
  Index Symbol   x (angstrom)   y (angstrom)   z (angstrom)
      1      H    -0.31796634     0.13544362    -0.17299130
      2      C    -0.07751272    -1.97870918    -0.36280969
      3      C     0.35425498    -0.71339786    -0.16933039
      4      C     1.76482777    -0.48544457     0.06268755
      5      O     2.33421979     0.59321190     0.27723536
      6      H     0.66505328    -2.77691838    -0.31798637
      7      C    -1.49547805    -3.76340068    -1.35690287
      8      C    -1.51111857    -2.43728125    -0.56964145
      9      C    -2.35749172    -1.39295316    -1.32786012
     10      C    -2.11376031    -2.68027249     0.83988069
     11      H    -2.15593256    -1.75209330     1.41445270
     12      H    -2.51226276    -4.14126323    -1.49378577
     13      H    -0.92057280    -4.53116384    -0.82980984
     14      H    -1.05213081    -3.62948644    -2.34841341
     15      H    -3.37021241    -1.77682224    -1.47753579
     16      H    -1.92765560    -1.17761557    -2.30991259
     17      H    -2.44118440    -0.45275062    -0.77936819
     18      H    -3.12963633    -3.07415718     0.74043049
     19      H    -1.52368310    -3.40602050     1.40731041
     20      H     2.40152814    -1.38128675     0.02992328
     21      B     1.59111314     2.25667787     0.35193657
     22      F     0.52367977     2.07555550     1.17605856
     23      F     1.30747178     2.44685192    -0.96031362
     24      F     2.64148237     2.92388057     0.87013301
 
Total System Charge             0.00000
 
 *** GOStep11 ***

 Energy gradients wrt nuclear displacements
 ==========================================

     Atom      Cartesian (a.u./angstrom)
                 X         Y         Z
 ----------------------------------------
     1 H    -0.001622 -0.001787  0.000849
     2 C     0.011457 -0.000662 -0.001387
     3 C    -0.004008  0.000574  0.001030
     4 C     0.008478 -0.000103  0.002974
     5 O    -0.002216  0.001026 -0.002659
     6 H    -0.001195  0.001156 -0.000361
     7 C    -0.000838  0.000330  0.000912
     8 C    -0.006817 -0.003047  0.001596
     9 C    -0.002085  0.001504 -0.001721
    10 C    -0.001068  0.000722 -0.000373
    11 H     0.000431 -0.000364 -0.000729
    12 H     0.000633  0.000188  0.000001
    13 H    -0.000076  0.000876  0.000051
    14 H    -0.000066  0.000306  0.000732
    15 H     0.000689  0.000130  0.000164
    16 H     0.000305 -0.000481  0.000686
    17 H     0.000622 -0.001146 -0.000514
    18 H     0.000849  0.000389 -0.000165
    19 H     0.000199  0.000526 -0.000777
    20 H    -0.004679  0.004373 -0.001178
    21 B    -0.008448  0.014243 -0.001661
    22 F     0.008050 -0.002719 -0.005142
    23 F     0.004242 -0.007525  0.008645
    24 F    -0.002837 -0.008511 -0.000973
 ----------------------------------------
 Mulliken charges used for AMS results%charges...

 dE(predicted):    -0.11011E-02, dE(actual):    -0.61370E-03, Trust radius:    0.800000, all in a.u.
 
----------------------------------------------------------------------
Geometry Convergence after Step  11       (Hartree/Angstrom,Angstrom)
----------------------------------------------------------------------
current energy                               -4.86207661 Hartree
energy change                      -0.00061370     0.00024000    F
constrained gradient max            0.01422964     0.00100000    F
constrained gradient rms            0.00369349     0.00066667    F
gradient max                        0.01422964
gradient rms                        0.00369349
cart. step max                      0.20682228     0.01000000    F
cart. step rms                      0.05618826     0.00666667    F
 
 
--------
Geometry
--------
Formula: C7H12BF3O
Atoms
  Index Symbol   x (angstrom)   y (angstrom)   z (angstrom)
      1      H    -0.29745898     0.14413161    -0.22811168
      2      C    -0.08171015    -1.97737391    -0.30901582
      3      C     0.36188002    -0.71123756    -0.15218423
      4      C     1.76355781    -0.49417186     0.13975901
      5      O     2.33547198     0.58597688     0.33741200
      6      H     0.64076175    -2.78600975    -0.19024033
      7      C    -1.47593445    -3.71832987    -1.40523206
      8      C    -1.51221199    -2.42811210    -0.56024649
      9      C    -2.35844481    -1.35877018    -1.27913712
     10      C    -2.12450103    -2.73926202     0.83142225
     11      H    -2.18026232    -1.83723764     1.44527115
     12      H    -2.48826501    -4.09628993    -1.57184943
     13      H    -0.90223114    -4.50491794    -0.90536520
     14      H    -1.02092977    -3.53755615    -2.38386549
     15      H    -3.36449789    -1.74564088    -1.46149070
     16      H    -1.91770896    -1.09199382    -2.24350422
     17      H    -2.46273210    -0.44675236    -0.68824717
     18      H    -3.13560075    -3.13784490     0.70531800
     19      H    -1.53312318    -3.48393632     1.37246553
     20      H     2.38513816    -1.39988724     0.17659007
     21      B     1.58711665     2.24475120     0.27270287
     22      F     0.56699179     2.13739876     1.16404954
     23      F     1.23547200     2.29823952    -1.03642396
     24      F     2.65625494     2.96541060     0.66331073
 
Total System Charge             0.00000
 
 *** GOStep12 ***

 Energy gradients wrt nuclear displacements
 ==========================================

     Atom      Cartesian (a.u./angstrom)
                 X         Y         Z
 ----------------------------------------
     1 H    -0.002115 -0.001932  0.000811
     2 C     0.014348 -0.000511 -0.000700
     3 C    -0.004050  0.001657  0.000824
     4 C     0.010675  0.000241  0.003641
     5 O    -0.003666  0.000903 -0.002258
     6 H    -0.001609  0.001312 -0.000091
     7 C    -0.001195  0.000591  0.001108
     8 C    -0.009305 -0.003661  0.000108
     9 C    -0.002258  0.001545 -0.001493
    10 C    -0.000623  0.000934 -0.000322
    11 H     0.000589 -0.000303 -0.000802
    12 H     0.000743  0.000144 -0.000098
    13 H    -0.000084  0.000872  0.000119
    14 H    -0.000072  0.000230  0.000734
    15 H     0.000724  0.000250  0.000346
    16 H     0.000418 -0.000566  0.000797
    17 H     0.000273 -0.001280 -0.000907
    18 H     0.000923  0.000312 -0.000265
    19 H     0.000211  0.000595 -0.000652
    20 H    -0.005170  0.004344 -0.002048
    21 B    -0.010071  0.015801 -0.003020
    22 F     0.009491 -0.003709 -0.005908
    23 F     0.005080 -0.008014  0.010237
    24 F    -0.003254 -0.009754 -0.000158
 ----------------------------------------
 Mulliken charges used for AMS results%charges...

 dE(predicted):    -0.95257E-03, dE(actual):    -0.48350E-03, Trust radius:    0.800000, all in a.u.
 
----------------------------------------------------------------------
Geometry Convergence after Step  12       (Hartree/Angstrom,Angstrom)
----------------------------------------------------------------------
current energy                               -4.86256012 Hartree
energy change                      -0.00048350     0.00024000    F
constrained gradient max            0.01579118     0.00100000    F
constrained gradient rms            0.00434446     0.00066667    F
gradient max                        0.01579118
gradient rms                        0.00434446
cart. step max                      0.21196101     0.01000000    F
cart. step rms                      0.06533593     0.00666667    F
 
 
--------
Geometry
--------
Formula: C7H12BF3O
Atoms
  Index Symbol   x (angstrom)   y (angstrom)   z (angstrom)
      1      H    -0.27209726     0.15558662    -0.27985686
      2      C    -0.09894315    -1.97141280    -0.23763020
      3      C     0.36356555    -0.70716976    -0.12489857
      4      C     1.75291922    -0.50039282     0.22380648
      5      O     2.33053562     0.58246881     0.39083675
      6      H     0.60064156    -2.78637164    -0.04441895
      7      C    -1.44407051    -3.66224907    -1.45895043
      8      C    -1.51728063    -2.42109970    -0.54319144
      9      C    -2.36828634    -1.32646951    -1.21250739
     10      C    -2.14522841    -2.82183694     0.81895638
     11      H    -2.22706955    -1.95744859     1.48260906
     12      H    -2.44788317    -4.04492490    -1.66375404
     13      H    -0.86670929    -4.46810273    -0.99482311
     14      H    -0.97615023    -3.42034554    -2.41829717
     15      H    -3.36335955    -1.71955837    -1.43771687
     16      H    -1.91647083    -0.99252748    -2.15069958
     17      H    -2.50349436    -0.45384082    -0.56965355
     18      H    -3.14749229    -3.22926292     0.65379069
     19      H    -1.55113963    -3.58714422     1.32783680
     20      H     2.35591561    -1.41340999     0.34700218
     21      B     1.60609452     2.23503470     0.16950072
     22      F     0.61004974     2.22786731     1.09537332
     23      F     1.21189970     2.17835794    -1.13127670
     24      F     2.69108620     2.98483657     0.45134971
 
Total System Charge             0.00000
 
 *** GOStep13 ***

 Energy gradients wrt nuclear displacements
 ==========================================

     Atom      Cartesian (a.u./angstrom)
                 X         Y         Z
 ----------------------------------------
     1 H    -0.002128 -0.001450  0.000681
     2 C     0.013012  0.000705  0.001036
     3 C    -0.002550  0.002737  0.000922
     4 C     0.010563  0.000597  0.002753
     5 O    -0.004893 -0.000575 -0.000031
     6 H    -0.001621  0.000932 -0.000238
     7 C    -0.001408  0.000784  0.001446
     8 C    -0.009599 -0.004235 -0.002374
     9 C    -0.001326  0.001212 -0.000820
    10 C     0.000276  0.001339 -0.000102
    11 H     0.000543 -0.000160 -0.000498
    12 H     0.000672 -0.000039 -0.000266
    13 H    -0.000025  0.000431  0.000118
    14 H     0.000005  0.000000  0.000345
    15 H     0.000530  0.000175  0.000556
    16 H     0.000485 -0.000389  0.000601
    17 H    -0.000401 -0.000875 -0.001038
    18 H     0.000671  0.000046 -0.000332
    19 H     0.000137  0.000405 -0.000162
    20 H    -0.003734  0.002002 -0.002277
    21 B    -0.008171  0.012571 -0.003462
    22 F     0.007981 -0.004114 -0.004725
    23 F     0.003477 -0.005099  0.007470
    24 F    -0.002497 -0.007001  0.000401
 ----------------------------------------
 Mulliken charges used for AMS results%charges...

 dE(predicted):    -0.13475E-02, dE(actual):    -0.76642E-03, Trust radius:    0.800000, all in a.u.
 
----------------------------------------------------------------------
Geometry Convergence after Step  13       (Hartree/Angstrom,Angstrom)
----------------------------------------------------------------------
current energy                               -4.86332653 Hartree
energy change                      -0.00076642     0.00024000    F
constrained gradient max            0.01300716     0.00100000    F
constrained gradient rms            0.00369691     0.00066667    F
gradient max                        0.01300716
gradient rms                        0.00369691
cart. step max                      0.21529650     0.01000000    F
cart. step rms                      0.07746594     0.00666667    F
 
 
--------
Geometry
--------
Formula: C7H12BF3O
Atoms
  Index Symbol   x (angstrom)   y (angstrom)   z (angstrom)
      1      H    -0.23717145     0.16453513    -0.36546794
      2      C    -0.12808456    -1.95965502    -0.15713652
      3      C     0.36032863    -0.70081798    -0.10634827
      4      C     1.72798349    -0.49883557     0.31566005
      5      O     2.32058395     0.58330620     0.43875780
      6      H     0.54193470    -2.77335652     0.12913047
      7      C    -1.40066472    -3.59077790    -1.51515501
      8      C    -1.52559608    -2.41444135    -0.51936663
      9      C    -2.39119886    -1.29926003    -1.12827124
     10      C    -2.16875417    -2.92494467     0.79958835
     11      H    -2.28628670    -2.11167012     1.52074933
     12      H    -2.39160468    -3.98350197    -1.76164386
     13      H    -0.81015029    -4.41206968    -1.09632480
     14      H    -0.92449283    -3.27346673    -2.44829953
     15      H    -3.37190439    -1.69986587    -1.40014233
     16      H    -1.93449246    -0.88742593    -2.03285939
     17      H    -2.56140638    -0.47757699    -0.42765813
     18      H    -3.15788109    -3.34329424     0.58670695
     19      H    -1.56710885    -3.71086834     1.26713113
     20      H     2.30009778    -1.41086342     0.55885776
     21      B     1.64599870     2.22181718     0.05182679
     22      F     0.66017199     2.33991396     0.98551447
     23      F     1.22408725     2.06882891    -1.23791547
     24      F     2.75264360     2.97487511     0.23605322
 
Total System Charge             0.00000
 
 *** GOStep14 ***

 Energy gradients wrt nuclear displacements
 ==========================================

     Atom      Cartesian (a.u./angstrom)
                 X         Y         Z
 ----------------------------------------
     1 H    -0.001353 -0.000353 -0.000021
     2 C     0.008466  0.001925  0.000839
     3 C    -0.000572  0.002672  0.001056
     4 C     0.007252  0.001232  0.001092
     5 O    -0.003768 -0.002378  0.002007
     6 H    -0.001311  0.000123 -0.000269
     7 C    -0.001245  0.001198  0.001813
     8 C    -0.007223 -0.003642 -0.004035
     9 C     0.000221  0.000382  0.000019
    10 C     0.001015  0.001349  0.000620
    11 H     0.000306 -0.000062 -0.000159
    12 H     0.000423 -0.000144 -0.000417
    13 H     0.000030 -0.000106  0.000047
    14 H     0.000113 -0.000195 -0.000214
    15 H     0.000120 -0.000000  0.000558
    16 H     0.000519 -0.000057  0.000341
    17 H    -0.001099 -0.000352 -0.000765
    18 H     0.000206 -0.000344 -0.000328
    19 H     0.000003  0.000012  0.000326
    20 H    -0.001593 -0.000584 -0.001099
    21 B    -0.004672  0.007084 -0.002183
    22 F     0.004209 -0.002852 -0.002036
    23 F     0.001141 -0.001975  0.002978
    24 F    -0.001192 -0.002933 -0.000171
 ----------------------------------------
 Mulliken charges used for AMS results%charges...

 dE(predicted):    -0.10009E-02, dE(actual):    -0.74109E-03, Trust radius:    0.800000, all in a.u.
 
----------------------------------------------------------------------
Geometry Convergence after Step  14       (Hartree/Angstrom,Angstrom)
----------------------------------------------------------------------
current energy                               -4.86406762 Hartree
energy change                      -0.00074109     0.00024000    F
constrained gradient max            0.00846140     0.00100000    F
constrained gradient rms            0.00234995     0.00066667    F
gradient max                        0.00846140
gradient rms                        0.00234995
cart. step max                      0.14101003     0.01000000    F
cart. step rms                      0.06004526     0.00666667    F
 
 
--------
Geometry
--------
Formula: C7H12BF3O
Atoms
  Index Symbol   x (angstrom)   y (angstrom)   z (angstrom)
      1      H    -0.22585787     0.16563150    -0.41043994
      2      C    -0.16429913    -1.95046910    -0.08542834
      3      C     0.34289608    -0.69759712    -0.08659622
      4      C     1.69867213    -0.49109687     0.36170171
      5      O     2.30927056     0.58802983     0.43634759
      6      H     0.49381588    -2.75577523     0.25267039
      7      C    -1.36195619    -3.53671796    -1.54614279
      8      C    -1.53707644    -2.41688985    -0.49028137
      9      C    -2.41698656    -1.29154291    -1.05622822
     10      C    -2.19895389    -3.01582255     0.78262353
     11      H    -2.34953065    -2.24983024     1.54881647
     12      H    -2.33962753    -3.94141319    -1.82611076
     13      H    -0.75511710    -4.36389435    -1.16324098
     14      H    -0.88278045    -3.15700643    -2.45423108
     15      H    -3.38749822    -1.69556437    -1.35971410
     16      H    -1.96233618    -0.82541898    -1.93553960
     17      H    -2.60757867    -0.50859347    -0.31603095
     18      H    -3.17612763    -3.43755198     0.52437869
     19      H    -1.59379157    -3.81833495     1.21674223
     20      H     2.25430662    -1.39257908     0.68405948
     21      B     1.70635181     2.22538808    -0.03964650
     22      F     0.68034252     2.41775646     0.84450444
     23      F     1.32718468     2.06422342    -1.34752030
     24      F     2.82371036     2.96565348     0.15869385
 
Total System Charge             0.00000
 
 *** GOStep15 ***

 Energy gradients wrt nuclear displacements
 ==========================================

     Atom      Cartesian (a.u./angstrom)
                 X         Y         Z
 ----------------------------------------
     1 H    -0.000015 -0.000039 -0.000148
     2 C    -0.000428  0.003143  0.001709
     3 C     0.000633  0.000354  0.001041
     4 C     0.000580  0.000240 -0.001915
     5 O    -0.001615 -0.002688  0.003953
     6 H    -0.000111 -0.000935 -0.000967
     7 C    -0.000993  0.001171  0.001825
     8 C    -0.000694 -0.002262 -0.003762
     9 C     0.001977 -0.000586  0.000654
    10 C     0.001135  0.001121  0.000965
    11 H    -0.000171 -0.000032  0.000304
    12 H    -0.000005 -0.000311 -0.000476
    13 H     0.000140 -0.000589 -0.000127
    14 H     0.000213 -0.000230 -0.000689
    15 H    -0.000326 -0.000200  0.000053
    16 H     0.000262  0.000417 -0.000071
    17 H    -0.001014  0.000321  0.000089
    18 H    -0.000379 -0.000563 -0.000198
    19 H    -0.000163 -0.000390  0.000536
    20 H     0.001237 -0.002912  0.000771
    21 B     0.000688 -0.001059  0.001406
    22 F    -0.000876  0.000315  0.000593
    23 F    -0.001054  0.003072 -0.003943
    24 F     0.000980  0.002641 -0.001605
 ----------------------------------------
 Mulliken charges used for AMS results%charges...

 dE(predicted):    -0.36750E-03, dE(actual):    -0.34226E-03, Trust radius:    0.800000, all in a.u.
 
----------------------------------------------------------------------
Geometry Convergence after Step  15       (Hartree/Angstrom,Angstrom)
----------------------------------------------------------------------
current energy                               -4.86440988 Hartree
energy change                      -0.00034226     0.00024000    F
constrained gradient max            0.00396147     0.00100000    F
constrained gradient rms            0.00137152     0.00066667    F
gradient max                        0.00396147
gradient rms                        0.00137152
cart. step max                      0.05399372     0.01000000    F
cart. step rms                      0.01921079     0.00666667    F
 
 
--------
Geometry
--------
Formula: C7H12BF3O
Atoms
  Index Symbol   x (angstrom)   y (angstrom)   z (angstrom)
      1      H    -0.20921091     0.15909376    -0.44923821
      2      C    -0.16766592    -1.94821490    -0.06768238
      3      C     0.34750005    -0.69882562    -0.09242390
      4      C     1.69510345    -0.48851252     0.37762688
      5      O     2.31647450     0.58567522     0.43585816
      6      H     0.47818331    -2.74738147     0.30666411
      7      C    -1.34856778    -3.51372516    -1.55520251
      8      C    -1.53646223    -2.41131291    -0.48237728
      9      C    -2.41955055    -1.28259982    -1.03654189
     10      C    -2.20398223    -3.03530342     0.77502988
     11      H    -2.35879780    -2.28378046     1.55451015
     12      H    -2.32286042    -3.92059851    -1.84337107
     13      H    -0.73653227    -4.34141167    -1.18252983
     14      H    -0.86942459    -3.11510812    -2.45476895
     15      H    -3.39023045    -1.68406371    -1.34230498
     16      H    -1.96776054    -0.80766558    -1.91239980
     17      H    -2.60667215    -0.50750549    -0.28739728
     18      H    -3.17942633    -3.45266608     0.50472693
     19      H    -1.59871398    -3.84463953     1.19561545
     20      H     2.23751734    -1.38310408     0.73453761
     21      B     1.70271165     2.21009068    -0.06200382
     22      F     0.68555202     2.42349064     0.82773745
     23      F     1.30881440     2.01389104    -1.35991208
     24      F     2.82103399     2.95476185     0.10923460
 
Total System Charge             0.00000
 
 *** GOStep16 ***

 Energy gradients wrt nuclear displacements
 ==========================================

     Atom      Cartesian (a.u./angstrom)
                 X         Y         Z
 ----------------------------------------
     1 H     0.000167  0.000304 -0.000269
     2 C    -0.000790  0.001163 -0.000670
     3 C     0.000318 -0.000531  0.000371
     4 C    -0.000616  0.001297 -0.001332
     5 O     0.001379 -0.004136  0.002404
     6 H     0.000024 -0.000579 -0.000146
     7 C    -0.000501  0.001112  0.001671
     8 C     0.000597 -0.000317 -0.002342
     9 C     0.001048 -0.000762  0.000452
    10 C     0.000445  0.000349  0.001166
    11 H    -0.000095 -0.000010  0.000015
    12 H    -0.000019 -0.000052 -0.000203
    13 H     0.000081 -0.000292 -0.000057
    14 H     0.000143 -0.000101 -0.000377
    15 H    -0.000270  0.000005 -0.000127
    16 H     0.000201  0.000241  0.000041
    17 H    -0.000593  0.000095  0.000188
    18 H    -0.000254 -0.000403 -0.000142
    19 H    -0.000071 -0.000215  0.000225
    20 H     0.000700 -0.001063  0.000800
    21 B    -0.000454  0.000330  0.000634
    22 F    -0.001146  0.001064  0.000451
    23 F    -0.000810  0.001115 -0.001699
    24 F     0.000515  0.001387 -0.001055
 ----------------------------------------
 Mulliken charges used for AMS results%charges...

 dE(predicted):    -0.97119E-04, dE(actual):    -0.10932E-03, Trust radius:    0.800000, all in a.u.
 
----------------------------------------------------------------------
Geometry Convergence after Step  16       (Hartree/Angstrom,Angstrom)
----------------------------------------------------------------------
current energy                               -4.86451920 Hartree
energy change                      -0.00010932     0.00024000    T
constrained gradient max            0.00415524     0.00100000    F
constrained gradient rms            0.00091937     0.00066667    F
gradient max                        0.00415524
gradient rms                        0.00091937
cart. step max                      0.03803029     0.01000000    F
cart. step rms                      0.00851057     0.00666667    F
 
 
--------
Geometry
--------
Formula: C7H12BF3O
Atoms
  Index Symbol   x (angstrom)   y (angstrom)   z (angstrom)
      1      H    -0.21446954     0.15819629    -0.44824336
      2      C    -0.16804071    -1.94894971    -0.06463425
      3      C     0.34484416    -0.69850375    -0.09280555
      4      C     1.69531224    -0.48670542     0.36883843
      5      O     2.31830174     0.58686702     0.42110843
      6      H     0.48070822    -2.74513852     0.31030334
      7      C    -1.34747989    -3.51338997    -1.55261150
      8      C    -1.53745048    -2.41178822    -0.47802508
      9      C    -2.42098486    -1.28358015    -1.03463219
     10      C    -2.20792616    -3.03752971     0.77584351
     11      H    -2.35970034    -2.28819138     1.55796453
     12      H    -2.32109160    -3.92241903    -1.83963921
     13      H    -0.73278299    -4.33907189    -1.18048628
     14      H    -0.87010312    -3.11180259    -2.45143689
     15      H    -3.39534637    -1.68361943    -1.32960764
     16      H    -1.97441624    -0.81795147    -1.91794312
     17      H    -2.59707344    -0.50189763    -0.29005453
     18      H    -3.18483079    -3.44959879     0.50415016
     19      H    -1.60476513    -3.85001995     1.19290936
     20      H     2.24059188    -1.38034181     0.71981637
     21      B     1.70615830     2.21259319    -0.06245827
     22      F     0.66873966     2.40845294     0.80714622
     23      F     1.34299362     2.02564518    -1.36938012
     24      F     2.81584440     2.95932897     0.14726488
 
Total System Charge             0.00000
 
 *** GOStep17 ***

 Energy gradients wrt nuclear displacements
 ==========================================

     Atom      Cartesian (a.u./angstrom)
                 X         Y         Z
 ----------------------------------------
     1 H     0.000175  0.000121 -0.000167
     2 C    -0.000142 -0.000288 -0.000724
     3 C    -0.000203 -0.000576  0.000262
     4 C    -0.000450  0.000316 -0.000430
     5 O     0.001280 -0.003059  0.001097
     6 H     0.000277 -0.000027 -0.000056
     7 C    -0.000250  0.000616  0.000890
     8 C     0.000802  0.000216 -0.000613
     9 C     0.000041 -0.000383 -0.000000
    10 C    -0.000307 -0.000105  0.000652
    11 H    -0.000020 -0.000027 -0.000136
    12 H     0.000014  0.000020 -0.000025
    13 H     0.000021 -0.000014 -0.000005
    14 H     0.000050 -0.000018 -0.000058
    15 H    -0.000086  0.000055 -0.000223
    16 H    -0.000017  0.000058  0.000079
    17 H    -0.000047 -0.000072  0.000065
    18 H    -0.000064 -0.000126 -0.000016
    19 H     0.000036  0.000004 -0.000064
    20 H     0.000144  0.000127  0.000181
    21 B    -0.000751  0.002249 -0.000068
    22 F    -0.000128  0.000510 -0.000095
    23 F    -0.000397  0.000068 -0.000265
    24 F     0.000018  0.000337 -0.000280
 ----------------------------------------
 Mulliken charges used for AMS results%charges...

 dE(predicted):    -0.51484E-04, dE(actual):    -0.68943E-04, Trust radius:    0.800000, all in a.u.
 
----------------------------------------------------------------------
Geometry Convergence after Step  17       (Hartree/Angstrom,Angstrom)
----------------------------------------------------------------------
current energy                               -4.86458814 Hartree
energy change                      -0.00006894     0.00024000    T
constrained gradient max            0.00308337     0.00100000    F
constrained gradient rms            0.00057031     0.00066667    T
gradient max                        0.00308337
gradient rms                        0.00057031
cart. step max                      0.07931791     0.01000000    F
cart. step rms                      0.02059007     0.00666667    F
 
 
--------
Geometry
--------
Formula: C7H12BF3O
Atoms
  Index Symbol   x (angstrom)   y (angstrom)   z (angstrom)
      1      H    -0.21466118     0.15809862    -0.45780635
      2      C    -0.17585353    -1.94457459    -0.04778972
      3      C     0.34043048    -0.69567855    -0.08925249
      4      C     1.68796762    -0.48220743     0.38017513
      5      O     2.31441287     0.58985537     0.42293886
      6      H     0.46824625    -2.73612585     0.34400068
      7      C    -1.33896947    -3.49486103    -1.56119241
      8      C    -1.54140492    -2.41010408    -0.46934140
      9      C    -2.43202484    -1.28038867    -1.01247130
     10      C    -2.21010211    -3.05987179     0.77184773
     11      H    -2.36397608    -2.32520925     1.56750971
     12      H    -2.30846052    -3.90975067    -1.85355291
     13      H    -0.71545651    -4.31885346    -1.20063492
     14      H    -0.86593134    -3.07409810    -2.45316535
     15      H    -3.40780704    -1.68130403    -1.30066086
     16      H    -1.99456777    -0.80961889    -1.89752711
     17      H    -2.60169480    -0.50305243    -0.26204073
     18      H    -3.18579249    -3.46915333     0.49304676
     19      H    -1.60406044    -3.87752361     1.17415569
     20      H     2.22741752    -1.37230142     0.74618728
     21      B     1.72069872     2.20639859    -0.09012579
     22      F     0.64178720     2.40147092     0.72782831
     23      F     1.42180006     2.01091401    -1.41126567
     24      F     2.81503487     2.95852384     0.17252411
 
Total System Charge             0.00000
 
 *** GOStep18 ***

 Energy gradients wrt nuclear displacements
 ==========================================

     Atom      Cartesian (a.u./angstrom)
                 X         Y         Z
 ----------------------------------------
     1 H     0.000140 -0.000042  0.000038
     2 C    -0.000291 -0.001127 -0.000486
     3 C    -0.000372 -0.000326 -0.000166
     4 C     0.000163 -0.000499  0.000094
     5 O     0.000535 -0.001958  0.000622
     6 H     0.000188  0.000322  0.000182
     7 C     0.000083 -0.000125 -0.000084
     8 C     0.000658  0.000723  0.000494
     9 C    -0.000603  0.000043 -0.000106
    10 C    -0.000384 -0.000404  0.000286
    11 H     0.000061 -0.000006 -0.000143
    12 H     0.000066  0.000045  0.000075
    13 H    -0.000018  0.000129  0.000005
    14 H    -0.000037 -0.000000  0.000144
    15 H     0.000140  0.000027 -0.000104
    16 H    -0.000093 -0.000060  0.000054
    17 H     0.000214 -0.000111 -0.000034
    18 H     0.000174  0.000148 -0.000023
    19 H     0.000101  0.000136 -0.000160
    20 H    -0.000250  0.000793 -0.000190
    21 B    -0.000766  0.003489 -0.000682
    22 F     0.000909 -0.000256 -0.000556
    23 F    -0.000092 -0.000373  0.000596
    24 F    -0.000525 -0.000566  0.000143
 ----------------------------------------
 Mulliken charges used for AMS results%charges...

 dE(predicted):    -0.35645E-04, dE(actual):    -0.38454E-04, Trust radius:    0.800000, all in a.u.
 
----------------------------------------------------------------------
Geometry Convergence after Step  18       (Hartree/Angstrom,Angstrom)
----------------------------------------------------------------------
current energy                               -4.86462660 Hartree
energy change                      -0.00003845     0.00024000    T
constrained gradient max            0.00347204     0.00100000    F
constrained gradient rms            0.00059394     0.00066667    T
gradient max                        0.00347204
gradient rms                        0.00059394
cart. step max                      0.01952105     0.01000000    F
cart. step rms                      0.00569439     0.00666667    T
 
 
--------
Geometry
--------
Formula: C7H12BF3O
Atoms
  Index Symbol   x (angstrom)   y (angstrom)   z (angstrom)
      1      H    -0.21532516     0.16013717    -0.45145616
      2      C    -0.17753156    -1.94266917    -0.04136237
      3      C     0.33995766    -0.69426576    -0.08457543
      4      C     1.68999979    -0.48285320     0.37789328
      5      O     2.31798532     0.58860946     0.41423841
      6      H     0.46655749    -2.73462894     0.34966169
      7      C    -1.33585256    -3.49096611    -1.56128552
      8      C    -1.54166029    -2.40914581    -0.46624962
      9      C    -2.43126687    -1.27802348    -1.00838513
     10      C    -2.21274387    -3.06233811     0.77144216
     11      H    -2.36725768    -2.33042279     1.56965223
     12      H    -2.30443199    -3.90651045    -1.85588607
     13      H    -0.71162768    -4.31503247    -1.20205374
     14      H    -0.86228055    -3.06686469    -2.45137770
     15      H    -3.40815696    -1.67783717    -1.29440429
     16      H    -1.99464372    -0.80845014    -1.89453201
     17      H    -2.59844869    -0.50004726    -0.25799027
     18      H    -3.18851328    -3.46979728     0.49021119
     19      H    -1.60825420    -3.88194402     1.17222338
     20      H     2.23077826    -1.37360465     0.74104893
     21      B     1.71924873     2.20040079    -0.09556857
     22      F     0.62705638     2.38580773     0.70830726
     23      F     1.43965808     2.01042821    -1.42173490
     24      F     2.80378591     2.96060230     0.18557046
 
Total System Charge             0.00000
 
 *** GOStep19 ***

 Energy gradients wrt nuclear displacements
 ==========================================

     Atom      Cartesian (a.u./angstrom)
                 X         Y         Z
 ----------------------------------------
     1 H     0.000054  0.000058  0.000093
     2 C    -0.000766 -0.000529  0.000173
     3 C    -0.000108 -0.000028 -0.000269
     4 C     0.000391 -0.000210  0.000208
     5 O     0.000400 -0.002081  0.000246
     6 H     0.000128  0.000275  0.000096
     7 C     0.000115 -0.000402 -0.000504
     8 C     0.000727  0.000279  0.000620
     9 C    -0.000355  0.000254 -0.000072
    10 C    -0.000294 -0.000286 -0.000021
    11 H     0.000042  0.000002 -0.000019
    12 H     0.000034 -0.000019  0.000063
    13 H     0.000001  0.000092  0.000004
    14 H    -0.000033  0.000008  0.000116
    15 H     0.000151 -0.000065 -0.000011
    16 H    -0.000088 -0.000057 -0.000030
    17 H     0.000236 -0.000026 -0.000009
    18 H     0.000137  0.000152  0.000033
    19 H     0.000061  0.000104 -0.000105
    20 H    -0.000114  0.000399 -0.000183
    21 B    -0.000870  0.002990 -0.000794
    22 F     0.000533 -0.000140 -0.000373
    23 F     0.000080 -0.000238  0.000661
    24 F    -0.000463 -0.000532  0.000077
 ----------------------------------------
 Mulliken charges used for AMS results%charges...

 dE(predicted):    -0.10219E-04, dE(actual):    -0.84457E-05, Trust radius:    0.800000, all in a.u.
 
----------------------------------------------------------------------
Geometry Convergence after Step  19       (Hartree/Angstrom,Angstrom)
----------------------------------------------------------------------
current energy                               -4.86463504 Hartree
energy change                      -0.00000845     0.00024000    T
constrained gradient max            0.00297291     0.00100000    F
constrained gradient rms            0.00052484     0.00066667    T
gradient max                        0.00297291
gradient rms                        0.00052484
cart. step max                      0.03477798     0.01000000    F
cart. step rms                      0.00811819     0.00666667    F
 
 
--------
Geometry
--------
Formula: C7H12BF3O
Atoms
  Index Symbol   x (angstrom)   y (angstrom)   z (angstrom)
      1      H    -0.21505721     0.16159522    -0.44889972
      2      C    -0.17816089    -1.94079939    -0.03853147
      3      C     0.33948170    -0.69245269    -0.08006629
      4      C     1.68811630    -0.48110930     0.38613661
      5      O     2.31666680     0.59033526     0.41989365
      6      H     0.46452140    -2.73374859     0.35293108
      7      C    -1.33476476    -3.48398144    -1.56527228
      8      C    -1.54226316    -2.40783761    -0.46473077
      9      C    -2.43425551    -1.27578581    -1.00057571
     10      C    -2.21064686    -3.06814184     0.77031603
     11      H    -2.36587750    -2.34054527     1.57244540
     12      H    -2.30282126    -3.89997604    -1.86112375
     13      H    -0.70875943    -4.30868640    -1.21044060
     14      H    -0.86268594    -3.05465283    -2.45370262
     15      H    -3.41130885    -1.67580585    -1.28604470
     16      H    -1.99987474    -0.80211145    -1.88567584
     17      H    -2.60174626    -0.50098919    -0.24687761
     18      H    -3.18606529    -3.47637613     0.48854925
     19      H    -1.60461985    -3.88870736     1.16703922
     20      H     2.22627877    -1.37123829     0.75569233
     21      B     1.72210946     2.19301863    -0.10649293
     22      F     0.61169930     2.37804205     0.67352928
     23      F     1.47092300     1.99865468    -1.43799166
     24      F     2.79614334     2.96188382     0.19328033
 
Total System Charge             0.00000
 
 *** GOStep20 ***

 Energy gradients wrt nuclear displacements
 ==========================================

     Atom      Cartesian (a.u./angstrom)
                 X         Y         Z
 ----------------------------------------
     1 H    -0.000011  0.000060 -0.000016
     2 C    -0.000250  0.000086 -0.000082
     3 C    -0.000058  0.000141 -0.000004
     4 C     0.000659  0.000043  0.000281
     5 O     0.000145 -0.001765  0.000297
     6 H    -0.000007  0.000086  0.000039
     7 C     0.000210 -0.000384 -0.000541
     8 C     0.000080  0.000052  0.000706
     9 C    -0.000122  0.000205 -0.000012
    10 C    -0.000082 -0.000094 -0.000302
    11 H     0.000026  0.000003  0.000083
    12 H    -0.000006 -0.000025  0.000067
    13 H     0.000027  0.000013  0.000020
    14 H    -0.000012  0.000014  0.000039
    15 H     0.000043 -0.000066  0.000102
    16 H    -0.000013 -0.000055 -0.000059
    17 H     0.000066  0.000022 -0.000012
    18 H     0.000035  0.000050  0.000078
    19 H     0.000013  0.000015  0.000012
    20 H    -0.000059 -0.000154  0.000001
    21 B    -0.000914  0.002277 -0.000891
    22 F     0.000311 -0.000271 -0.000220
    23 F     0.000231  0.000082  0.000480
    24 F    -0.000313 -0.000335 -0.000069
 ----------------------------------------
 Mulliken charges used for AMS results%charges...

 dE(predicted):    -0.81534E-05, dE(actual):    -0.63491E-05, Trust radius:    0.800000, all in a.u.
 
----------------------------------------------------------------------
Geometry Convergence after Step  20       (Hartree/Angstrom,Angstrom)
----------------------------------------------------------------------
current energy                               -4.86464139 Hartree
energy change                      -0.00000635     0.00024000    T
constrained gradient max            0.00226297     0.00100000    F
constrained gradient rms            0.00041867     0.00066667    T
[...]
    21     B       0.000107  -0.001983   0.000401
    22     F      -0.000146   0.000142   0.000088
    23     F      -0.000037   0.000090  -0.000201
    24     F       0.000105   0.000153   0.000012
 
 Mode:    62      Frequency (cm-1):     2995.5256     Intensity (km/mol):       18.1302
 Index  Atom      ---- Displacements (x/y/z) ----
     1     H      -0.000024  -0.000001   0.000188
     2     C      -0.000016   0.000058  -0.000030
     3     C      -0.000008  -0.000007  -0.000025
     4     C       0.000029  -0.000023  -0.000023
     5     O      -0.000004  -0.000001   0.000007
     6     H       0.000347  -0.000553   0.000563
     7     C      -0.003300   0.025522   0.021279
     8     C       0.000260  -0.000128  -0.000737
     9     C       0.000632  -0.000466  -0.000947
    10     C      -0.014762  -0.017777   0.026244
    11     H       0.051400  -0.269842  -0.274628
    12     H      -0.362475  -0.143740  -0.100960
    13     H       0.239808  -0.309976   0.148633
    14     H       0.161226   0.154541  -0.296971
    15     H      -0.003885  -0.001841  -0.001404
    16     H      -0.000895  -0.002616   0.003692
    17     H      -0.002583   0.009897   0.008716
    18     H       0.374418   0.154901   0.120207
    19     H      -0.252733   0.323519  -0.152949
    20     H      -0.000163   0.000232  -0.000022
    21     B      -0.000007   0.000007   0.000021
    22     F       0.000005  -0.000001  -0.000005
    23     F      -0.000000  -0.000002  -0.000007
    24     F       0.000000  -0.000001  -0.000002
 
 Mode:    63      Frequency (cm-1):     2997.9007     Intensity (km/mol):       22.5375
 Index  Atom      ---- Displacements (x/y/z) ----
     1     H      -0.002044   0.002022  -0.001121
     2     C       0.000845  -0.002260   0.000731
     3     C       0.000669   0.000045   0.000240
     4     C      -0.000759   0.000769  -0.000425
     5     O       0.000072   0.000094   0.000010
     6     H      -0.017799   0.023515  -0.010944
     7     C      -0.002868   0.023306   0.021869
     8     C       0.000501  -0.000396   0.000242
     9     C      -0.012172   0.014367  -0.007108
    10     C       0.013816   0.013995  -0.023253
    11     H      -0.046564   0.239958   0.247008
    12     H      -0.348478  -0.139408  -0.097892
    13     H       0.221437  -0.286152   0.137005
    14     H       0.159351   0.150583  -0.294001
    15     H       0.210874   0.094876   0.061613
    16     H      -0.101912  -0.098391   0.190791
    17     H       0.032811  -0.164969  -0.169436
    18     H      -0.326938  -0.135830  -0.103840
    19     H       0.211283  -0.270489   0.128076
    20     H       0.006350  -0.010055   0.004216
    21     B      -0.000027  -0.000117   0.000012
    22     F       0.000001   0.000014   0.000003
    23     F       0.000004   0.000012  -0.000007
    24     F       0.000017   0.000020   0.000003
 
 Mode:    64      Frequency (cm-1):     3006.5489     Intensity (km/mol):        8.9605
 Index  Atom      ---- Displacements (x/y/z) ----
     1     H      -0.005471   0.007619  -0.003424
     2     C      -0.001007   0.003253  -0.000974
     3     C       0.000060  -0.001009   0.000207
     4     C       0.000092   0.000058   0.000024
     5     O      -0.000059  -0.000111  -0.000002
     6     H       0.022220  -0.030945   0.013968
     7     C       0.002010  -0.011308  -0.009255
     8     C       0.000222  -0.000633   0.000207
     9     C      -0.025926   0.034096  -0.015682
    10     C      -0.005641  -0.007486   0.011186
    11     H       0.021298  -0.106565  -0.110625
    12     H       0.149671   0.060096   0.042676
    13     H      -0.104163   0.135965  -0.062506
    14     H      -0.068248  -0.063986   0.126753
    15     H       0.446554   0.199065   0.130837
    16     H      -0.224011  -0.222833   0.427783
    17     H       0.076986  -0.372408  -0.377152
    18     H       0.146862   0.060835   0.046019
    19     H      -0.102465   0.133622  -0.064755
    20     H       0.001304  -0.001203   0.000705
    21     B      -0.000053   0.000130  -0.000043
    22     F       0.000018  -0.000018  -0.000002
    23     F       0.000010  -0.000015   0.000018
    24     F      -0.000004  -0.000018   0.000002
 
 Mode:    65      Frequency (cm-1):     3071.9077     Intensity (km/mol):        0.4993
 Index  Atom      ---- Displacements (x/y/z) ----
     1     H       0.011813  -0.017288   0.007533
     2     C       0.042135  -0.056677   0.026118
     3     C       0.001001   0.004251  -0.000400
     4     C       0.002130  -0.001408   0.001056
     5     O      -0.000400  -0.000255  -0.000103
     6     H      -0.515309   0.644630  -0.310595
     7     C      -0.018222   0.010557  -0.015754
     8     C      -0.000999  -0.000985  -0.000189
     9     C       0.004925   0.007084   0.000714
    10     C      -0.028761   0.014570  -0.006207
    11     H       0.007650  -0.066906  -0.075333
    12     H       0.147491   0.067678   0.041281
    13     H       0.117471  -0.154677   0.070640
    14     H      -0.046623  -0.036861   0.075663
    15     H      -0.049872  -0.022504  -0.014452
    16     H      -0.020098  -0.021580   0.042582
    17     H       0.009647  -0.037825  -0.037772
    18     H       0.190314   0.088328   0.057030
    19     H       0.145860  -0.192989   0.092597
    20     H      -0.018536   0.022618  -0.011069
    21     B       0.000072   0.000145  -0.000001
    22     F      -0.000002  -0.000021  -0.000010
    23     F      -0.000010  -0.000017   0.000013
    24     F      -0.000017  -0.000014  -0.000004
 
 Mode:    66      Frequency (cm-1):     3073.1939     Intensity (km/mol):        0.0438
 Index  Atom      ---- Displacements (x/y/z) ----
     1     H       0.000657  -0.001106   0.001087
     2     C       0.002730  -0.003678   0.001741
     3     C       0.000096   0.000258  -0.000149
     4     C       0.000162  -0.000104   0.000014
     5     O      -0.000033  -0.000012   0.000011
     6     H      -0.033937   0.042118  -0.019505
     7     C      -0.054014   0.020901  -0.030439
     8     C       0.000005  -0.000088  -0.000022
     9     C      -0.000515   0.000203   0.000928
    10     C       0.058309  -0.021401   0.020751
    11     H       0.004385   0.048902   0.062476
    12     H       0.408275   0.178954   0.113597
    13     H       0.292479  -0.393853   0.178275
    14     H      -0.056548  -0.033736   0.070561
    15     H       0.001887   0.000484  -0.000322
    16     H       0.002086   0.001919  -0.005067
    17     H       0.001511  -0.004367  -0.004886
    18     H      -0.410024  -0.184502  -0.125634
    19     H      -0.289662   0.390357  -0.184636
    20     H      -0.001264   0.001522  -0.000653
    21     B       0.000004   0.000008   0.000004
    22     F       0.000000  -0.000001  -0.000001
    23     F      -0.000001  -0.000002  -0.000001
    24     F      -0.000001  -0.000001  -0.000001
 
 Mode:    67      Frequency (cm-1):     3077.7045     Intensity (km/mol):       15.3389
 Index  Atom      ---- Displacements (x/y/z) ----
     1     H       0.010969  -0.013638   0.006563
     2     C       0.016455  -0.021863   0.010154
     3     C      -0.000273   0.002162  -0.000495
     4     C       0.000942  -0.000564   0.000457
     5     O      -0.000168  -0.000102  -0.000044
     6     H      -0.201986   0.249509  -0.121157
     7     C       0.050364   0.001007   0.005592
     8     C       0.000886  -0.000961   0.000503
     9     C      -0.036203  -0.033215  -0.009828
    10     C       0.039415   0.009297   0.028707
    11     H       0.038438  -0.144019  -0.146799
    12     H      -0.381852  -0.161300  -0.113074
    13     H      -0.155868   0.222087  -0.099370
    14     H      -0.065607  -0.070959   0.144335
    15     H       0.395468   0.167811   0.116819
    16     H       0.074267   0.076828  -0.164368
    17     H      -0.043971   0.155719   0.161684
    18     H      -0.375834  -0.159148  -0.110871
    19     H      -0.135442   0.194201  -0.085926
    20     H      -0.008333   0.009974  -0.004946
    21     B       0.000090   0.000026   0.000028
    22     F      -0.000017  -0.000003  -0.000004
    23     F      -0.000016  -0.000003  -0.000007
    24     F      -0.000016  -0.000005  -0.000005
 
 Mode:    68      Frequency (cm-1):     3079.7015     Intensity (km/mol):        2.4997
 Index  Atom      ---- Displacements (x/y/z) ----
     1     H      -0.000291   0.000340  -0.000095
     2     C      -0.000205   0.000253  -0.000050
     3     C       0.000041  -0.000046  -0.000047
     4     C      -0.000013   0.000007  -0.000002
     5     O      -0.000000   0.000002   0.000006
     6     H       0.002040  -0.002652   0.001904
     7     C      -0.033979  -0.037426   0.033216
     8     C      -0.000143   0.000048   0.000282
     9     C       0.015725  -0.005927  -0.038574
    10     C       0.006378   0.047598   0.030551
    11     H       0.073691  -0.344238  -0.365819
    12     H       0.284254   0.110973   0.091916
    13     H      -0.109332   0.123122  -0.054028
    14     H       0.230388   0.211374  -0.435158
    15     H      -0.008978  -0.007062  -0.013210
    16     H      -0.135690  -0.143172   0.259045
    17     H      -0.042208   0.220655   0.212794
    18     H      -0.255964  -0.097070  -0.072310
    19     H       0.107174  -0.125852   0.072673
    20     H       0.000120  -0.000131   0.000045
    21     B      -0.000007   0.000003   0.000012
    22     F       0.000002  -0.000000  -0.000003
    23     F       0.000002  -0.000001  -0.000003
    24     F       0.000001  -0.000000  -0.000002
 
 Mode:    69      Frequency (cm-1):     3080.4900     Intensity (km/mol):       34.0324
 Index  Atom      ---- Displacements (x/y/z) ----
     1     H      -0.002372   0.003475  -0.001523
     2     C      -0.014394   0.019219  -0.008895
     3     C      -0.000427  -0.001294   0.000081
     4     C      -0.000678   0.000557  -0.000357
     5     O       0.000111   0.000026   0.000037
     6     H       0.180209  -0.221052   0.107799
     7     C      -0.010383   0.037672  -0.039619
     8     C      -0.001261   0.001576  -0.000800
     9     C      -0.028341  -0.027323  -0.008101
    10     C      -0.027729   0.046428   0.009869
    11     H       0.049867  -0.269924  -0.292016
    12     H       0.051812   0.032754   0.005901
    13     H       0.256805  -0.329433   0.145503
    14     H      -0.180901  -0.155863   0.321180
    15     H       0.322399   0.135347   0.095321
    16     H       0.057027   0.057991  -0.126262
    17     H      -0.035293   0.125647   0.131162
    18     H       0.038034   0.031295   0.015838
    19     H       0.245304  -0.317774   0.162195
    20     H       0.006277  -0.007762   0.003763
    21     B      -0.000035   0.000026  -0.000020
    22     F       0.000008  -0.000005   0.000000
    23     F       0.000006  -0.000003   0.000007
    24     F       0.000002  -0.000006   0.000002
 
 Mode:    70      Frequency (cm-1):     3084.5697     Intensity (km/mol):       28.5511
 Index  Atom      ---- Displacements (x/y/z) ----
     1     H      -0.002899   0.003337  -0.001371
     2     C      -0.001029   0.001361  -0.000748
     3     C       0.000164  -0.000509  -0.000011
     4     C      -0.000108  -0.000006  -0.000010
     5     O       0.000028   0.000025  -0.000007
     6     H       0.011328  -0.014457   0.007429
     7     C       0.001827  -0.005113   0.005936
     8     C       0.000215   0.001014   0.001689
     9     C      -0.004135   0.031458   0.072066
    10     C       0.010221   0.037804   0.027281
    11     H       0.062111  -0.285262  -0.305082
    12     H      -0.019566  -0.011162  -0.005634
    13     H      -0.032494   0.042183  -0.019443
    14     H       0.029835   0.024360  -0.052860
    15     H      -0.237126  -0.093631  -0.052212
    16     H       0.183516   0.196976  -0.341726
    17     H       0.102773  -0.481251  -0.468552
    18     H      -0.247193  -0.095480  -0.069113
    19     H       0.063418  -0.071307   0.043707
    20     H       0.000608  -0.000593   0.000460
    21     B      -0.000055  -0.000031   0.000062
    22     F       0.000021   0.000005  -0.000013
    23     F       0.000002   0.000001  -0.000021
    24     F       0.000012   0.000008  -0.000003
 
 Mode:    71      Frequency (cm-1):     3084.7853     Intensity (km/mol):       34.4507
 Index  Atom      ---- Displacements (x/y/z) ----
     1     H       0.005642  -0.006697   0.003490
     2     C       0.001697  -0.002171   0.000972
     3     C      -0.000232   0.000928  -0.000342
     4     C       0.000174   0.000042   0.000072
     5     O      -0.000043  -0.000055  -0.000013
     6     H      -0.017473   0.022261  -0.010319
     7     C      -0.037481  -0.028751   0.023587
     8     C      -0.001871  -0.001219   0.000441
     9     C      -0.056365  -0.032911   0.026044
    10     C      -0.013225  -0.017542  -0.017082
    11     H      -0.032198   0.140664   0.147571
    12     H       0.309916   0.125609   0.099897
    13     H      -0.048111   0.045914  -0.019202
    14     H       0.189628   0.174609  -0.361962
    15     H       0.467140   0.198448   0.148653
    16     H       0.216443   0.229900  -0.441318
    17     H      -0.008095  -0.032114  -0.019127
    18     H       0.196695   0.080558   0.054400
    19     H      -0.000066  -0.007502  -0.002423
    20     H      -0.001130   0.001005  -0.000540
    21     B       0.000046   0.000092   0.000039
    22     F      -0.000001  -0.000014  -0.000009
    23     F      -0.000011  -0.000015  -0.000010
    24     F      -0.000019  -0.000019  -0.000007
 
 Mode:    72      Frequency (cm-1):     3194.9159     Intensity (km/mol):        2.3546
 Index  Atom      ---- Displacements (x/y/z) ----
     1     H       0.517410  -0.781372   0.335348
     2     C      -0.002887  -0.002390  -0.000636
     3     C      -0.043701   0.069451  -0.028968
     4     C       0.001327   0.001770   0.000171
     5     O      -0.000275  -0.000183  -0.000068
     6     H       0.015514  -0.025323   0.010455
     7     C      -0.000088   0.000110  -0.000077
     8     C      -0.000280   0.000197  -0.000142
     9     C       0.000514   0.000993  -0.000001
    10     C      -0.000098   0.000115  -0.000036
    11     H       0.000091  -0.000259  -0.000381
    12     H       0.000977   0.000463   0.000369
    13     H       0.000817  -0.001067   0.000539
    14     H      -0.000215  -0.000123   0.000427
    15     H      -0.004706  -0.003035  -0.001208
    16     H      -0.005119  -0.005242   0.008941
    17     H       0.001170  -0.008212  -0.007822
    18     H       0.000996   0.000427   0.000204
    19     H       0.000812  -0.001035   0.000463
    20     H       0.012264  -0.014029   0.007158
    21     B      -0.000019  -0.000194   0.000021
    22     F       0.000052   0.000210   0.000054
    23     F       0.000095   0.000181  -0.000064
    24     F       0.000007   0.000004   0.000002

PES point character: Geometry corresponds to a local minimum on the PES.




 ============================
 Statistical Thermal Analysis  ***  ideal gas assumed  ***
 ============================
  
 Pressure:                  1.000000 atm.
 Temperature:             298.150000 K



 Moments of Inertia [amu*bohr^2] and principal axis
 ==================================================

         907.4985       5090.6684       5234.8865
 ------------------------------------------------
           0.5966          0.7254         -0.3432
           0.7989         -0.5775          0.1682
           0.0762          0.3746          0.9241


 The rotational contribution to the molecular entropy includes
 a term, dependent on the symmetry number sigma. The results 
 reported below were computed using sigma = 1, determined from
 the point group symmetry of the input geometry (NOSYM). 
 If this is not the correct symmetry, try symmetrizing the molecule before
 running the calculation (note: linear molecules should be aligned along one
 of the Cartesian axes).
 Contributions from frequencies below 20 1/cm are not included in vibrational sums.
 Their contributions, if any, are reported separately.


     Temp                                                        Transl      Rotat     Vibrat     Total
     ----                                                        ------      -----     ------     -----

     298.15   Entropy (cal/mol-K):                               41.472     31.559     47.327    120.357
              Nuclear Internal Energy (kcal/mol):                 0.889      0.889    123.138    124.916
              Constant Volume Heat Capacity (cal/mol-K):          2.981      2.981     45.216     51.177
          (c) Constant Volume Heat Capacity (cal/mol-K):          2.981      2.981     41.344     47.306

       Summary of energy terms
                                                   hartree              eV         kcal/mol           kJ/mol
                                      --------------------     -----------       ----------      -----------
      Energy from Engine:               -4.864673636355868       -132.3745         -3052.63        -12772.20
      Nuclear Internal Energy:           0.199065963237449          5.4169           124.92           522.65
  (c) Nuclear Internal Energy:           0.197100207593927          5.3634           123.68           517.49
      Internal Energy U:                -4.665607673118418       -126.9576         -2927.71        -12249.55
      pV/n = RT:                         0.000944186013486          0.0257             0.59             2.48
      Enthalpy H:                       -4.664663487104932       -126.9320         -2927.12        -12247.07
      -T*S:                             -0.057185709843859         -1.5561           -35.88          -150.14
  (c) -T*S:                             -0.054858916891006         -1.4928           -34.42          -144.03
      Gibbs free energy:                -4.721849196948791       -128.4881         -2963.01        -12397.21
 
 
 
  (c) The properties marked with this symbol have been corrected using 'low vibrational frequency free rotor
      interpolation corrections'. For those terms all positive frequencies are used (also ones below 20 1/cm),
      but the contribution to the partition function of small vibrational frequencies is modified as described
      in the following paper:
      S. Grimme, 'Supramolecular Binding Thermodynamics by Dispersion-Corrected Density Functional Theory'
      (Chem. Eur. J. 2012, 18, 9955-9964)
      Configuration: Dampener Frequency          :   100.000 1/cm
                     Dampener Alpha              :     4.000
                     Averaging Moment of Inertia : 1.000E-44 kg m2

--------------
Atomic charges
--------------
  Index   Atom    Charge
      1      H   -0.1627
      2      C    0.4029
      3      C    0.1796
      4      C    0.7120
      5      O   -0.4803
      6      H   -0.2050
      7      C    0.7223
      8      C   -0.0494
      9      C    0.7301
     10      C    0.7221
     11      H   -0.2239
     12      H   -0.2229
     13      H   -0.2406
     14      H   -0.2239
     15      H   -0.2516
     16      H   -0.2314
     17      H   -0.2312
     18      H   -0.2229
     19      H   -0.2406
     20      H   -0.2577
     21      B    1.4052
     22      F   -0.5448
     23      F   -0.5447
     24      F   -0.5406


Dipole moment vector    (Debye):    -3.69060392   -8.18915417    0.12187508
              magnitude (Debye):     8.98318746


Final PES point is a local minimum. Geometry optimization successful!


AMS application finished. Exiting.
NORMAL TERMINATION
     Total cpu time:   44369.13
  Total system time:     133.02
 Total elapsed time:   89480.70
 WARNING: total elapsed time is much higher than the (CPU+system) time. 
 Make sure the machine is not oversubscribed and has enough memory, SCM_TMPDIR p
 oints to a fast file system, and the network is fast enough.
