

 Parallel Execution: Process Information
 ==============================================================================
 Rank   Node Name                              NodeID   MyNodeRank  NodeMaster
    0   DESKTOP-1M8FOJT                           0          0          0
    1   DESKTOP-1M8FOJT                           0          1         -1
    2   DESKTOP-1M8FOJT                           0          2         -1
    3   DESKTOP-1M8FOJT                           0          3         -1
 ==============================================================================


May use up to 4096MB of RAM as shared memory on node 0

 *******************************************************************************
 *                                                                             *
 *  --------------------------------                                           *
 *   Amsterdam Modeling Suite (AMS)              2022.101                      *
 *  --------------------------------                                           *
 *                                               r100871 2022-01-28            *
 *                                                                             *
 *                                                                             *
 *                              =================                              *
 *                              |               |                              *
 *                              |     A M S     |                              *
 *                              |               |                              *
 *                              =================                              *
 *                                                                             *
 *                                                                             *
 *   Online information and documentation:  https://www.scm.com/support/       *
 *   E-mail:  support@scm.com   info@scm.com                                   *
 *                                                                             *
 *   Scientific publications using AMS results must be properly referenced     *
 *   See the User Manuals (or the web site) for recommended citations          *
 *   The terms and conditions of the End User License Agreement apply to       *
 *   the use of AMS, https://www.scm.com/license-terms/                        *
 *                                                                             *
 *********************  x86_64_windows_intel / intelmpi  ***********************
 
 Licensed to: Mr. Yuman Hordijk / SCM / Amsterdam / Netherlands 2022-01-24 11:07:43
 SCM User ID: u24430
  
 AMS 2022.101  RunTime: Feb09-2022 15:49:14  ShM Nodes: 1  Procs: 4

 AMS jobname: ams
 AMS jobid  : 2018718206

 Start   directory: D:/Users/Yuman/Desktop/MasterProject/manual_calculations/squaramide/P1R/tmp..12580.0.noindex/
 Results directory: D:/Users/Yuman/Desktop/MasterProject/manual_calculations/squaramide/P1R/go.results/
 Scratch directory: Z:/SCMTMP/amstmp_ams_kid0.2018718206/


 Communication costs MPI_COMM_WORLD:      1.434 usec per message,   0.0041 usec per 8-byte item
 Communication costs for intra-node:      1.627 usec per message,   0.0046 usec per 8-byte item

 RNG seed: -1919813626 878679495 -503226354 1613502167 -155276607 1003392883 -730695961 -940771069



                      ************************************************************************
                      *  ADF 2022.101  RunTime: Feb09-2022 15:49:15  ShM Nodes: 1  Procs: 4  *
                      ************************************************************************
  
       ***************************
       *  GEOMETRY OPTIMIZATION  *
       ***************************

Optimization Method                    Quasi Newton
Optimization Coordinates               Delocalized Coordinates
Optimize lattice                       F
 
 ------------------------------------------------------
 Convergence criteria (Hartree,Angstrom)
 ------------------------------------------------------
 Maximum gradient               0.001000000000
 Maximum rms gradient           0.000666666667
 Maximum step allowed           0.010000000000
 Maximum rms step allowed       0.006666666667
 Maximum energy change allowe   0.000580000000
 Maximum stress energy allowe   0.000500000000
 
Initial model Hessian                  Automatic Hessian
 
------------------------------------
Quasi-Newton Optimizer Parameters
------------------------------------
Hessian Update Method                  BFGS
Maximum number of steps                  348
First GDIIS cycle                          0
Maximum GDIIS vectors                      0
Trust radius (bohr)                        0.200000
Trust radius varies                        T
Constraints converged at all steps         T
Use projector                              T
 
 Rigid motions settings for: old optimizer
 Atomic rotations (x,y,z):     T T T
 Atomic translations (x,y,z):  T T T
 Tolerance:                   1.000000000000000E-006
 
--------
Geometry
--------
Formula: C22H31N2O3
Atoms
  Index Symbol   x (angstrom)   y (angstrom)   z (angstrom)
      1      C    -1.33934700     1.42778989     0.95380595
      2      C    -0.16241941     0.53651890     0.75925084
      3      C     0.15158310    -0.52466644     1.60397067
      4      O     1.14923392    -1.27541439     1.45514969
      5      H     0.75263453    -4.81327816    -2.65009182
      6      H    -1.94446712     1.08342830     1.79941232
      7      H     0.49597747     0.75729463    -0.07436080
      8      H    -0.53007459    -0.69316913     2.45920590
      9      H     5.24706230     1.55627178     3.04039837
     10      H     4.05719365     0.25274951     3.21661767
     11      H     0.52484933    -4.29776280    -0.96810097
     12      H     5.57253749    -0.04751642     2.35626774
     13      C    -2.20883625     1.50899744    -0.30867900
     14      H    -1.61881613     1.86550482    -1.15318435
     15      H     2.15270352    -4.42101555    -1.64523703
     16      H    -0.89510925    -1.62529517    -0.65069913
     17      H    -3.03800514     2.19650192    -0.14345181
     18      H    -2.61029094     0.52564979    -0.55318612
     19      N     3.47724837    -0.01731419     0.63389606
     20      C     2.62694016    -0.98854028    -1.52325051
     21      C     3.24051461    -0.42775881    -2.74208426
     22      N     1.67987540    -1.88671437    -1.28319862
     23      C     4.16467226     1.12618861     1.23031240
     24      H     2.76095024    -0.48994796     1.19508843
     25      C     1.07554884    -2.69475587    -2.33351011
     26      H     1.38419350    -2.02249549    -0.31739523
     27      H     4.95180168     1.43524883     0.53169018
     28      C     1.12052341    -4.15164497    -1.86839219
     29      C     4.79793999     0.69349429     2.55038446
     30      H     3.85577014     3.25390938    -0.39425262
     31      H     1.70385719    -2.58643492    -3.22707671
     32      C     3.15211684     2.24899210     1.36861728
     33      C     2.20809626     2.25680716     2.39238527
     34      C     1.27692782     3.28291578     2.47569294
     35      C     1.26710613     4.29619583     1.52667062
     36      C     2.19468573     4.28179917     0.49357206
     37      C     3.13278053     3.26312315     0.41413079
     38      H     2.19529158     1.46568192     3.13336040
     39      H     0.55546401     3.28841854     3.28526809
     40      H     0.53671924     5.09468547     1.59214902
     41      H     2.18873316     5.06780073    -0.25303460
     42      C    -0.34174063    -2.16011143    -2.68296749
     43      C    -0.92395695    -2.99315855    -3.83481507
     44      H    -1.85672394    -2.54467816    -4.17771196
     45      H    -1.13599145    -4.01310202    -3.51511564
     46      H    -0.22769581    -3.02506333    -4.67313655
     47      C    -0.20617516    -0.70302684    -3.15191898
     48      H     0.48896706    -0.63545881    -3.98876262
     49      H    -1.17630946    -0.32122393    -3.47033381
     50      H     0.16199018    -0.07239488    -2.34277565
     51      C    -1.28847421    -2.21797625    -1.47707656
     52      H    -1.43248362    -3.24291609    -1.13575209
     53      H    -2.26138069    -1.81206142    -1.75560517
     54      H    -0.98764264     2.44261950     1.18482772
     55      C     3.37413386    -0.12978936    -0.68924427
     56      C     4.02367961     0.51807698    -1.84124998
     57      O     3.10807839    -0.65108883    -3.92165691
     58      O     4.79034647     1.44496785    -1.96014804
 
Total System Charge             0.00000
Bonding info available!
 
 
----------------
ADF Engine Input
----------------
 
 Basis
 Type TZ2P
 Core None
 End
 SpinPolarization 1
 XC
 GGA OLYP
 End
 Unrestricted Yes
 

 Title: *** (NO TITLE) ***

 Using automatic Hessian for delocalized coordinates.
 *** GO1_GOStep1 ***

 Energy gradients wrt nuclear displacements
 ==========================================

     Atom      Cartesian (a.u./angstrom)
                 X         Y         Z
 ----------------------------------------
     1 C    -0.003348  0.006198  0.004471
     2 C     0.017742 -0.019200 -0.003313
     3 C     0.010298 -0.004615 -0.002233
     4 O    -0.016551  0.025966 -0.017384
     5 H     0.000633  0.005790 -0.000242
     6 H    -0.000723 -0.001211 -0.003175
     7 H    -0.000931  0.001002 -0.000655
     8 H     0.000599  0.001991 -0.003267
     9 H    -0.002696 -0.002170 -0.005293
    10 H    -0.000130  0.002021 -0.006006
    11 H     0.001336  0.004440 -0.003916
    12 H    -0.003922  0.004178 -0.001926
    13 C     0.001798 -0.000188 -0.003973
    14 H     0.001649 -0.002147  0.004982
    15 H    -0.003375  0.004492 -0.001110
    16 H     0.006739  0.002279 -0.000107
    17 H     0.005446 -0.003957  0.001692
    18 H     0.003881 -0.000119  0.003193
    19 N    -0.012064  0.006879  0.014318
    20 C     0.007342  0.005640 -0.018673
    21 C    -0.002044  0.002330 -0.007180
    22 N    -0.016974 -0.004568  0.006681
    23 C    -0.003647 -0.002768 -0.012226
    24 H    -0.000922  0.002234  0.004210
    25 C     0.002208  0.011660 -0.000512
    26 H    -0.002254 -0.004182  0.001044
    27 H     0.006728  0.001319 -0.004941
    28 C    -0.002908 -0.000705  0.006289
    29 C    -0.003101 -0.002743  0.006149
    30 H    -0.000992  0.000007  0.000865
    31 H     0.004713  0.000213 -0.006588
    32 C    -0.012929 -0.002404  0.000984
    33 C     0.001891 -0.002084 -0.006865
    34 C     0.001219 -0.002070 -0.007097
    35 C     0.005269 -0.006273 -0.003102
    36 C     0.001449 -0.005305  0.004595
    37 C    -0.002896 -0.004736  0.003351
    38 H     0.000265 -0.000780 -0.003127
    39 H     0.003079 -0.000478 -0.003565
    40 H     0.003042 -0.004077 -0.000779
    41 H    -0.000146 -0.003966  0.002917
    42 C     0.008723 -0.003373  0.007433
    43 C    -0.001772 -0.000462 -0.004917
    44 H     0.004260  0.000174  0.003306
    45 H     0.003310  0.004395  0.003006
    46 H    -0.000554  0.001773  0.006862
    47 C     0.001075  0.002823  0.001157
    48 H     0.000516 -0.004093  0.002331
    49 H     0.003822 -0.003544  0.001095
    50 H     0.001909 -0.004093  0.004502
    51 C    -0.004263  0.002354  0.001816
    52 H     0.005168  0.002953 -0.003487
    53 H     0.004537 -0.000228 -0.001394
    54 H     0.001318  0.001111 -0.002028
    55 C     0.005315  0.014463 -0.011597
    56 C     0.008673  0.005070 -0.002708
    57 O    -0.005284  0.002314  0.043155
    58 O    -0.031525 -0.029531  0.012980
 ----------------------------------------
 Mulliken charges used for AMS results%charges...
 
----------------------------------------------------------------------
Geometry Convergence after Step   1       (Hartree/Angstrom,Angstrom)
----------------------------------------------------------------------
current energy                              -12.26984858 Hartree
energy change                     -12.26984858     0.00058000    F
constrained gradient max            0.04297996     0.00100000    F
constrained gradient rms            0.00752785     0.00066667    F
gradient max                        0.04297996
gradient rms                        0.00752785
cart. step max                      0.20942169     0.01000000    F
cart. step rms                      0.07204060     0.00666667    F
 
 
--------
Geometry
--------
Formula: C22H31N2O3
Atoms
  Index Symbol   x (angstrom)   y (angstrom)   z (angstrom)
      1      C    -1.44225314     1.41258768     0.99556308
      2      C    -0.24439291     0.55637962     0.76142834
      3      C     0.11435547    -0.51465180     1.58425485
      4      O     1.12670898    -1.26096570     1.43264433
      5      H     0.79434886    -4.84964276    -2.63030626
      6      H    -2.01636294     1.03398030     1.84856161
      7      H     0.39292486     0.80923343    -0.07940272
      8      H    -0.55631224    -0.70536256     2.44450896
      9      H     5.26694898     1.51610958     3.05455329
     10      H     4.04053032     0.24591101     3.22025028
     11      H     0.53554069    -4.30461268    -0.96274778
     12      H     5.54536295    -0.09052400     2.35482192
     13      C    -2.35431109     1.50998092    -0.23928512
     14      H    -1.80126394     1.90328692    -1.09365118
     15      H     2.17408444    -4.41394967    -1.61608452
     16      H    -0.98565267    -1.66996238    -0.73835636
     17      H    -3.19342348     2.17559428    -0.03036314
     18      H    -2.74569776     0.52683966    -0.50226905
     19      N     3.46794656    -0.00553081     0.62735165
     20      C     2.63116125    -0.98592221    -1.53982731
     21      C     3.26199960    -0.43075159    -2.75795208
     22      N     1.67819792    -1.88568636    -1.30373975
     23      C     4.16939488     1.13577066     1.23629124
     24      H     2.74359780    -0.47700529     1.18065424
     25      C     1.07810933    -2.71355931    -2.35420360
     26      H     1.37743503    -2.01310407    -0.33799292
     27      H     4.96000547     1.42879929     0.53788225
     28      C     1.14053136    -4.16324520    -1.85895417
     29      C     4.79154151     0.67201822     2.55416021
     30      H     3.93401929     3.30538371    -0.35352454
     31      H     1.71513302    -2.60846685    -3.23954738
     32      C     3.20739457     2.30554098     1.40536917
     33      C     2.27716693     2.35236894     2.44602259
     34      C     1.40289383     3.42808086     2.56046992
     35      C     1.43128997     4.45677372     1.62575314
     36      C     2.34149817     4.40686659     0.57552411
     37      C     3.22414821     3.33849552     0.46622021
     38      H     2.23322138     1.55483511     3.17941854
     39      H     0.69614742     3.46056144     3.38374785
     40      H     0.74614093     5.29370132     1.71559867
     41      H     2.36718705     5.20437776    -0.16008014
     42      C    -0.35451907    -2.22848828    -2.74738980
     43      C    -0.88279598    -3.10884266    -3.89364172
     44      H    -1.82296589    -2.70103622    -4.26899520
     45      H    -1.06980294    -4.12960641    -3.55817679
     46      H    -0.16840602    -3.13792418    -4.71848280
     47      C    -0.26229354    -0.77756877    -3.25275988
     48      H     0.44687330    -0.70237961    -4.07767870
     49      H    -1.23972270    -0.44050220    -3.60181473
     50      H     0.06336032    -0.10821250    -2.45713618
     51      C    -1.33108224    -2.29293145    -1.56274738
     52      H    -1.45232667    -3.31436398    -1.19939541
     53      H    -2.31094910    -1.92785550    -1.87496429
     54      H    -1.10893050     2.42978369     1.24190519
     55      C     3.37368952    -0.12404857    -0.70075783
     56      C     4.03894284     0.51779755    -1.85198057
     57      O     3.14926205    -0.65488657    -3.94833626
     58      O     4.81715733     1.44638883    -1.97574193
 
Total System Charge             0.00000
Bonding info available!
 
 *** GO1_GOStep2 ***
