

 Parallel Execution: Process Information
 ==============================================================================
 Rank   Node Name                              NodeID   MyNodeRank  NodeMaster
    0   DESKTOP-1M8FOJT                           0          0          0
    1   DESKTOP-1M8FOJT                           0          1         -1
    2   DESKTOP-1M8FOJT                           0          2         -1
    3   DESKTOP-1M8FOJT                           0          3         -1
 ==============================================================================


May use up to 4096MB of RAM as shared memory on node 0

 *******************************************************************************
 *                                                                             *
 *  --------------------------------                                           *
 *   Amsterdam Modeling Suite (AMS)              2022.101                      *
 *  --------------------------------                                           *
 *                                               r100871 2022-01-28            *
 *                                                                             *
 *                                                                             *
 *                              =================                              *
 *                              |               |                              *
 *                              |     A M S     |                              *
 *                              |               |                              *
 *                              =================                              *
 *                                                                             *
 *                                                                             *
 *   Online information and documentation:  https://www.scm.com/support/       *
 *   E-mail:  support@scm.com   info@scm.com                                   *
 *                                                                             *
 *   Scientific publications using AMS results must be properly referenced     *
 *   See the User Manuals (or the web site) for recommended citations          *
 *   The terms and conditions of the End User License Agreement apply to       *
 *   the use of AMS, https://www.scm.com/license-terms/                        *
 *                                                                             *
 *********************  x86_64_windows_intel / intelmpi  ***********************
 
 Licensed to: Mr. Yuman Hordijk / SCM / Amsterdam / Netherlands 2022-01-24 11:07:43
 SCM User ID: u24430
  
 AMS 2022.101  RunTime: Feb09-2022 16:16:20  ShM Nodes: 1  Procs: 4

 AMS jobname: ams
 AMS jobid  : 718463085

 Start   directory: D:/Users/Yuman/Desktop/MasterProject/manual_calculations/squaramide/P1R/tmp..12196.0.noindex/
 Results directory: D:/Users/Yuman/Desktop/MasterProject/manual_calculations/squaramide/P1R/go.results/
 Scratch directory: Z:/SCMTMP/amstmp_ams_kid0.718463085/


 Communication costs MPI_COMM_WORLD:      1.427 usec per message,   0.0066 usec per 8-byte item
 Communication costs for intra-node:      2.112 usec per message,   0.0209 usec per 8-byte item

 RNG seed: 475025416 -352541115 -1164269066 1083509892 1345486810 -1799533557 -1183092419 1114151394



                      ************************************************************************
                      *  ADF 2022.101  RunTime: Feb09-2022 16:16:21  ShM Nodes: 1  Procs: 4  *
                      ************************************************************************
  
       ***************************
       *  GEOMETRY OPTIMIZATION  *
       ***************************

Optimization Method                    Quasi Newton
Optimization Coordinates               Delocalized Coordinates
Optimize lattice                       F
 
 ------------------------------------------------------
 Convergence criteria (Hartree,Angstrom)
 ------------------------------------------------------
 Maximum gradient               0.001000000000
 Maximum rms gradient           0.000666666667
 Maximum step allowed           0.010000000000
 Maximum rms step allowed       0.006666666667
 Maximum energy change allowe   0.000580000000
 Maximum stress energy allowe   0.000500000000
 
Initial model Hessian                  Automatic Hessian
 
------------------------------------
Quasi-Newton Optimizer Parameters
------------------------------------
Hessian Update Method                  BFGS
Maximum number of steps                  348
First GDIIS cycle                          0
Maximum GDIIS vectors                      0
Trust radius (bohr)                        0.200000
Trust radius varies                        T
Constraints converged at all steps         T
Use projector                              T
 
 Rigid motions settings for: old optimizer
 Atomic rotations (x,y,z):     T T T
 Atomic translations (x,y,z):  T T T
 Tolerance:                   1.000000000000000E-006
 
--------
Geometry
--------
Formula: C22H31N2O3
Atoms
  Index Symbol   x (angstrom)   y (angstrom)   z (angstrom)
      1      C    -1.33934700     1.42778989     0.95380595
      2      C    -0.16241941     0.53651890     0.75925084
      3      C     0.15158310    -0.52466644     1.60397067
      4      O     1.14923392    -1.27541439     1.45514969
      5      H     0.75263453    -4.81327816    -2.65009182
      6      H    -1.94446712     1.08342830     1.79941232
      7      H     0.49597747     0.75729463    -0.07436080
      8      H    -0.53007459    -0.69316913     2.45920590
      9      H     5.24706230     1.55627178     3.04039837
     10      H     4.05719365     0.25274951     3.21661767
     11      H     0.52484933    -4.29776280    -0.96810097
     12      H     5.57253749    -0.04751642     2.35626774
     13      C    -2.20883625     1.50899744    -0.30867900
     14      H    -1.61881613     1.86550482    -1.15318435
     15      H     2.15270352    -4.42101555    -1.64523703
     16      H    -0.89510925    -1.62529517    -0.65069913
     17      H    -3.03800514     2.19650192    -0.14345181
     18      H    -2.61029094     0.52564979    -0.55318612
     19      N     3.47724837    -0.01731419     0.63389606
     20      C     2.62694016    -0.98854028    -1.52325051
     21      C     3.24051461    -0.42775881    -2.74208426
     22      N     1.67987540    -1.88671437    -1.28319862
     23      C     4.16467226     1.12618861     1.23031240
     24      H     2.76095024    -0.48994796     1.19508843
     25      C     1.07554884    -2.69475587    -2.33351011
     26      H     1.38419350    -2.02249549    -0.31739523
     27      H     4.95180168     1.43524883     0.53169018
     28      C     1.12052341    -4.15164497    -1.86839219
     29      C     4.79793999     0.69349429     2.55038446
     30      H     3.85577014     3.25390938    -0.39425262
     31      H     1.70385719    -2.58643492    -3.22707671
     32      C     3.15211684     2.24899210     1.36861728
     33      C     2.20809626     2.25680716     2.39238527
     34      C     1.27692782     3.28291578     2.47569294
     35      C     1.26710613     4.29619583     1.52667062
     36      C     2.19468573     4.28179917     0.49357206
     37      C     3.13278053     3.26312315     0.41413079
     38      H     2.19529158     1.46568192     3.13336040
     39      H     0.55546401     3.28841854     3.28526809
     40      H     0.53671924     5.09468547     1.59214902
     41      H     2.18873316     5.06780073    -0.25303460
     42      C    -0.34174063    -2.16011143    -2.68296749
     43      C    -0.92395695    -2.99315855    -3.83481507
     44      H    -1.85672394    -2.54467816    -4.17771196
     45      H    -1.13599145    -4.01310202    -3.51511564
     46      H    -0.22769581    -3.02506333    -4.67313655
     47      C    -0.20617516    -0.70302684    -3.15191898
     48      H     0.48896706    -0.63545881    -3.98876262
     49      H    -1.17630946    -0.32122393    -3.47033381
     50      H     0.16199018    -0.07239488    -2.34277565
     51      C    -1.28847421    -2.21797625    -1.47707656
     52      H    -1.43248362    -3.24291609    -1.13575209
     53      H    -2.26138069    -1.81206142    -1.75560517
     54      H    -0.98764264     2.44261950     1.18482772
     55      C     3.37413386    -0.12978936    -0.68924427
     56      C     4.02367961     0.51807698    -1.84124998
     57      O     3.10807839    -0.65108883    -3.92165691
     58      O     4.79034647     1.44496785    -1.96014804
 
Total System Charge             0.00000
Bonding info available!
 
 
----------------
ADF Engine Input
----------------
 
 Basis
 Type DZP
 Core None
 End
 SpinPolarization 1
 XC
 GGA OLYP
 End
 Unrestricted Yes
 

 Title: *** (NO TITLE) ***

 Using automatic Hessian for delocalized coordinates.
 *** GO1_GOStep1 ***

 Energy gradients wrt nuclear displacements
 ==========================================

     Atom      Cartesian (a.u./angstrom)
                 X         Y         Z
 ----------------------------------------
     1 C    -0.003700  0.007068  0.004867
     2 C     0.016268 -0.017885 -0.003417
     3 C     0.012441 -0.007969 -0.002302
     4 O    -0.017403  0.026511 -0.016730
     5 H     0.000764  0.005183  0.000346
     6 H    -0.000170 -0.000851 -0.003406
     7 H    -0.003174  0.000517 -0.000705
     8 H    -0.000261  0.001526 -0.002130
     9 H    -0.001408 -0.002888 -0.004294
    10 H    -0.000030  0.001982 -0.005212
    11 H     0.001603  0.003566 -0.003850
    12 H    -0.002883  0.004201 -0.000611
    13 C     0.000664  0.000668 -0.003704
    14 H     0.001162 -0.001796  0.004341
    15 H    -0.004111  0.003141 -0.001062
    16 H     0.006127  0.001669 -0.000021
    17 H     0.005176 -0.003887  0.001303
    18 H     0.002759  0.000316  0.002508
    19 N    -0.012627  0.005786  0.014578
    20 C     0.005758  0.003368 -0.019834
    21 C    -0.000056  0.003634 -0.010069
    22 N    -0.015633 -0.007330  0.008172
    23 C    -0.002440 -0.003784 -0.013146
    24 H     0.001683  0.002605  0.003126
    25 C     0.004263  0.012319 -0.000182
    26 H    -0.002034 -0.004203 -0.001536
    27 H     0.005067  0.001248 -0.003675
    28 C    -0.001616 -0.002198  0.006691
    29 C    -0.002384 -0.003213  0.006414
    30 H    -0.000291  0.000542  0.001158
    31 H     0.002779 -0.000246 -0.005057
    32 C    -0.011242 -0.001562  0.000887
    33 C     0.001646 -0.001110 -0.005333
    34 C     0.000688 -0.001809 -0.005166
    35 C     0.003788 -0.004070 -0.002759
    36 C     0.002120 -0.003593  0.002838
    37 C    -0.002332 -0.003602  0.002489
    38 H     0.000389 -0.001271 -0.002042
    39 H     0.002373 -0.000410 -0.002627
    40 H     0.002190 -0.003432 -0.000712
    41 H    -0.000190 -0.003254  0.002278
    42 C     0.009314 -0.003698  0.007173
    43 C    -0.002997 -0.000129 -0.006205
    44 H     0.004387 -0.000437  0.002936
    45 H     0.003231  0.004324  0.002196
    46 H    -0.001230  0.001140  0.006790
    47 C     0.000506  0.004494 -0.000615
    48 H    -0.000962 -0.003561  0.002859
    49 H     0.004392 -0.003165  0.000942
    50 H     0.001247 -0.003612  0.003324
    51 C    -0.006106  0.001972  0.002070
    52 H     0.004884  0.003495 -0.002899
    53 H     0.004499 -0.000549 -0.000506
    54 H    -0.000173  0.000670 -0.001477
    55 C     0.008241  0.014603 -0.007975
    56 C     0.010159  0.006547 -0.005554
    57 O    -0.003805  0.002818  0.042902
    58 O    -0.031311 -0.030400  0.011624
 ----------------------------------------
 Mulliken charges used for AMS results%charges...
 
----------------------------------------------------------------------
Geometry Convergence after Step   1       (Hartree/Angstrom,Angstrom)
----------------------------------------------------------------------
current energy                              -12.12822080 Hartree
energy change                     -12.12822080     0.00058000    F
constrained gradient max            0.04272968     0.00100000    F
constrained gradient rms            0.00747427     0.00066667    F
gradient max                        0.04272968
gradient rms                        0.00747427
cart. step max                      0.20952885     0.01000000    F
cart. step rms                      0.07300254     0.00666667    F
 
 
--------
Geometry
--------
Formula: C22H31N2O3
Atoms
  Index Symbol   x (angstrom)   y (angstrom)   z (angstrom)
      1      C    -1.42878196     1.42256962     0.99342134
      2      C    -0.23584490     0.55924294     0.76682595
      3      C     0.11497768    -0.51214073     1.59183292
      4      O     1.12583781    -1.26035709     1.43823117
      5      H     0.80102431    -4.84815948    -2.63185797
      6      H    -2.00938657     1.05003805     1.84498564
      7      H     0.40736765     0.80667326    -0.07162940
      8      H    -0.55653499    -0.70012518     2.45166178
      9      H     5.26972515     1.52014903     3.04886644
     10      H     4.04659444     0.24747814     3.22084545
     11      H     0.53616660    -4.30606244    -0.96399570
     12      H     5.54777423    -0.08727323     2.34828702
     13      C    -2.33362539     1.52192906    -0.24618898
     14      H    -1.77380925     1.90930277    -1.09893066
     15      H     2.17705140    -4.40580984    -1.61449549
     16      H    -1.00761784    -1.68231259    -0.74511585
     17      H    -3.16995619     2.19338492    -0.04387892
     18      H    -2.72934495     0.54020860    -0.50811715
     19      N     3.46430153    -0.00375229     0.62806761
     20      C     2.62387318    -0.98320040    -1.53670510
     21      C     3.25238110    -0.42814080    -2.75619408
     22      N     1.67221591    -1.88323238    -1.30032240
     23      C     4.16644797     1.13655518     1.23629407
     24      H     2.74129440    -0.47592097     1.18317852
     25      C     1.07406051    -2.71130399    -2.35224599
     26      H     1.37321439    -2.01129349    -0.33344562
     27      H     4.95512233     1.43004804     0.53554105
     28      C     1.14226185    -4.16068435    -1.85903364
     29      C     4.79402315     0.67448585     2.55121235
     30      H     3.92296989     3.30346379    -0.35445143
     31      H     1.71299521    -2.60234971    -3.23616906
     32      C     3.20474433     2.30502057     1.40819970
     33      C     2.27942364     2.35204399     2.45269188
     34      C     1.40620688     3.42770168     2.57109766
     35      C     1.43042613     4.45582305     1.63632543
     36      C     2.33514227     4.40526271     0.58193747
     37      C     3.21715188     3.33714511     0.46874525
     38      H     2.23898288     1.55523335     3.18671093
     39      H     0.70354888     3.46071087     3.39766072
     40      H     0.74624809     5.29309336     1.72924629
     41      H     2.35748071     5.20253443    -0.15393549
     42      C    -0.35961199    -2.23539234    -2.75063149
     43      C    -0.87622263    -3.11926963    -3.89891973
     44      H    -1.81745079    -2.71747751    -4.27878627
     45      H    -1.05841549    -4.14143207    -3.56441741
     46      H    -0.15765451    -3.14348744    -4.72071220
     47      C    -0.27430475    -0.78435505    -3.25515768
     48      H     0.43878606    -0.70412140    -4.07678849
     49      H    -1.25256661    -0.45377454    -3.60892898
     50      H     0.04299561    -0.11281416    -2.45778038
     51      C    -1.34259475    -2.30719946    -1.57235506
     52      H    -1.45992933    -3.32988125    -1.21046248
     53      H    -2.32287063    -1.94849338    -1.89142126
     54      H    -1.08965166     2.43821502     1.23902213
     55      C     3.36707018    -0.12195234    -0.69923789
     56      C     4.03076869     0.52097804    -1.85068610
     57      O     3.13841348    -0.65224550    -3.94779263
     58      O     4.80989236     1.45058107    -1.97542964
 
Total System Charge             0.00000
Bonding info available!
 
 *** GO1_GOStep2 ***

 Energy gradients wrt nuclear displacements
 ==========================================

     Atom      Cartesian (a.u./angstrom)
                 X         Y         Z
 ----------------------------------------
     1 C    -0.002781  0.007006  0.003660
     2 C     0.009193 -0.008017 -0.002878
     3 C     0.004764 -0.000252 -0.002658
     4 O    -0.001173  0.009114 -0.013899
     5 H     0.000138  0.003865 -0.000352
     6 H    -0.000268 -0.001482 -0.002780
     7 H    -0.003179  0.000088 -0.000133
     8 H    -0.000851  0.001244 -0.001390
     9 H    -0.000866 -0.001835 -0.003069
    10 H    -0.000067  0.001367 -0.003495
    11 H     0.000828  0.002336 -0.002657
    12 H    -0.001916  0.003111 -0.000644
    13 C    -0.000900  0.001024 -0.003186
    14 H     0.000780 -0.001407  0.003403
    15 H    -0.002797  0.002433 -0.000711
    16 H     0.003319  0.000176 -0.001327
    17 H     0.003154 -0.002525  0.000601
    18 H     0.002244  0.001008  0.001923
    19 N    -0.008466 -0.002345  0.016754
    20 C     0.009629  0.005353 -0.013319
    21 C     0.000931  0.005681  0.010698
    22 N    -0.008020 -0.011449  0.014087
    23 C     0.000067  0.000838 -0.013557
    24 H     0.000946  0.001112  0.002860
    25 C     0.002239  0.013262 -0.004124
    26 H    -0.001097 -0.004232 -0.000390
    27 H     0.002778  0.000431 -0.002980
    28 C    -0.003445 -0.000688  0.006472
    29 C    -0.004581 -0.002035  0.005692
    30 H     0.000079  0.000646  0.001383
    31 H     0.001806  0.000354 -0.003114
    32 C    -0.003027  0.000802  0.004292
    33 C    -0.000177 -0.001563 -0.002211
    34 C     0.000558  0.000439 -0.002550
    35 C     0.002118 -0.002042 -0.001127
    36 C     0.000839 -0.001906  0.001185
    37 C    -0.001103 -0.002370  0.000306
    38 H     0.000513 -0.000623 -0.001522
    39 H     0.001597 -0.000126 -0.001784
    40 H     0.001197 -0.002154 -0.000607
    41 H    -0.000316 -0.001949  0.001373
    42 C     0.005274 -0.005698  0.002892
    43 C    -0.003818  0.000425 -0.004807
    44 H     0.003007 -0.000525  0.002011
    45 H     0.002671  0.002696  0.002023
    46 H    -0.000621  0.000839  0.004923
    47 C    -0.000202  0.004393 -0.000752
    48 H    -0.000688 -0.002686  0.002173
    49 H     0.003314 -0.002214  0.000692
    50 H    -0.000097 -0.003231  0.000679
    51 C    -0.005141  0.001892  0.001901
    52 H     0.003935  0.002178 -0.001737
    53 H     0.003754 -0.000489 -0.000283
    54 H    -0.001509 -0.001163 -0.002737
    55 C     0.004418  0.008209 -0.012209
    56 C    -0.003842 -0.010006 -0.001133
    57 O    -0.004392 -0.000644  0.012433
    58 O    -0.010748 -0.006667  0.005708
 ----------------------------------------
 Mulliken charges used for AMS results%charges...

 dE(predicted):    -0.10829E-01, dE(actual):    -0.68532E-02, Trust radius:    0.200000, all in a.u.
 
----------------------------------------------------------------------
Geometry Convergence after Step   2       (Hartree/Angstrom,Angstrom)
----------------------------------------------------------------------
current energy                              -12.13507396 Hartree
energy change                      -0.00685316     0.00058000    F
constrained gradient max            0.01659687     0.00100000    F
constrained gradient rms            0.00452948     0.00066667    F
gradient max                        0.01659687
gradient rms                        0.00452948
cart. step max                      0.19853976     0.01000000    F
cart. step rms                      0.05933759     0.00666667    F
 
 
--------
Geometry
--------
Formula: C22H31N2O3
Atoms
  Index Symbol   x (angstrom)   y (angstrom)   z (angstrom)
      1      C    -1.43472100     1.47989696     1.10056492
      2      C    -0.26522469     0.60312666     0.81625449
      3      C     0.09451657    -0.50345486     1.59602729
      4      O     1.10688021    -1.25384763     1.41492264
      5      H     0.87593500    -4.90793793    -2.62034124
      6      H    -2.00080947     1.08805686     1.95434596
      7      H     0.37365475     0.87492561    -0.01976969
      8      H    -0.55967287    -0.71395490     2.46459514
      9      H     5.25613368     1.49582746     3.07553126
     10      H     4.03197147     0.22378447     3.22989677
     11      H     0.58901762    -4.34742215    -0.96375345
     12      H     5.53050688    -0.10530235     2.35209900
     13      C    -2.37676932     1.66825749    -0.10575540
     14      H    -1.83752105     2.08281524    -0.96177756
     15      H     2.23359553    -4.40341162    -1.60992350
     16      H    -1.10758170    -1.75355626    -0.82350393
     17      H    -3.18637877     2.35643732     0.15466084
     18      H    -2.81716442     0.71579349    -0.40778918
     19      N     3.45462495     0.00567665     0.60575062
     20      C     2.63143847    -0.98416686    -1.56724910
     21      C     3.29107919    -0.44644331    -2.78784980
     22      N     1.67176169    -1.88101543    -1.33345068
     23      C     4.15125807     1.14255065     1.24885232
     24      H     2.72350668    -0.46873211     1.15107376
     25      C     1.07820622    -2.74517778    -2.37532364
     26      H     1.37105997    -1.99453309    -0.36341336
     27      H     4.94385017     1.44124809     0.55922612
     28      C     1.19119001    -4.19023905    -1.86206389
     29      C     4.77782590     0.65917685     2.56068167
     30      H     3.94617020     3.32810110    -0.32737705
     31      H     1.71991299    -2.63332485    -3.25375728
     32      C     3.20181923     2.32841270     1.42592048
     33      C     2.26693119     2.39471317     2.46650016
     34      C     1.41207976     3.48839292     2.58561490
     35      C     1.46391522     4.52508654     1.65825345
     36      C     2.37762749     4.46122583     0.60936185
     37      C     3.23824280     3.37191950     0.49457058
     38      H     2.20175565     1.59829179     3.19974057
     39      H     0.70339199     3.53042061     3.40868020
     40      H     0.79736867     5.37834674     1.75294248
     41      H     2.42458228     5.26380447    -0.12195563
     42      C    -0.36941455    -2.31022300    -2.80879509
     43      C    -0.83606564    -3.22331707    -3.96060876
     44      H    -1.77918782    -2.84750978    -4.36809367
     45      H    -1.00809310    -4.24955901    -3.62806901
     46      H    -0.10239414    -3.24159710    -4.77296242
     47      C    -0.31360921    -0.86176782    -3.33297316
     48      H     0.41351215    -0.76457149    -4.14263936
     49      H    -1.29523559    -0.56291904    -3.71267395
     50      H    -0.03422421    -0.16320770    -2.54284560
     51      C    -1.38883355    -2.39506340    -1.65827365
     52      H    -1.50304072    -3.41598376    -1.28462543
     53      H    -2.36934974    -2.06488206    -2.01388591
     54      H    -1.05705157     2.47344023     1.38571440
     55      C     3.37081718    -0.11957387    -0.72477235
     56      C     4.06247201     0.50940212    -1.87586466
     57      O     3.21388645    -0.67741208    -3.98599005
     58      O     4.86263238     1.42683329    -2.00898627
 
Total System Charge             0.00000
Bonding info available!
 
 *** GO1_GOStep3 ***

 Energy gradients wrt nuclear displacements
 ==========================================

     Atom      Cartesian (a.u./angstrom)
                 X         Y         Z
 ----------------------------------------
     1 C    -0.000591  0.004689  0.002533
     2 C     0.003688 -0.000701 -0.000483
     3 C    -0.001144  0.002018 -0.004110
     4 O     0.008953 -0.000073 -0.011627
     5 H     0.000430  0.000813  0.000122
     6 H     0.000019 -0.001133 -0.001491
     7 H    -0.001594  0.000288  0.000305
     8 H    -0.000280  0.001313  0.000178
     9 H     0.000217 -0.000569 -0.000454
    10 H     0.000008  0.000287 -0.001274
    11 H     0.000375  0.000683 -0.000999
    12 H    -0.000130  0.000702  0.000150
    13 C    -0.001778  0.000470 -0.002054
    14 H     0.000301 -0.000570  0.000717
    15 H    -0.000605  0.000281  0.000178
    16 H     0.000522 -0.001174 -0.001632
    17 H     0.000514 -0.000562 -0.000114
    18 H     0.000984  0.001024  0.000453
    19 N    -0.005095 -0.005111  0.010742
    20 C     0.009278  0.005919 -0.005462
    21 C    -0.000298  0.004268  0.015331
    22 N    -0.001835 -0.009038  0.014262
    23 C     0.003225  0.002549 -0.008586
    24 H    -0.000020  0.000463  0.003739
    25 C    -0.000926  0.009535 -0.006986
    26 H    -0.000115 -0.003844  0.001983
    27 H    -0.000361 -0.000726 -0.000583
    28 C    -0.002048 -0.001749  0.003148
    29 C    -0.002122 -0.000639  0.004117
    30 H     0.000444  0.000029  0.000776
    31 H     0.000458  0.000211  0.000233
    32 C     0.001564 -0.000299  0.003282
    33 C    -0.001771 -0.001402 -0.000265
    34 C    -0.001898  0.000098 -0.000583
    35 C    -0.000146  0.000160 -0.000625
    36 C     0.000152  0.000682 -0.000001
    37 C     0.000079 -0.000925 -0.001134
    38 H    -0.000232 -0.000085 -0.000855
    39 H    -0.000004  0.000248 -0.000421
    40 H    -0.000008 -0.000335 -0.000321
    41 H    -0.000244 -0.000217 -0.000044
    42 C     0.001323 -0.003916 -0.000162
    43 C    -0.003292  0.000062 -0.001679
    44 H     0.000799 -0.000253  0.000701
    45 H     0.001081  0.000693  0.000345
    46 H     0.000359 -0.000019  0.001458
    47 C     0.000391  0.002347 -0.000403
    48 H     0.000100 -0.000877  0.000961
    49 H     0.000847 -0.000601 -0.000048
    50 H     0.000088 -0.001267 -0.000334
    51 C    -0.003154  0.002206  0.001315
    52 H     0.001292  0.000971 -0.000110
    53 H     0.001237 -0.000189 -0.000162
    54 H     0.000280  0.000331 -0.001174
    55 C     0.000139  0.001555 -0.010459
    56 C    -0.008526 -0.013200  0.001725
    57 O    -0.001761 -0.000572 -0.004170
    58 O     0.000830  0.005150  0.000053
 ----------------------------------------
 Mulliken charges used for AMS results%charges...

 dE(predicted):    -0.36232E-02, dE(actual):    -0.32442E-02, Trust radius:    0.400000, all in a.u.
 
----------------------------------------------------------------------
Geometry Convergence after Step   3       (Hartree/Angstrom,Angstrom)
----------------------------------------------------------------------
current energy                              -12.13831819 Hartree
energy change                      -0.00324423     0.00058000    F
constrained gradient max            0.01517299     0.00100000    F
constrained gradient rms            0.00337148     0.00066667    F
gradient max                        0.01517299
gradient rms                        0.00337148
cart. step max                      0.20938127     0.01000000    F
cart. step rms                      0.05895291     0.00666667    F
 
 
--------
Geometry
--------
Formula: C22H31N2O3
Atoms
  Index Symbol   x (angstrom)   y (angstrom)   z (angstrom)
      1      C    -1.55294451     1.42356103     1.05538672
      2      C    -0.35047891     0.58828848     0.79177089
      3      C     0.04586496    -0.49577551     1.58510640
      4      O     1.07250667    -1.22388917     1.39965740
      5      H     0.91005024    -4.92267031    -2.59623847
      6      H    -2.11073686     1.02573065     1.91237420
      7      H     0.28466084     0.86995561    -0.04505303
      8      H    -0.60330584    -0.72596118     2.45252369
      9      H     5.28376881     1.44869658     3.06734262
     10      H     4.03488826     0.20203915     3.21989706
     11      H     0.62262693    -4.34639883    -0.94586108
     12      H     5.51215808    -0.14818894     2.31515709
     13      C    -2.49308441     1.56676467    -0.15990112
     14      H    -1.96448991     1.99050373    -1.01936726
     15      H     2.26424641    -4.38072545    -1.60144632
     16      H    -1.13287432    -1.77010959    -0.83286723
     17      H    -3.32702391     2.23193764     0.08695109
     18      H    -2.90231897     0.59760305    -0.45629357
     19      N     3.42694347     0.03651500     0.58471186
     20      C     2.62211124    -0.96344564    -1.58947833
     21      C     3.31268563    -0.45118732    -2.80881165
     22      N     1.65752168    -1.85339469    -1.35436137
     23      C     4.14667415     1.15031275     1.24866914
     24      H     2.68870826    -0.43591659     1.12382565
     25      C     1.07494961    -2.74882915    -2.37967661
     26      H     1.35556378    -1.95531736    -0.38264951
     27      H     4.94121036     1.44068854     0.55888961
     28      C     1.21646209    -4.18721901    -1.85060947
     29      C     4.77998688     0.63127101     2.54435587
     30      H     3.97695636     3.35055178    -0.31262260
     31      H     1.71254323    -2.63952223    -3.26055311
     32      C     3.23806361     2.36544728     1.45198687
     33      C     2.34116148     2.46714476     2.52343133
     34      C     1.54928016     3.60242491     2.68382227
     35      C     1.62288511     4.64685311     1.76584789
     36      C     2.49626253     4.54821965     0.68513826
     37      C     3.29716697     3.41848475     0.53164991
     38      H     2.26466668     1.67132859     3.25667823
     39      H     0.87379894     3.67184810     3.53319064
     40      H     1.00674995     5.53368693     1.89340435
     41      H     2.56303194     5.35715166    -0.03827765
     42      C    -0.37973151    -2.33139231    -2.81657498
     43      C    -0.83338437    -3.25923599    -3.96337458
     44      H    -1.78024532    -2.89522449    -4.37550897
     45      H    -0.99880176    -4.28624756    -3.62779534
     46      H    -0.10070625    -3.27655096    -4.77810200
     47      C    -0.34048487    -0.88545990    -3.35132504
     48      H     0.38436520    -0.78191455    -4.16331482
     49      H    -1.32660190    -0.60006507    -3.73261760
     50      H    -0.06957876    -0.17517811    -2.56729868
     51      C    -1.40105863    -2.42015903    -1.66664507
     52      H    -1.51070476    -3.43987520    -1.28595222
     53      H    -2.38518536    -2.10215544    -2.02702715
     54      H    -1.21035663     2.43286646     1.33278705
     55      C     3.35832356    -0.09569063    -0.74534460
     56      C     4.08092881     0.50969325    -1.89451827
     57      O     3.26432219    -0.70068547    -4.00246267
     58      O     4.90279025     1.40467401    -2.02795757
 
Total System Charge             0.00000
Bonding info available!
 
 *** GO1_GOStep4 ***

 Energy gradients wrt nuclear displacements
 ==========================================

     Atom      Cartesian (a.u./angstrom)
                 X         Y         Z
 ----------------------------------------
     1 C    -0.000453  0.002389  0.001770
     2 C     0.001543  0.000043  0.000080
     3 C     0.002058  0.004122 -0.001483
     4 O     0.006144  0.000312 -0.012013
     5 H     0.000604 -0.000524  0.000534
     6 H    -0.000051 -0.000852 -0.000665
     7 H    -0.001098  0.000105 -0.000322
     8 H    -0.000748  0.000030 -0.000367
     9 H     0.000382 -0.000109  0.000457
    10 H    -0.000067  0.000026 -0.000335
    11 H     0.000071  0.000107 -0.000216
    12 H     0.000431 -0.000289  0.000451
    13 C    -0.000867 -0.000198 -0.001588
    14 H     0.000229 -0.000060 -0.000487
    15 H     0.000233 -0.000563  0.000525
    16 H     0.000065 -0.000320 -0.000273
    17 H    -0.000278  0.000164 -0.000266
    18 H     0.000094  0.000111 -0.000522
    19 N    -0.002129 -0.005351  0.005915
    20 C     0.005012  0.003747 -0.001847
    21 C    -0.000889  0.002537  0.006390
    22 N     0.000596 -0.004372  0.010708
    23 C     0.001903  0.003448 -0.004182
    24 H    -0.000912 -0.000684  0.003811
    25 C    -0.001515  0.005160 -0.006534
    26 H     0.000205 -0.003540  0.002768
    27 H    -0.001328 -0.001234  0.000248
    28 C    -0.000625 -0.002519  0.000981
    29 C    -0.000643  0.000201  0.002379
    30 H     0.000520 -0.000149  0.000334
    31 H     0.000068 -0.000193  0.001226
    32 C     0.001893 -0.000177  0.001426
    33 C    -0.002882 -0.001259 -0.000315
    34 C    -0.000096  0.000748  0.000519
    35 C    -0.000158  0.000366  0.000116
    36 C     0.000134  0.000568 -0.000332
    37 C     0.000382  0.000278 -0.000611
    38 H    -0.000015  0.000290 -0.000054
    39 H    -0.000065  0.000379  0.000143
    40 H    -0.000176  0.000413 -0.000170
    41 H     0.000022  0.000312 -0.000441
    42 C    -0.000217 -0.000831 -0.000307
    43 C    -0.001582 -0.000486 -0.000175
    44 H     0.000060  0.000035  0.000265
    45 H     0.000341 -0.000105 -0.000398
    46 H     0.000588 -0.000410 -0.000081
    47 C     0.000601  0.000927 -0.000532
    48 H     0.000111 -0.000074  0.000547
    49 H    -0.000153  0.000082 -0.000307
    50 H     0.000318  0.000056  0.000217
    51 C    -0.001531  0.001825  0.000937
    52 H     0.000087  0.000503  0.000453
    53 H    -0.000049  0.000068 -0.000203
    54 H     0.000262 -0.000628 -0.001418
    55 C    -0.001200 -0.000252 -0.007804
    56 C    -0.003931 -0.006477  0.001318
    57 O     0.000238  0.001042  0.000493
    58 O    -0.001536  0.001261 -0.000760
 ----------------------------------------
 Mulliken charges used for AMS results%charges...

 dE(predicted):    -0.34170E-02, dE(actual):    -0.16795E-02, Trust radius:    0.400000, all in a.u.
 
----------------------------------------------------------------------
Geometry Convergence after Step   4       (Hartree/Angstrom,Angstrom)
----------------------------------------------------------------------
current energy                              -12.13999766 Hartree
energy change                      -0.00167946     0.00058000    F
constrained gradient max            0.01205945     0.00100000    F
constrained gradient rms            0.00219587     0.00066667    F
gradient max                        0.01205945
gradient rms                        0.00219587
cart. step max                      0.21142462     0.01000000    F
cart. step rms                      0.06411951     0.00666667    F
 
 
--------
Geometry
--------
Formula: C22H31N2O3
Atoms
  Index Symbol   x (angstrom)   y (angstrom)   z (angstrom)
      1      C    -1.60163293     1.46593054     1.18183738
      2      C    -0.42229885     0.62523590     0.84877802
      3      C    -0.02101650    -0.49484307     1.58537818
      4      O     1.01254511    -1.19878667     1.36515426
      5      H     0.98309020    -4.92681436    -2.56963796
      6      H    -2.15313074     1.03543844     2.02729741
      7      H     0.21177253     0.94501837     0.02375099
      8      H    -0.65030507    -0.75796122     2.45791867
      9      H     5.24844786     1.39981366     3.06405927
     10      H     3.97699234     0.17510050     3.19758214
     11      H     0.66733276    -4.31858916    -0.93592677
     12      H     5.44878604    -0.19230724     2.29034311
     13      C    -2.55876318     1.70355534    -0.00373747
     14      H    -2.03626752     2.16623441    -0.84727416
     15      H     2.31555169    -4.32408861    -1.57836729
     16      H    -1.17510794    -1.82930759    -0.90744293
     17      H    -3.37048398     2.37371858     0.29837571
     18      H    -2.99906364     0.76416604    -0.34965593
     19      N     3.38265313     0.05990795     0.54963275
     20      C     2.62329081    -0.94402231    -1.63146878
     21      C     3.38554516    -0.49100372    -2.83607976
     22      N     1.63355396    -1.80364927    -1.40441481
     23      C     4.11475417     1.14873071     1.23911454
     24      H     2.63109369    -0.41121548     1.07251675
     25      C     1.09013029    -2.74689093    -2.40692310
     26      H     1.32360972    -1.89130263    -0.43329059
     27      H     4.92162820     1.43353960     0.56037399
     28      C     1.26499453    -4.16526854    -1.84018580
     29      C     4.73193251     0.59869220     2.52819564
     30      H     3.96407482     3.34406888    -0.33209154
     31      H     1.73465564    -2.64496825    -3.28408756
     32      C     3.23449560     2.38221485     1.44954465
     33      C     2.36512112     2.50837011     2.53901904
     34      C     1.59844589     3.65858092     2.70669149
     35      C     1.67820229     4.69776483     1.78354411
     36      C     2.53132035     4.57760525     0.68941501
     37      C     3.30387169     3.43089538     0.52614637
     38      H     2.28445797     1.71710238     3.27720568
     39      H     0.93773450     3.74394520     3.56618453
     40      H     1.08312682     5.59777652     1.91772298
     41      H     2.60499347     5.38264008    -0.03742912
     42      C    -0.36937400    -2.38613510    -2.87413898
     43      C    -0.76446398    -3.35309179    -4.00994064
     44      H    -1.71734870    -3.03455293    -4.44647649
     45      H    -0.89785756    -4.37941159    -3.65720429
     46      H    -0.01885998    -3.35752518    -4.81333155
     47      C    -0.37711133    -0.95114613    -3.43754543
     48      H     0.35453459    -0.83443766    -4.24258689
     49      H    -1.36792835    -0.71202930    -3.83857742
     50      H    -0.14638836    -0.21368962    -2.66509144
     51      C    -1.40205988    -2.50124002    -1.73764235
     52      H    -1.47813550    -3.52051858    -1.34609979
     53      H    -2.39344935    -2.22825868    -2.11641476
     54      H    -1.23193679     2.45005281     1.51358373
     55      C     3.35701088    -0.08339557    -0.77759381
     56      C     4.15315462     0.46711539    -1.91063323
     57      O     3.38572385    -0.78038716    -4.01877972
     58      O     5.02714292     1.30948100    -2.02462788
 
Total System Charge             0.00000
Bonding info available!
 
 *** GO1_GOStep5 ***

 Energy gradients wrt nuclear displacements
 ==========================================

     Atom      Cartesian (a.u./angstrom)
                 X         Y         Z
 ----------------------------------------
     1 C     0.000390  0.000053  0.001413
     2 C     0.001070 -0.000620  0.000544
     3 C     0.001074 -0.000843 -0.005436
     4 O     0.001974  0.005504 -0.009262
     5 H    -0.000015 -0.000713  0.000209
     6 H    -0.000041  0.000294 -0.000060
     7 H     0.000143  0.000404  0.000119
     8 H     0.000825  0.000916  0.000728
     9 H    -0.000103  0.000244  0.000458
    10 H    -0.000440 -0.000016  0.000485
    11 H    -0.000792 -0.000222  0.000512
    12 H     0.000299 -0.000623  0.000423
    13 C    -0.000291 -0.000457 -0.000802
    14 H     0.000012  0.000386 -0.000677
    15 H     0.000366 -0.000249  0.000569
    16 H     0.000001 -0.000242  0.000059
    17 H    -0.000092  0.000576 -0.000066
    18 H    -0.000195  0.000506 -0.000509
    19 N    -0.000693 -0.005033  0.000774
    20 C    -0.002502 -0.000295  0.001479
    21 C     0.000807  0.000752 -0.004306
    22 N     0.004092  0.000182  0.006172
    23 C    -0.001235  0.003309 -0.000597
    24 H    -0.001006 -0.002205  0.003599
    25 C    -0.002013  0.002618 -0.003049
    26 H     0.001257 -0.003257  0.003294
    27 H    -0.001092 -0.000888  0.000099
    28 C    -0.000378 -0.001357 -0.000611
    29 C     0.000308  0.000350  0.000184
    30 H    -0.000229 -0.000068  0.000152
    31 H     0.000082 -0.000451  0.000848
    32 C    -0.000049  0.001487  0.000046
    33 C    -0.000844  0.000118 -0.000522
    34 C     0.000876 -0.000436 -0.000166
    35 C     0.000442 -0.000127 -0.000146
    36 C     0.000186 -0.000584  0.000279
    37 C     0.001053  0.001442  0.000967
    38 H    -0.000229  0.000009  0.000426
    39 H    -0.000176  0.000064  0.000022
    40 H    -0.000022  0.000384 -0.000160
    41 H     0.000268  0.000051 -0.000436
    42 C    -0.001914  0.001732 -0.000517
    43 C     0.001075 -0.000514  0.001087
    44 H    -0.000283  0.000299 -0.000087
    45 H     0.000160 -0.000645 -0.000142
    46 H     0.000343 -0.000370 -0.000632
    47 C     0.000601 -0.000177 -0.001614
    48 H     0.000259  0.000415 -0.000013
    49 H    -0.000432  0.000241 -0.000229
    50 H    -0.000027  0.000381 -0.000123
    51 C     0.000936 -0.000199  0.000730
    52 H    -0.000328 -0.000492  0.000608
    53 H    -0.000326 -0.000115 -0.000513
    54 H     0.000239 -0.000162 -0.000643
    55 C    -0.001400 -0.000204 -0.000603
    56 C     0.002588  0.002092 -0.000877
    57 O     0.000943  0.001775  0.007031
    58 O    -0.005526 -0.005022 -0.000518
 ----------------------------------------
 Mulliken charges used for AMS results%charges...

 dE(predicted):    -0.19964E-02, dE(actual):    -0.18451E-02, Trust radius:    0.800000, all in a.u.
 
----------------------------------------------------------------------
Geometry Convergence after Step   5       (Hartree/Angstrom,Angstrom)
----------------------------------------------------------------------
current energy                              -12.14184279 Hartree
energy change                      -0.00184514     0.00058000    F
constrained gradient max            0.00929882     0.00100000    F
constrained gradient rms            0.00169848     0.00066667    F
gradient max                        0.00929882
gradient rms                        0.00169848
cart. step max                      0.21632897     0.01000000    F
cart. step rms                      0.06841470     0.00666667    F
 
 
--------
Geometry
--------
Formula: C22H31N2O3
Atoms
  Index Symbol   x (angstrom)   y (angstrom)   z (angstrom)
      1      C    -1.70359661     1.38081050     1.31781828
      2      C    -0.48913301     0.60722090     0.95492985
      3      C    -0.02965201    -0.51773948     1.65048747
      4      O     1.01379166    -1.18955184     1.37348470
      5      H     0.97072206    -4.87763014    -2.51913510
      6      H    -2.23311713     0.89946318     2.15014514
      7      H     0.12422278     0.97654734     0.13384269
      8      H    -0.64709379    -0.85213627     2.50706858
      9      H     5.22572768     1.37133983     3.09961072
     10      H     3.93178781     0.16836767     3.20496138
     11      H     0.65801866    -4.22742700    -0.90098681
     12      H     5.41507371    -0.22453243     2.32824886
     13      C    -2.67397159     1.61893647     0.14393338
     14      H    -2.17590550     2.13471164    -0.68406299
     15      H     2.30627716    -4.25512182    -1.54354460
     16      H    -1.20874744    -1.75293949    -0.96290720
     17      H    -3.51405841     2.24194737     0.46994643
     18      H    -3.07430966     0.67377424    -0.23554743
     19      N     3.39478237     0.07091339     0.53626759
     20      C     2.66958477    -0.92792345    -1.65218128
     21      C     3.50921423    -0.55323529    -2.83730862
     22      N     1.62698730    -1.72552073    -1.43498945
     23      C     4.13140053     1.14097236     1.24897709
     24      H     2.62886578    -0.39672317     1.04233624
     25      C     1.08811478    -2.69653683    -2.41353010
     26      H     1.31917566    -1.80275975    -0.46120407
     27      H     4.96047845     1.41192202     0.59086948
     28      C     1.25626779    -4.09856293    -1.80940509
     29      C     4.70782997     0.57945777     2.55093363
     30      H     3.99621026     3.27885691    -0.39508243
     31      H     1.73963125    -2.61911285    -3.28817977
     32      C     3.26637550     2.39046233     1.42476386
     33      C     2.39269523     2.55871179     2.50486158
     34      C     1.61218456     3.70688213     2.61589390
     35      C     1.69038037     4.70685517     1.64985131
     36      C     2.55428006     4.54797620     0.56885063
     37      C     3.33361996     3.39935159     0.45779425
     38      H     2.30615063     1.79554497     3.27155973
     39      H     0.94162879     3.82158282     3.46453416
     40      H     1.08606269     5.60624851     1.74029012
     41      H     2.62874885     5.32245648    -0.19043935
     42      C    -0.36433352    -2.33969126    -2.90776734
     43      C    -0.74539943    -3.31847171    -4.03875485
     44      H    -1.68772844    -2.99932839    -4.49847782
     45      H    -0.89550788    -4.33943442    -3.67638556
     46      H     0.01366964    -3.33907968    -4.82961940
     47      C    -0.35538643    -0.91293734    -3.48981492
     48      H     0.38860785    -0.81066935    -4.28648189
     49      H    -1.33865890    -0.67412555    -3.90983181
     50      H    -0.13262542    -0.16451685    -2.72505613
     51      C    -1.41964766    -2.43436046    -1.79065517
     52      H    -1.51253255    -3.44895205    -1.38967998
     53      H    -2.40231125    -2.15961376    -2.19206022
     54      H    -1.37765612     2.36840260     1.68678335
     55      C     3.41864493    -0.09248532    -0.78695080
     56      C     4.30026307     0.38093783    -1.89663277
     57      O     3.54321164    -0.87672963    -4.01370213
     58      O     5.24347189     1.15305266    -1.98400115
 
Total System Charge             0.00000
Bonding info available!
 
 *** GO1_GOStep6 ***

 Energy gradients wrt nuclear displacements
 ==========================================

     Atom      Cartesian (a.u./angstrom)
                 X         Y         Z
 ----------------------------------------
     1 C     0.000565 -0.001943 -0.000663
     2 C    -0.002498  0.000156  0.000263
     3 C     0.004234  0.005931  0.001793
     4 O     0.002527  0.001393 -0.010878
     5 H    -0.000092 -0.000756  0.000159
     6 H    -0.000045  0.000918  0.000205
     7 H     0.000829  0.000096 -0.000421
     8 H    -0.000963 -0.001271 -0.001044
     9 H    -0.000332  0.000565  0.000793
    10 H    -0.000469 -0.000321  0.001315
    11 H    -0.000816 -0.000720  0.001085
    12 H     0.000148 -0.000981  0.000370
    13 C     0.000304 -0.000502 -0.000025
    14 H    -0.000130  0.000736 -0.000996
    15 H     0.000538 -0.000170  0.000635
    16 H    -0.000728  0.000398  0.000437
    17 H    -0.000628  0.000974 -0.000180
    18 H    -0.000506 -0.000027 -0.000831
    19 N    -0.001350 -0.003591 -0.001366
    20 C    -0.007142 -0.002054  0.004970
    21 C     0.002040  0.001241 -0.001609
    22 N     0.004659  0.002551  0.002237
    23 C    -0.002733  0.002148  0.001304
    24 H    -0.000394 -0.003972  0.003211
    25 C    -0.001971  0.000833 -0.000706
    26 H     0.002244 -0.003508  0.004399
    27 H    -0.001326 -0.000257 -0.000191
    28 C     0.000576 -0.000069 -0.001118
    29 C     0.001509  0.000224 -0.001076
    30 H    -0.000418 -0.000298 -0.000243
    31 H    -0.000045 -0.000212  0.000875
    32 C     0.001668  0.002208  0.000218
    33 C     0.000779  0.001304  0.000095
    34 C     0.000406 -0.001084 -0.000370
    35 C    -0.000052 -0.000024 -0.000334
    36 C     0.000001 -0.000288  0.000530
    37 C     0.000798  0.000831  0.001102
    38 H    -0.000927 -0.000212  0.000255
    39 H    -0.000513  0.000022  0.000131
    40 H    -0.000166  0.000568 -0.000197
    41 H     0.000441  0.000163 -0.000463
    42 C    -0.002207  0.001442 -0.000535
    43 C     0.001466 -0.000030  0.001612
    44 H    -0.000706  0.000160 -0.000715
    45 H    -0.000476 -0.000762 -0.000265
    46 H     0.000278 -0.000311 -0.001221
    47 C     0.000715 -0.001629 -0.000548
    48 H     0.000581  0.000509 -0.000520
    49 H    -0.000704  0.000313 -0.000192
    50 H    -0.000316  0.000781 -0.000257
    51 C     0.001873 -0.000388 -0.000321
    52 H    -0.000988 -0.000780  0.000346
    53 H    -0.001074  0.000060 -0.000302
    54 H     0.000419  0.000045  0.000031
    55 C    -0.002329 -0.001101  0.003765
    56 C    -0.000618  0.000825 -0.000889
    57 O     0.001111 -0.000734 -0.002344
    58 O     0.002953  0.000598 -0.001315
 ----------------------------------------
 Mulliken charges used for AMS results%charges...

 dE(predicted):    -0.14300E-02, dE(actual):    -0.73239E-03, Trust radius:    0.800000, all in a.u.
 
----------------------------------------------------------------------
Geometry Convergence after Step   6       (Hartree/Angstrom,Angstrom)
----------------------------------------------------------------------
current energy                              -12.14257518 Hartree
energy change                      -0.00073239     0.00058000    F
constrained gradient max            0.01091031     0.00100000    F
constrained gradient rms            0.00173447     0.00066667    F
gradient max                        0.01091031
gradient rms                        0.00173447
cart. step max                      0.21548313     0.01000000    F
cart. step rms                      0.07364116     0.00666667    F
 
 
--------
Geometry
--------
Formula: C22H31N2O3
Atoms
  Index Symbol   x (angstrom)   y (angstrom)   z (angstrom)
      1      C    -1.79098101     1.27182213     1.47844982
      2      C    -0.55786777     0.55549829     1.06631113
      3      C    -0.05579731    -0.58979121     1.69694458
      4      O     1.00627592    -1.21139115     1.37351632
      5      H     0.95390685    -4.83858373    -2.48871275
      6      H    -2.29791124     0.73311142     2.28969972
      7      H     0.03129693     0.97857752     0.25320403
      8      H    -0.63347540    -0.96876375     2.56265972
      9      H     5.15056045     1.35204257     3.14674619
     10      H     3.82803764     0.17729906     3.21133975
     11      H     0.64546633    -4.15071433    -0.88523858
     12      H     5.33342724    -0.25205614     2.39200861
     13      C    -2.77737729     1.53631564     0.32527396
     14      H    -2.30190807     2.10707285    -0.47955166
     15      H     2.29460529    -4.21196545    -1.52285378
     16      H    -1.20507118    -1.67305524    -1.02007696
     17      H    -3.63477561     2.11498086     0.68542956
     18      H    -3.14965199     0.59758746    -0.09703235
     19      N     3.38497935     0.07971498     0.52354214
     20      C     2.71090804    -0.92243323    -1.67262067
     21      C     3.61104348    -0.60909406    -2.83234037
     22      N     1.62526527    -1.66682076    -1.46945992
     23      C     4.12186271     1.13119423     1.25866330
     24      H     2.60733393    -0.39051370     1.00991352
     25      C     1.09730282    -2.66012000    -2.42917699
     26      H     1.31646986    -1.73748187    -0.49443114
     27      H     4.98193101     1.37993535     0.63104289
     28      C     1.24737273    -4.04865092    -1.79441936
     29      C     4.63618162     0.56784209     2.58417366
     30      H     4.02633472     3.19307879    -0.47345267
     31      H     1.75814791    -2.60581551    -3.29908470
     32      C     3.27274358     2.39693596     1.37953238
     33      C     2.39812757     2.62616950     2.44719343
     34      C     1.64154900     3.79451836     2.50779575
     35      C     1.73644553     4.74724354     1.49649382
     36      C     2.59482779     4.52285649     0.42254588
     37      C     3.35581519     3.35800958     0.36611237
     38      H     2.30759673     1.90551553     3.25335706
     39      H     0.97907228     3.96341816     3.35358634
     40      H     1.15087864     5.66175068     1.54725207
     41      H     2.68479189     5.26185922    -0.36944655
     42      C    -0.34329279    -2.29367330    -2.94656547
     43      C    -0.72411074    -3.27655367    -4.07383160
     44      H    -1.65409394    -2.94753719    -4.55104821
     45      H    -0.89649576    -4.29100567    -3.70348162
     46      H     0.04616876    -3.31686312    -4.85260702
     47      C    -0.30348491    -0.87241062    -3.53867247
     48      H     0.45066637    -0.79062378    -4.32834982
     49      H    -1.27700692    -0.61938135    -3.97218410
     50      H    -0.07459790    -0.12241777    -2.77710218
     51      C    -1.41546640    -2.35933960    -1.84439927
     52      H    -1.53095640    -3.36840498    -1.43604600
     53      H    -2.38757076    -2.07140523    -2.26174735
     54      H    -1.49451635     2.25000320     1.89609982
     55      C     3.46120356    -0.10368406    -0.79381841
     56      C     4.40837643     0.31073515    -1.87454582
     57      O     3.67322733    -0.95703124    -4.00107028
     58      O     5.38899654     1.03835146    -1.93085159
 
Total System Charge             0.00000
Bonding info available!
 
 *** GO1_GOStep7 ***

 Energy gradients wrt nuclear displacements
 ==========================================

     Atom      Cartesian (a.u./angstrom)
                 X         Y         Z
 ----------------------------------------
     1 C     0.000485 -0.002524 -0.002322
     2 C    -0.002544  0.002556  0.000927
     3 C    -0.000502  0.001736 -0.000808
     4 O     0.004380  0.001700 -0.008708
     5 H    -0.000033 -0.000418  0.000210
     6 H    -0.000237  0.001073  0.000415
     7 H     0.000709 -0.000193 -0.000394
     8 H     0.000293  0.000021  0.000641
     9 H    -0.000474  0.000527  0.000805
    10 H    -0.000363 -0.000288  0.001319
    11 H    -0.000597 -0.000614  0.001016
    12 H    -0.000198 -0.000657  0.000288
    13 C     0.000766 -0.000194  0.000714
    14 H    -0.000039  0.000727 -0.000978
    15 H     0.000258 -0.000054  0.000466
    16 H    -0.000752  0.000846  0.000631
    17 H    -0.000607  0.000723 -0.000241
    18 H    -0.000507 -0.000360 -0.000760
    19 N    -0.002473  0.000069 -0.001359
    20 C    -0.009053 -0.002088  0.004688
    21 C     0.003523  0.000656 -0.001733
    22 N     0.000711  0.004114 -0.000951
    23 C    -0.002135  0.000971  0.002741
    24 H    -0.000454 -0.005924  0.002302
    25 C    -0.000546 -0.000988  0.001555
    26 H     0.003137 -0.003644  0.005213
    27 H    -0.000868  0.000282 -0.000564
    28 C     0.001146  0.000480 -0.001183
    29 C     0.002342  0.000003 -0.001328
    30 H     0.000472 -0.000359 -0.000314
    31 H    -0.000135 -0.000118  0.000389
    32 C     0.001530  0.001128 -0.000477
    33 C    -0.001217  0.000134 -0.001302
    34 C     0.000880 -0.000834  0.000009
    35 C     0.000592  0.000033 -0.000244
    36 C    -0.000589 -0.000241  0.000241
    37 C    -0.000195 -0.000422  0.001057
    38 H    -0.000162  0.000326  0.000486
    39 H    -0.000163  0.000257  0.000246
    40 H    -0.000026  0.000572 -0.000265
    41 H     0.000557  0.000195 -0.000251
    42 C    -0.001235  0.001157  0.000171
    43 C     0.001242 -0.000135  0.001235
    44 H    -0.000534  0.000013 -0.000768
    45 H    -0.000721 -0.000378 -0.000314
    46 H     0.000115 -0.000152 -0.000986
    47 C     0.000788 -0.002002  0.000648
    48 H     0.000422  0.000233 -0.000476
    49 H    -0.000381  0.000242 -0.000071
    50 H    -0.000130  0.000708 -0.000113
    51 C     0.001838 -0.000339 -0.000986
    52 H    -0.000959 -0.000534 -0.000090
    53 H    -0.001034  0.000164 -0.000108
    54 H     0.000500  0.000629  0.000448
    55 C    -0.002474 -0.000261  0.005481
    56 C    -0.000206  0.001275 -0.001684
    57 O     0.000705 -0.001511 -0.004483
    58 O     0.005153  0.001683 -0.000084
 ----------------------------------------
 Mulliken charges used for AMS results%charges...

 dE(predicted):    -0.11457E-02, dE(actual):    -0.47964E-03, Trust radius:    0.800000, all in a.u.
 
----------------------------------------------------------------------
Geometry Convergence after Step   7       (Hartree/Angstrom,Angstrom)
----------------------------------------------------------------------
current energy                              -12.14305483 Hartree
energy change                      -0.00047964     0.00058000    T
constrained gradient max            0.00908489     0.00100000    F
constrained gradient rms            0.00175812     0.00066667    F
gradient max                        0.00908489
gradient rms                        0.00175812
cart. step max                      0.21482329     0.01000000    F
cart. step rms                      0.06770341     0.00666667    F
 
 
--------
Geometry
--------
Formula: C22H31N2O3
Atoms
  Index Symbol   x (angstrom)   y (angstrom)   z (angstrom)
      1      C    -1.84986332     1.16004991     1.62879000
      2      C    -0.59457060     0.50740355     1.17897300
      3      C    -0.05755242    -0.65584369     1.74394975
      4      O     1.01668701    -1.23192673     1.37896873
      5      H     0.89097352    -4.80430399    -2.45271221
      6      H    -2.34435656     0.55417708     2.39951033
      7      H    -0.01822410     0.99430515     0.39279139
      8      H    -0.62014873    -1.09720838     2.58961194
      9      H     5.07456206     1.35321999     3.18377810
     10      H     3.73029716     0.20051179     3.20396231
     11      H     0.59291103    -4.07324601    -0.86650748
     12      H     5.25995216    -0.25832530     2.44834033
     13      C    -2.83596516     1.46701188     0.48692201
     14      H    -2.37164099     2.10040955    -0.27608043
     15      H     2.24384590    -4.20082460    -1.48916515
     16      H    -1.18524816    -1.56104656    -1.07854592
     17      H    -3.71325531     1.99571069     0.87397092
     18      H    -3.17558178     0.54543386     0.00400800
     19      N     3.38852872     0.08909432     0.50852693
     20      C     2.75934566    -0.93622019    -1.68512441
     21      C     3.69990019    -0.67702987    -2.82433684
     22      N     1.63604679    -1.62920967    -1.49179694
     23      C     4.11710962     1.13296063     1.25924383
     24      H     2.60200543    -0.38252866     0.97990161
     25      C     1.10213368    -2.63255077    -2.43681770
     26      H     1.32625158    -1.68661136    -0.51539252
     27      H     5.00513836     1.36354551     0.66375297
     28      C     1.20454725    -4.01010135    -1.77219469
     29      C     4.56905008     0.57351517     2.60754107
     30      H     4.04169937     3.13688263    -0.54197636
     31      H     1.77546547    -2.61295713    -3.29896352
     32      C     3.27687721     2.40806417     1.33497658
     33      C     2.40208758     2.68021412     2.39238367
     34      C     1.64224202     3.84873995     2.40389801
     35      C     1.73886458     4.76063711     1.35588326
     36      C     2.60500779     4.49799716     0.29645808
     37      C     3.36685388     3.33218911     0.28748610
     38      H     2.30769199     1.98940714     3.22367612
     39      H     0.97428398     4.04832667     3.23841376
     40      H     1.14981859     5.67389554     1.36770460
     41      H     2.69496282     5.20488516    -0.52407598
     42      C    -0.31972190    -2.23939389    -2.98211709
     43      C    -0.71082967    -3.23376232    -4.09515287
     44      H    -1.62585624    -2.89197997    -4.59115997
     45      H    -0.91223358    -4.23582045    -3.70639716
     46      H     0.06911122    -3.30837024    -4.86118715
     47      C    -0.23446483    -0.83054146    -3.59864104
     48      H     0.53066393    -0.78484249    -4.38063017
     49      H    -1.19473903    -0.55828408    -4.04908276
     50      H     0.00789347    -0.07450315    -2.84739493
     51      C    -1.40591081    -2.25619824    -1.89248616
     52      H    -1.55175684    -3.25399574    -1.46723521
     53      H    -2.36468503    -1.94954520    -2.32614269
     54      H    -1.58776548     2.11821357     2.11092311
     55      C     3.50872051    -0.12267352    -0.80144636
     56      C     4.49875351     0.24209376    -1.86119314
     57      O     3.78126558    -1.04917504    -3.98318188
     58      O     5.49560843     0.94598230    -1.90253963
 
Total System Charge             0.00000
Bonding info available!
 
 *** GO1_GOStep8 ***

 Energy gradients wrt nuclear displacements
 ==========================================

     Atom      Cartesian (a.u./angstrom)
                 X         Y         Z
 ----------------------------------------
     1 C     0.000819 -0.001643 -0.002803
     2 C    -0.003158  0.001545  0.000431
     3 C    -0.000920  0.002762  0.000529
     4 O     0.004187  0.001443 -0.008478
     5 H    -0.000203 -0.000235 -0.000045
     6 H    -0.000342  0.000463  0.000626
     7 H     0.000820 -0.000100 -0.000084
     8 H    -0.000042  0.000258  0.000628
     9 H    -0.000507  0.000376  0.000535
    10 H    -0.000536 -0.000172  0.001054
    11 H    -0.000628 -0.000319  0.000727
    12 H    -0.000381 -0.000239  0.000145
    13 C     0.000845  0.000079  0.000987
    14 H     0.000014  0.000567 -0.000652
    15 H    -0.000045 -0.000052  0.000225
    16 H    -0.000654  0.000706  0.000458
    17 H    -0.000349  0.000510 -0.000389
    18 H    -0.000380 -0.000540 -0.000626
    19 N    -0.002797  0.002753  0.000697
    20 C    -0.008037 -0.002610  0.003296
    21 C     0.004027 -0.000819 -0.004089
    22 N    -0.002876  0.004381 -0.002749
    23 C    -0.000980  0.000307  0.002397
    24 H    -0.000644 -0.007525  0.001349
    25 C     0.000355 -0.001815  0.002745
    26 H     0.004307 -0.003001  0.006520
    27 H    -0.000339  0.000171 -0.000141
    28 C     0.000914  0.000927 -0.001244
    29 C     0.001547 -0.000064 -0.001428
    30 H     0.000439 -0.000333 -0.000291
    31 H    -0.000372 -0.000108 -0.000263
    32 C     0.000539 -0.000514 -0.000732
    33 C    -0.000136  0.000267 -0.000446
    34 C     0.000608 -0.000203  0.000354
    35 C     0.000211 -0.000031 -0.000491
    36 C    -0.000145  0.000687  0.000224
    37 C     0.000275 -0.000362  0.000610
    38 H    -0.000158  0.000069  0.000274
    39 H    -0.000219  0.000186 -0.000025
    40 H     0.000075  0.000375 -0.000268
    41 H     0.000230 -0.000142 -0.000246
    42 C    -0.000463  0.000912  0.000379
    43 C     0.001000 -0.000247  0.001011
    44 H    -0.000284 -0.000079 -0.000556
    45 H    -0.000548 -0.000212 -0.000061
    46 H     0.000112 -0.000108 -0.000590
    47 C     0.000436 -0.001230  0.000717
    48 H     0.000187  0.000057 -0.000355
    49 H    -0.000032  0.000236 -0.000175
    50 H     0.000006  0.000391 -0.000207
    51 C     0.001723 -0.000601 -0.000880
    52 H    -0.000629 -0.000359 -0.000154
    53 H    -0.000595  0.000211 -0.000072
    54 H     0.000113  0.000261  0.000231
    55 C    -0.001775  0.000425  0.004775
    56 C     0.002326  0.002566 -0.002121
    57 O     0.000155 -0.000795 -0.001975
    58 O     0.002905  0.000568  0.000713
 ----------------------------------------
 Mulliken charges used for AMS results%charges...

 dE(predicted):    -0.67684E-03, dE(actual):    -0.20410E-03, Trust radius:    0.800000, all in a.u.
 
----------------------------------------------------------------------
Geometry Convergence after Step   8       (Hartree/Angstrom,Angstrom)
----------------------------------------------------------------------
current energy                              -12.14325893 Hartree
energy change                      -0.00020410     0.00058000    T
constrained gradient max            0.00850940     0.00100000    F
constrained gradient rms            0.00173996     0.00066667    F
gradient max                        0.00850940
gradient rms                        0.00173996
cart. step max                      0.21372940     0.01000000    F
cart. step rms                      0.06536477     0.00666667    F
 
 
--------
Geometry
--------
Formula: C22H31N2O3
Atoms
  Index Symbol   x (angstrom)   y (angstrom)   z (angstrom)
      1      C    -1.86724315     1.07751689     1.77111053
      2      C    -0.59946283     0.47085437     1.28964046
      3      C    -0.05012034    -0.71944798     1.78178249
      4      O     1.03374729    -1.25466941     1.38731326
      5      H     0.79988300    -4.78980840    -2.39905206
      6      H    -2.36439820     0.41057260     2.48744535
      7      H    -0.02725308     1.01432197     0.53848474
      8      H    -0.60936979    -1.22024467     2.59556717
      9      H     5.01337378     1.38669001     3.18762480
     10      H     3.66976600     0.23140690     3.18129796
     11      H     0.51429606    -4.00409018    -0.83706594
     12      H     5.22026746    -0.22912540     2.47155958
     13      C    -2.84037697     1.45533768     0.63979353
     14      H    -2.37134286     2.14605002    -0.06799029
     15      H     2.16518715    -4.22131840    -1.43236494
     16      H    -1.15098692    -1.43574811    -1.14698240
     17      H    -3.72948112     1.94490847     1.04962267
     18      H    -3.16087905     0.56727659     0.08717520
     19      N     3.39518813     0.09489891     0.48759250
     20      C     2.81029160    -0.97699305    -1.69155184
     21      C     3.77786303    -0.76794490    -2.81377287
     22      N     1.65640356    -1.62417767    -1.50380790
     23      C     4.10574953     1.14686590     1.24130290
     24      H     2.60237258    -0.37591301     0.94921893
     25      C     1.10591202    -2.63012571    -2.43572307
     26      H     1.34382304    -1.66043112    -0.52736913
     27      H     5.00826038     1.37497825     0.66634031
     28      C     1.13927805    -3.99263821    -1.73485598
     29      C     4.52327199     0.60179637     2.60569836
     30      H     3.98431680     3.09777457    -0.61996161
     31      H     1.79706063    -2.65695927    -3.28365292
     32      C     3.25186607     2.41477998     1.28767422
     33      C     2.38512551     2.70683216     2.34651030
     34      C     1.60603405     3.86309462     2.33039031
     35      C     1.67524010     4.74192998     1.25283019
     36      C     2.53206072     4.45851100     0.19065480
     37      C     3.31382758     3.30614165     0.20956097
     38      H     2.31468307     2.04277772     3.20133324
     39      H     0.94780894     4.08043404     3.16794614
     40      H     1.07215067     5.64562586     1.24371089
     41      H     2.60230003     5.14207674    -0.65111718
     42      C    -0.28637207    -2.19102958    -3.01878512
     43      C    -0.69830072    -3.18856299    -4.12089262
     44      H    -1.58885696    -2.81929436    -4.64011839
     45      H    -0.94634006    -4.17384698    -3.71704589
     46      H     0.09302125    -3.30920333    -4.86851983
     47      C    -0.12900918    -0.79892350    -3.65881347
     48      H     0.65219551    -0.80205433    -4.42594604
     49      H    -1.06734655    -0.49405331    -4.13320278
     50      H     0.13313138    -0.04163938    -2.91566823
     51      C    -1.39151425    -2.13664517    -1.94979497
     52      H    -1.58738338    -3.11738491    -1.50642648
     53      H    -2.32736663    -1.79609589    -2.40642706
     54      H    -1.62457567     2.00142167     2.32465251
     55      C     3.55481282    -0.15588242    -0.81186383
     56      C     4.57558699     0.16129957    -1.85535467
     57      O     3.87504965    -1.16946956    -3.96083672
     58      O     5.57956096     0.85340417    -1.89420189
 
Total System Charge             0.00000
Bonding info available!
 
 *** GO1_GOStep9 ***

 Energy gradients wrt nuclear displacements
 ==========================================

     Atom      Cartesian (a.u./angstrom)
                 X         Y         Z
 ----------------------------------------
     1 C     0.000540 -0.000275 -0.002133
     2 C    -0.001916 -0.000023  0.000689
     3 C    -0.001611  0.001984  0.000374
     4 O     0.003439  0.002515 -0.007511
     5 H    -0.000070  0.000068 -0.000020
     6 H    -0.000306  0.000130  0.000229
     7 H     0.000696 -0.000004 -0.000065
     8 H     0.000250  0.000572  0.000589
     9 H    -0.000452  0.000081  0.000176
    10 H    -0.000413  0.000052  0.000539
    11 H    -0.000370 -0.000010  0.000257
    12 H    -0.000405  0.000118  0.000128
    13 C     0.000427  0.000380  0.000728
    14 H     0.000075  0.000136 -0.000270
    15 H    -0.000310 -0.000103  0.000113
    16 H    -0.000368  0.000257  0.000013
    17 H     0.000068  0.000281 -0.000637
    18 H    -0.000064 -0.000135 -0.000337
    19 N    -0.002976  0.004729  0.003100
    20 C    -0.004137 -0.002879  0.001772
    21 C     0.002649 -0.001523 -0.004799
    22 N    -0.007214  0.003425 -0.003598
    23 C    -0.000066  0.000195  0.001341
    24 H    -0.000743 -0.008679  0.000243
    25 C     0.000399 -0.001970  0.002147
    26 H     0.005680 -0.001795  0.007382
    27 H     0.000365 -0.000195  0.000304
    28 C     0.000987  0.001075 -0.000425
    29 C    -0.000072  0.000172 -0.001160
    30 H     0.000483 -0.000153 -0.000084
    31 H    -0.000356  0.000216 -0.000559
    32 C     0.000835 -0.000917 -0.000039
    33 C    -0.000667 -0.000583 -0.000287
    34 C    -0.000305  0.000164  0.000425
    35 C     0.000175  0.000379 -0.000240
    36 C    -0.000631  0.000548 -0.000339
    37 C     0.000377 -0.000474 -0.000293
    38 H     0.000114 -0.000039  0.000213
    39 H     0.000105  0.000238 -0.000119
    40 H     0.000200 -0.000016 -0.000119
    41 H     0.000337 -0.000077  0.000081
    42 C     0.000427 -0.000109  0.000749
    43 C     0.000346 -0.000046 -0.000082
    44 H     0.000052 -0.000145 -0.000247
    45 H    -0.000253  0.000159  0.000014
    46 H     0.000075  0.000037 -0.000091
    47 C     0.000024 -0.000544  0.000828
    48 H     0.000123 -0.000270 -0.000139
    49 H     0.000198  0.000121 -0.000199
    50 H     0.000267 -0.000043 -0.000130
    51 C     0.000820 -0.000319 -0.000509
    52 H    -0.000223  0.000159 -0.000282
    53 H    -0.000039  0.000165 -0.000025
    54 H    -0.000328  0.000284 -0.000094
    55 C    -0.000885  0.000702  0.002787
    56 C     0.003900  0.002306 -0.001309
    57 O    -0.000012 -0.000263 -0.000020
    58 O     0.000760 -0.000059  0.000946
 ----------------------------------------
 Mulliken charges used for AMS results%charges...

 dE(predicted):    -0.52487E-03, dE(actual):    -0.65632E-05, Trust radius:    0.122220, all in a.u.
 
----------------------------------------------------------------------
Geometry Convergence after Step   9       (Hartree/Angstrom,Angstrom)
----------------------------------------------------------------------
current energy                              -12.14326550 Hartree
energy change                      -0.00000656     0.00058000    T
constrained gradient max            0.00866597     0.00100000    F
constrained gradient rms            0.00168336     0.00066667    F
gradient max                        0.00866597
gradient rms                        0.00168336
cart. step max                      0.05776767     0.01000000    F
cart. step rms                      0.01945728     0.00666667    F
 
 
--------
Geometry
--------
Formula: C22H31N2O3
Atoms
  Index Symbol   x (angstrom)   y (angstrom)   z (angstrom)
      1      C    -1.86732936     1.06825711     1.80744205
      2      C    -0.60208800     0.46596894     1.31128295
      3      C    -0.05218969    -0.72944046     1.79104141
      4      O     1.03346525    -1.25831251     1.39660312
      5      H     0.76468682    -4.79445872    -2.38944841
      6      H    -2.36071668     0.39188756     2.51707112
      7      H    -0.03469017     1.01787197     0.56306938
      8      H    -0.61455086    -1.24026676     2.59628941
      9      H     5.01805761     1.39896623     3.17875469
     10      H     3.67707931     0.23959866     3.17789416
     11      H     0.47624512    -3.99614987    -0.83460027
     12      H     5.22777424    -0.21763518     2.46740538
     13      C    -2.84670668     1.46004936     0.68578663
     14      H    -2.38157544     2.15992879    -0.01529801
     15      H     2.12901412    -4.24521955    -1.41046076
     16      H    -1.13494258    -1.39626411    -1.17539793
     17      H    -3.73365066     1.94341045     1.10739035
     18      H    -3.16965630     0.57929035     0.12363325
     19      N     3.39647106     0.09294801     0.48723592
     20      C     2.81788215    -0.99275045    -1.68433371
     21      C     3.77977914    -0.78366939    -2.80726431
     22      N     1.66486086    -1.64036576    -1.49559747
     23      C     4.10514978     1.15029437     1.23455502
     24      H     2.60365880    -0.37447176     0.95036825
     25      C     1.10924644    -2.63942216    -2.43209326
     26      H     1.34694472    -1.67166851    -0.52242648
     27      H     5.00520306     1.37918744     0.65620464
     28      C     1.11059602    -4.00011747    -1.72535256
     29      C     4.52816628     0.61137977     2.60042355
     30      H     3.95648573     3.08443887    -0.64181692
     31      H     1.81066693    -2.68090643    -3.27081125
     32      C     3.24541272     2.41520562     1.27842119
     33      C     2.38670713     2.71308200     2.34212850
     34      C     1.59746130     3.86230119     2.31952599
     35      C     1.65134315     4.73046579     1.23285862
     36      C     2.50386114     4.44384664     0.16809689
     37      C     3.29327025     3.29728121     0.19206262
     38      H     2.32550064     2.05585308     3.20266135
     39      H     0.94162150     4.08128128     3.15849145
     40      H     1.03942502     5.62811413     1.21826404
     41      H     2.56066007     5.11841755    -0.68194392
     42      C    -0.26901635    -2.18016476    -3.03294296
     43      C    -0.68613452    -3.17935300    -4.13129118
     44      H    -1.56574067    -2.80007267    -4.66135249
     45      H    -0.95208086    -4.15774737    -3.72221562
     46      H     0.11086186    -3.31796339    -4.86947106
     47      C    -0.08299289    -0.79496019    -3.68125480
     48      H     0.70657095    -0.81518238    -4.43933083
     49      H    -1.01138844    -0.47948048    -4.16774961
     50      H     0.18250719    -0.03716938    -2.93990499
     51      C    -1.38266064    -2.09890317    -1.97418764
     52      H    -1.59754031    -3.07250173    -1.52413116
     53      H    -2.30853429    -1.74622234    -2.44133360
     54      H    -1.62104398     1.98501836     2.37077849
     55      C     3.55845553    -0.16505813    -0.80956683
     56      C     4.57464060     0.15259507    -1.85482214
     57      O     3.87621939    -1.18815576    -3.95318327
     58      O     5.57206507     0.85297154    -1.90148885
 
Total System Charge             0.00000
Bonding info available!
 
 *** GO1_GOStep10 ***

 Energy gradients wrt nuclear displacements
 ==========================================

     Atom      Cartesian (a.u./angstrom)
                 X         Y         Z
 ----------------------------------------
     1 C     0.000132  0.000366 -0.000797
     2 C    -0.000670 -0.000606  0.000084
     3 C    -0.000957  0.001618 -0.000327
     4 O     0.002251  0.003019 -0.006488
     5 H    -0.000066 -0.000006  0.000003
     6 H    -0.000168  0.000107 -0.000150
     7 H     0.000163 -0.000037 -0.000041
     8 H     0.000324  0.000459  0.000260
     9 H    -0.000237 -0.000103  0.000117
    10 H    -0.000106  0.000106  0.000081
    11 H    -0.000121  0.000092 -0.000117
    12 H    -0.000265  0.000116  0.000262
    13 C     0.000104  0.000237  0.000115
    14 H     0.000074 -0.000040 -0.000171
    15 H    -0.000327 -0.000091  0.000112
    16 H    -0.000075 -0.000063 -0.000225
    17 H     0.000146  0.000168 -0.000537
    18 H     0.000032  0.000246 -0.000158
    19 N    -0.003405  0.003822  0.001967
    20 C    -0.001462 -0.002310  0.001482
    21 C     0.000973 -0.001588 -0.003964
    22 N    -0.007037  0.003625 -0.001216
    23 C     0.000112 -0.000033  0.000354
    24 H    -0.000117 -0.008117 -0.000241
    25 C     0.000528 -0.001469  0.001040
    26 H     0.005945 -0.001495  0.005742
    27 H     0.000369 -0.000376  0.000305
    28 C     0.000452  0.000578  0.000113
    29 C    -0.000461  0.000069 -0.000351
    30 H     0.000076 -0.000127  0.000092
    31 H    -0.000279  0.000196 -0.000409
    32 C     0.000259 -0.000836 -0.000260
    33 C    -0.000192 -0.000023  0.000226
    34 C    -0.000237  0.000281  0.000160
    35 C     0.000023  0.000119 -0.000240
    36 C     0.000054  0.000401 -0.000015
    37 C     0.000380 -0.000118 -0.000082
    38 H    -0.000064 -0.000027 -0.000094
    39 H    -0.000023  0.000123 -0.000246
    40 H     0.000149 -0.000096 -0.000133
    41 H     0.000116 -0.000104 -0.000036
    42 C     0.000515 -0.000218  0.000634
    43 C     0.000179 -0.000037 -0.000437
    44 H     0.000236 -0.000075 -0.000016
    45 H     0.000027  0.000101  0.000052
    46 H     0.000068 -0.000024  0.000211
    47 C    -0.000244  0.000098  0.000524
    48 H     0.000122 -0.000247 -0.000100
    49 H     0.000284  0.000000 -0.000157
    50 H     0.000311 -0.000221 -0.000128
    51 C     0.000128 -0.000034 -0.000202
    52 H     0.000020  0.000250 -0.000199
    53 H     0.000153  0.000109 -0.000067
    54 H    -0.000374  0.000261 -0.000240
    55 C    -0.000836  0.000624  0.002037
    56 C     0.003691  0.002162  0.000080
    57 O    -0.000033  0.000144  0.001212
    58 O    -0.000642 -0.000975  0.000578
 ----------------------------------------
 Mulliken charges used for AMS results%charges...

 dE(predicted):    -0.19158E-03, dE(actual):    -0.27688E-03, Trust radius:    0.244440, all in a.u.
 
----------------------------------------------------------------------
Geometry Convergence after Step  10       (Hartree/Angstrom,Angstrom)
----------------------------------------------------------------------
current energy                              -12.14354238 Hartree
energy change                      -0.00027688     0.00058000    T
constrained gradient max            0.00810077     0.00100000    F
constrained gradient rms            0.00143033     0.00066667    F
gradient max                        0.00810077
gradient rms                        0.00143033
cart. step max                      0.11271961     0.01000000    F
cart. step rms                      0.03687860     0.00666667    F
 
 
--------
Geometry
--------
Formula: C22H31N2O3
Atoms
  Index Symbol   x (angstrom)   y (angstrom)   z (angstrom)
      1      C    -1.86916357     1.04837948     1.87494888
      2      C    -0.60440806     0.45839262     1.35913607
      3      C    -0.05805551    -0.75014317     1.81227491
      4      O     1.02987886    -1.26883130     1.41653617
      5      H     0.69818628    -4.80922841    -2.37202784
      6      H    -2.36329466     0.34979934     2.56154236
      7      H    -0.03720256     1.03199059     0.62775016
      8      H    -0.62877833    -1.27957703     2.59957447
      9      H     5.02492039     1.42474087     3.16126251
     10      H     3.69137455     0.25510301     3.17320746
     11      H     0.40457880    -3.98716904    -0.83084070
     12      H     5.24200945    -0.19354000     2.45781267
     13      C    -2.84953282     1.47889288     0.76708246
     14      H    -2.38485230     2.20246082     0.09019648
     15      H     2.05930837    -4.29490586    -1.36982517
     16      H    -1.10476549    -1.32462374    -1.23382942
     17      H    -3.73553102     1.94738636     1.20749038
     18      H    -3.17363017     0.61842464     0.17541466
     19      N     3.39732337     0.08875725     0.48650449
     20      C     2.82625078    -1.01981425    -1.67335787
     21      C     3.77298768    -0.80249253    -2.80002850
     22      N     1.68148100    -1.67921880    -1.48040371
     23      C     4.10046182     1.15793082     1.22222799
     24      H     2.60631769    -0.37266017     0.95507300
     25      C     1.11501639    -2.66450036    -2.42596161
     26      H     1.35128763    -1.70271734    -0.51403173
     27      H     4.99392134     1.39134919     0.63609005
     28      C     1.05584162    -4.02001021    -1.70829355
     29      C     4.53647603     0.63092125     2.59021957
     30      H     3.90418575     3.06181662    -0.67818483
     31      H     1.83504386    -2.73510565    -3.24637003
     32      C     3.22907842     2.41653307     1.26284088
     33      C     2.38500510     2.72418148     2.33515097
     34      C     1.58554793     3.86607202     2.30633368
     35      C     1.61452629     4.71707444     1.20562717
     36      C     2.45137012     4.41933289     0.13135032
     37      C     3.25108214     3.28100503     0.16171916
     38      H     2.34429863     2.08217010     3.20807049
[...]
                                   -2.68%     2 P:x            12.627  0.00     9 C
                                    2.48%     1 S              -6.481  1.00    37 H
                                    2.47%     2 S              10.460  0.00    28 H
                                    2.35%     1 P:y            -5.233  0.67     4 C
                                    1.99%     1 P:x            -5.233  0.67     2 C
                                    1.97%     1 S              -6.481  1.00    53 H
                                    1.95%     1 S              -6.481  1.00    49 H
                                    1.83%     2 S             -13.951  2.00     3 C
                                    1.83%     1 S              -6.481  1.00    48 H
                                    1.76%     1 P:z            -5.233  0.67     4 C
                                    1.65%     1 S              -6.481  1.00    26 H
                                   -1.64%     2 S              10.460  0.00    35 H
                                    1.53%     1 P:z            -5.233  0.67    10 C
                                   -1.46%     2 P:x            12.627  0.00    18 C
                                    1.44%     1 P:y            11.166  0.00    28 H
                                    1.42%     1 P:x            -5.233  0.67    18 C
                                   -1.42%     2 P:x            12.627  0.00     2 C
                                    1.34%     1 S              -6.481  1.00    36 H
                                    1.34%     1 P:x            11.166  0.00    34 H
                                    1.34%     1 P:y            -5.233  0.67     1 C
                                   -1.32%     2 P:z            12.627  0.00     4 C
                                   -1.31%     2 P:y            12.627  0.00     1 C
                                    1.21%     1 P:x            -5.233  0.67     4 C
                                    1.21%     1 S              -6.481  1.00    47 H
                                    1.19%     1 S              -6.481  1.00    33 H
                                    1.08%     1 S              -6.481  1.00    31 H
                                   -1.03%     3 S              11.446  0.00     3 C
                                    1.01%     1 S              -6.481  1.00    50 H
       3.532  0.00   133 A         11.40%     1 S              -6.481  1.00    34 H
                                    9.23%     1 P:x            -5.233  0.67     4 C
                                    8.42%     1 S              -6.481  1.00    37 H
                                    6.29%     1 S              -6.481  1.00    46 H
                                    5.98%     1 S              -6.481  1.00    28 H
                                    5.25%     1 S              -6.481  1.00    27 H
                                    5.00%     2 S             -13.951  2.00    14 C
                                   -4.97%     2 P:x            12.627  0.00     4 C
                                    4.77%     1 S              -6.481  1.00    47 H
                                    4.74%     1 S              -6.481  1.00    45 H
                                    4.02%     1 S              -6.481  1.00    42 H
                                   -3.64%     3 S              11.446  0.00    14 C
                                    3.28%     1 P:y            -5.233  0.67     1 C
                                    3.12%     1 S              -6.481  1.00    38 H
                                    2.98%     2 S             -13.951  2.00    15 C
                                    2.77%     1 P:y            -5.233  0.67     2 C
                                    2.20%     2 S             -13.951  2.00     7 C
                                    2.19%     1 S              -6.481  1.00    29 H
                                    1.92%     2 S             -13.951  2.00    13 C
                                   -1.64%     3 S              11.446  0.00    15 C
                                    1.60%     2 S             -13.951  2.00     3 C
                                    1.46%     1 S              -6.481  1.00    32 H
                                    1.43%     1 S              -6.481  1.00    44 H
                                   -1.41%     3 S              11.446  0.00     3 C
                                    1.35%     1 P:y            -5.233  0.67     4 C
                                    1.34%     1 S              -6.481  1.00    53 H
                                   -1.34%     3 S              11.446  0.00     2 C
                                   -1.34%     2 S              10.460  0.00    34 H
                                    1.23%     2 S             -13.951  2.00    11 C
                                   -1.23%     3 S              11.446  0.00     7 C
                                    1.23%     2 S             -13.951  2.00     2 C
                                    1.22%     1 P:y            -5.233  0.67     9 C
                                    1.19%     1 S              -6.481  1.00    36 H
                                    1.18%     1 P:z            -5.233  0.67    16 C
                                    1.15%     1 P:x            -5.233  0.67    21 C
                                    1.12%     2 S              10.460  0.00    47 H
                                    1.10%     2 S              10.460  0.00    45 H
                                    1.08%     1 P:x            11.166  0.00    27 H
                                    1.06%     1 P:z            -5.233  0.67    12 C
                                    1.05%     1 P:y            -5.233  0.67    13 C
                                    1.00%     1 P:x            11.166  0.00    28 H
       3.546  0.00   134 A          9.88%     1 S              -6.481  1.00    29 H
                                    9.78%     1 S              -6.481  1.00    38 H
                                    7.38%     1 S              -6.481  1.00    31 H
                                    7.16%     1 S              -6.481  1.00    35 H
                                    7.12%     1 S              -6.481  1.00    34 H
                                    7.02%     1 S              -6.481  1.00    44 H
                                    6.22%     1 P:x            -5.233  0.67     9 C
                                    5.60%     1 S              -6.481  1.00    32 H
                                    5.52%     1 P:z            -5.233  0.67     4 C
                                   -3.66%     2 P:x            12.627  0.00     9 C
                                    2.84%     1 S              -6.481  1.00    40 H
                                   -2.58%     3 S              11.446  0.00    12 C
                                    2.32%     2 S             -13.951  2.00     8 C
                                   -2.31%     2 P:y            12.627  0.00     4 C
                                   -2.28%     2 P:z            12.627  0.00     4 C
                                    2.04%     2 S             -13.951  2.00    12 C
                                    1.83%     1 P:y            -5.233  0.67     4 C
                                   -1.81%     3 S              11.446  0.00     3 C
                                    1.81%     1 P:x            -5.233  0.67    10 C
                                    1.78%     1 P:y            -5.233  0.67     3 C
                                    1.78%     1 P:x            -5.233  0.67    17 C
                                    1.76%     2 S             -13.951  2.00     1 C
                                   -1.68%     3 S              11.446  0.00     8 C
                                    1.64%     1 S              -6.481  1.00    37 H
                                    1.52%     2 S              10.460  0.00    56 H
                                    1.50%     1 S              -6.481  1.00    56 H
                                   -1.49%     3 S              11.446  0.00     1 C
                                    1.37%     2 S             -13.951  2.00     6 C
                                    1.34%     2 S              10.460  0.00    44 H
                                   -1.24%     2 S              10.460  0.00    38 H
                                    1.16%     2 S             -13.951  2.00     3 C
                                    1.16%     2 S             -13.951  2.00    13 C
                                    1.14%     1 P:z            -5.233  0.67     5 C
                                    1.06%     1 P:x            -5.233  0.67     1 C
                                    1.05%     2 S              10.460  0.00    29 H
                                    1.04%     1 P:z            -7.025  1.00    58 N
                                    1.01%     1 P:y            -5.233  0.67     5 C

 Energy gradients wrt nuclear displacements
 ==========================================

     Atom      Cartesian (a.u./angstrom)
                 X         Y         Z
 ----------------------------------------
     1 C    -0.000217  0.000141  0.000256
     2 C     0.000233 -0.000042 -0.000198
     3 C    -0.000240  0.000100 -0.000199
     4 O     0.000407 -0.000017  0.000647
     5 H    -0.000024 -0.000023 -0.000002
     6 H    -0.000079  0.000092 -0.000143
     7 H    -0.000055  0.000108  0.000041
     8 H    -0.000050  0.000126 -0.000054
     9 H    -0.000078 -0.000021  0.000149
    10 H    -0.000133 -0.000016  0.000110
    11 H    -0.000049  0.000015 -0.000046
    12 H    -0.000065 -0.000005  0.000099
    13 C    -0.000074  0.000202 -0.000216
    14 H     0.000005  0.000116 -0.000192
    15 H    -0.000053 -0.000022  0.000048
    16 H     0.000027  0.000064 -0.000035
    17 H    -0.000065  0.000165 -0.000186
    18 H    -0.000002  0.000080 -0.000207
    19 N     0.000161 -0.000288 -0.000192
    20 C     0.000510  0.000185  0.000258
    21 C     0.000026  0.000036 -0.000010
    22 N    -0.000074 -0.000524 -0.000484
    23 C    -0.000075  0.000003  0.000066
    24 H    -0.000456  0.000209 -0.000066
    25 C     0.000121  0.000374 -0.000070
    26 H    -0.000308  0.000114 -0.000096
    27 H     0.000143 -0.000120  0.000095
    28 C    -0.000204 -0.000222  0.000330
    29 C    -0.000052 -0.000177  0.000096
    30 H     0.000109 -0.000132 -0.000013
    31 H     0.000008 -0.000088  0.000086
    32 C     0.000169 -0.000251 -0.000084
    33 C    -0.000099  0.000110  0.000154
    34 C     0.000006  0.000019 -0.000092
    35 C     0.000052  0.000032  0.000035
    36 C    -0.000056 -0.000104 -0.000181
    37 C     0.000040  0.000184 -0.000020
    38 H    -0.000077 -0.000004 -0.000011
    39 H    -0.000077  0.000080 -0.000025
    40 H     0.000048  0.000074 -0.000087
    41 H     0.000129  0.000005 -0.000010
    42 C     0.000238 -0.000071 -0.000037
    43 C     0.000064 -0.000046  0.000072
    44 H     0.000039 -0.000018 -0.000022
    45 H     0.000038 -0.000004 -0.000035
    46 H     0.000069  0.000003  0.000037
    47 C     0.000201 -0.000144  0.000028
    48 H     0.000055 -0.000083  0.000051
    49 H     0.000107  0.000002 -0.000024
    50 H     0.000095  0.000008 -0.000019
    51 C    -0.000011  0.000002 -0.000007
    52 H    -0.000008  0.000071 -0.000030
    53 H     0.000020 -0.000011 -0.000076
    54 H    -0.000106  0.000127 -0.000278
    55 C    -0.000260  0.000179  0.000278
    56 C    -0.000098 -0.000342  0.000230
    57 O     0.000051 -0.000201  0.000181
    58 O    -0.000026 -0.000051  0.000102
 ----------------------------------------



 =======================================================================
 Electrostatic potential at the Nuclei due to electrons and other nuclei
 =======================================================================
  
         Atom                  Potential
         ----                  ---------
     1)   C                  14.75458303
     2)   C                  14.75929144
     3)   C                  14.71661093
     4)   O                  22.35923172
     5)   H                   1.10430298
     6)   H                   1.09793352
     7)   H                   1.08595890
     8)   H                   1.09429270
     9)   H                   1.10070234
    10)   H                   1.10228712
    11)   H                   1.10551452
    12)   H                   1.10446246
    13)   C                  14.77405819
    14)   H                   1.10480520
    15)   H                   1.10714998
    16)   H                   1.11313831
    17)   H                   1.10349979
    18)   H                   1.10556223
    19)   N                  18.33348243
    20)   C                  14.72146922
    21)   C                  14.71621243
    22)   N                  18.33333518
    23)   C                  14.71062881
    24)   H                   1.00182069
    25)   C                  14.72163514
    26)   H                   1.00213876
    27)   H                   1.08962054
    28)   C                  14.77982501
    29)   C                  14.77707149
    30)   H                   1.08604019
    31)   H                   1.10090716
    32)   C                  14.74994086
    33)   C                  14.76366040
    34)   C                  14.76434303
    35)   C                  14.76517237
    36)   C                  14.76509890
    37)   C                  14.76549907
    38)   H                   1.08423649
    39)   H                   1.08454192
    40)   H                   1.08444650
    41)   H                   1.08565641
    42)   C                  14.74238759
    43)   C                  14.78664646
    44)   H                   1.11267948
    45)   H                   1.11372539
    46)   H                   1.11333368
    47)   C                  14.79227773
    48)   H                   1.11982815
    49)   H                   1.11723873
    50)   H                   1.11949893
    51)   C                  14.78545913
    52)   H                   1.11177748
    53)   H                   1.11083683
    54)   H                   1.09167515
    55)   C                  14.72178941
    56)   C                  14.71587296
    57)   O                  22.38267834
    58)   O                  22.38326332
 Mulliken charges used for AMS results%charges...


    =====================
     CALCULATION RESULTS
    =====================

Energy (hartree)           -12.14907379

Gradients (hartree/bohr)
  Index   Atom            d/dx            d/dy            d/dz
      1      C   -0.0001147460    0.0000747907    0.0001352710
      2      C    0.0001233919   -0.0000223996   -0.0001048038
      3      C   -0.0001268474    0.0000530694   -0.0001054243
      4      O    0.0002153676   -0.0000089772    0.0003422326
      5      H   -0.0000125011   -0.0000122719   -0.0000011147
      6      H   -0.0000419377    0.0000487822   -0.0000757136
      7      H   -0.0000293266    0.0000569800    0.0000218503
      8      H   -0.0000264492    0.0000664300   -0.0000284170
      9      H   -0.0000411034   -0.0000111368    0.0000786120
     10      H   -0.0000705588   -0.0000084553    0.0000584560
     11      H   -0.0000258078    0.0000077045   -0.0000243542
     12      H   -0.0000344934   -0.0000026508    0.0000524252
     13      C   -0.0000392549    0.0001067233   -0.0001144041
     14      H    0.0000027037    0.0000615907   -0.0001014126
     15      H   -0.0000280345   -0.0000116995    0.0000252226
     16      H    0.0000141367    0.0000340376   -0.0000186303
     17      H   -0.0000343477    0.0000874076   -0.0000983945
     18      H   -0.0000011761    0.0000420738   -0.0001092772
     19      N    0.0000851978   -0.0001522393   -0.0001013538
     20      C    0.0002697429    0.0000977266    0.0001367812
     21      C    0.0000140090    0.0000191872   -0.0000053065
     22      N   -0.0000392564   -0.0002773223   -0.0002558679
     23      C   -0.0000395047    0.0000017517    0.0000349765
     24      H   -0.0002410565    0.0001103895   -0.0000350224
     25      C    0.0000638951    0.0001978354   -0.0000372822
     26      H   -0.0001629529    0.0000601495   -0.0000506508
     27      H    0.0000757079   -0.0000634781    0.0000500528
     28      C   -0.0001078809   -0.0001174525    0.0001746763
     29      C   -0.0000272568   -0.0000938780    0.0000508788
     30      H    0.0000574825   -0.0000698325   -0.0000068651
     31      H    0.0000040392   -0.0000465734    0.0000453343
     32      C    0.0000892802   -0.0001327684   -0.0000443741
     33      C   -0.0000523002    0.0000579508    0.0000816132
     34      C    0.0000033444    0.0000101875   -0.0000487536
     35      C    0.0000276289    0.0000171257    0.0000185774
     36      C   -0.0000296608   -0.0000547907   -0.0000960030
     37      C    0.0000209642    0.0000974133   -0.0000107747
     38      H   -0.0000407591   -0.0000019316   -0.0000057073
     39      H   -0.0000405112    0.0000423063   -0.0000132284
     40      H    0.0000252911    0.0000393343   -0.0000462566
     41      H    0.0000680605    0.0000026791   -0.0000055518
     42      C    0.0001257444   -0.0000376996   -0.0000198209
     43      C    0.0000337539   -0.0000243893    0.0000380124
     44      H    0.0000206788   -0.0000095088   -0.0000116537
     45      H    0.0000200351   -0.0000022204   -0.0000183297
     46      H    0.0000367444    0.0000017852    0.0000196165
     47      C    0.0001063983   -0.0000761195    0.0000145587
     48      H    0.0000292483   -0.0000441066    0.0000269675
     49      H    0.0000567893    0.0000009594   -0.0000126726
     50      H    0.0000500627    0.0000044667   -0.0000100622
     51      C   -0.0000057384    0.0000012446   -0.0000039101
     52      H   -0.0000040664    0.0000377902   -0.0000160269
     53      H    0.0000105944   -0.0000056326   -0.0000403877
     54      H   -0.0000563211    0.0000671009   -0.0001469811
     55      C   -0.0001374798    0.0000944607    0.0001469348
     56      C   -0.0000520553   -0.0001808324    0.0001215693
     57      O    0.0000269865   -0.0001063373    0.0000960241
     58      O   -0.0000138943   -0.0000267297    0.0000541460


--------------
Atomic charges
--------------
  Index   Atom    Charge
      1      C   -0.1065
      2      C   -0.1102
      3      C    0.5618
      4      O   -0.7198
      5      H   -0.0198
      6      H    0.0187
      7      H    0.1095
      8      H   -0.0765
      9      H   -0.0172
     10      H   -0.0284
     11      H   -0.0382
     12      H    0.0237
     13      C    0.1486
     14      H   -0.0188
     15      H    0.0001
     16      H    0.0026
     17      H   -0.0314
     18      H   -0.0180
     19      N   -0.4269
     20      C    0.1931
     21      C    0.4209
     22      N   -0.4095
     23      C   -0.0582
     24      H    0.2431
     25      C   -0.0110
     26      H    0.2275
     27      H    0.1368
     28      C    0.1731
     29      C    0.1479
     30      H    0.0043
     31      H    0.1396
     32      C   -0.1411
     33      C    0.0465
     34      C    0.0327
     35      C    0.0158
     36      C    0.0353
     37      C    0.0696
     38      H   -0.0005
     39      H   -0.0260
     40      H   -0.0256
     41      H   -0.0231
     42      C   -0.4268
     43      C    0.2149
     44      H   -0.0184
     45      H   -0.0310
     46      H   -0.0293
     47      C    0.2055
     48      H   -0.0082
     49      H   -0.0281
     50      H   -0.0027
     51      C    0.1863
     52      H   -0.0319
     53      H   -0.0204
     54      H    0.0544
     55      C    0.1904
     56      C    0.4191
     57      O   -0.5596
     58      O   -0.5585


Dipole moment vector    (Debye):    -7.89218308    1.30578851    4.52028255
              magnitude (Debye):     9.18828557


AMS application finished. Exiting.
NORMAL TERMINATION
     Total cpu time:   20103.36
  Total system time:     666.91
 Total elapsed time:   27219.34
